                               Psi4 1.4a3.dev225

  ==> Input File <==

--------------------------------------------------------------------------
#psi4
#
memory 32 gb

molecule  {
0 1
  O       -1.4602810    -1.8042760    -0.0008590
  N       -1.1067000     0.4494610     0.0014260
  N        0.7338450    -1.0777760     0.0056990
  N        2.8872480    -0.2944040    -0.0665390
  C       -0.2576190     1.5082170    -0.0002850
  C        1.0914800     1.3228940    -0.0047970
  C       -0.6316600    -0.8954310    -0.0014820
  C       -2.5563510     0.6193970     0.0049040
  C        1.5601133    -0.0385348    -0.0010273
  H       -0.7147670     2.4940890    -0.0022110
  H        1.7746080     2.1637920    -0.0246520
  H       -2.7835150     1.6863950     0.0041520
  H       -2.9802500     0.1433220     0.8903410
  H       -2.9840040     0.1411790    -0.8774920
  H        3.5206970     0.4000120     0.3068300
  H        3.1306380    -1.2574880     0.1361150
units angstrom
no_reorient  #important for SAPT in psi4, default
symmetry c1  #important for SAPT in psi4, default
}

set PROPERTIES_ORIGIN ["COM"]
properties('MP2/aug-cc-pvtz', properties = ['dipole'])
--------------------------------------------------------------------------

    Molecular point group: c1
  Charge       = 0
  Multiplicity = 1
  Basis Set: AUG-CC-PVTZ
    Blend: AUG-CC-PVTZ
  Basis Set: (AUG-CC-PVTZ AUX)
    Blend: AUG-CC-PVTZ-JKFIT

    Orbital Energies [Eh]
    ---------------------

    Doubly Occupied:

       1A    -20.501580     2A    -15.624468     3A    -15.595385
       4A    -15.540798     5A    -11.368043     6A    -11.350574
       7A    -11.327110     8A    -11.272498     9A    -11.243400
      10A     -1.381401    11A     -1.296123    12A     -1.270638
      13A     -1.171817    14A     -1.070079    15A     -0.963952
      16A     -0.896972    17A     -0.855787    18A     -0.760962
      19A     -0.726065    20A     -0.689104    21A     -0.675181
      22A     -0.653887    23A     -0.621436    24A     -0.601460
      25A     -0.588410    26A     -0.576628    27A     -0.565744
      28A     -0.519405    29A     -0.479362    30A     -0.439692
      31A     -0.416332    32A     -0.383475    33A     -0.336296

  @DF-RHF Final Energy:  -431.80273179815663

   => Energetics <=

    Nuclear Repulsion Energy =            441.3979812172658512
    One-Electron Energy =               -1462.8732978402183562
    Two-Electron Energy =                 589.6725848247958766
    Total Energy =                       -431.8027317981566284
  Basis Set: (AUG-CC-PVTZ AUX)
    Blend: AUG-CC-PVTZ-RI
    Molecular point group: c1

    Geometry (in Angstrom), charge = 0, multiplicity = 1:

       Center              X                  Y                   Z               Mass
    ------------   -----------------  -----------------  -----------------  -----------------
         O           -1.470508312448    -1.758176326571     0.002671288050    15.994914619570
         N           -1.116927312448     0.495560673429     0.004956288050    14.003074004430
         N            0.723617687552    -1.031676326571     0.009229288050    14.003074004430
         N            2.877020687552    -0.248304326571    -0.063008711950    14.003074004430
         C           -0.267846312448     1.554316673429     0.003245288050    12.000000000000
         C            1.081252687552     1.368993673429    -0.001266711950    12.000000000000
         C           -0.641887312448    -0.849331326571     0.002048288050    12.000000000000
         C           -2.566578312448     0.665496673429     0.008434288050    12.000000000000
         C            1.549885987552     0.007564873429     0.002502988050    12.000000000000
         H           -0.724994312448     2.540188673429     0.001319288050     1.007825032230
         H            1.764380687552     2.209891673429    -0.021121711950     1.007825032230
         H           -2.793742312448     1.732494673429     0.007682288050     1.007825032230
         H           -2.990477312448     0.189421673429     0.893871288050     1.007825032230
         H           -2.994231312448     0.187278673429    -0.873961711950     1.007825032230
         H            3.510469687552     0.446111673429     0.310360288050     1.007825032230
         H            3.120410687552    -1.211388326571     0.139645288050     1.007825032230

  Basis Set: AUG-CC-PVTZ
    Blend: AUG-CC-PVTZ
  Basis Set: (AUG-CC-PVTZ AUX)
    Blend: AUG-CC-PVTZ-JKFIT
	 Reference Energy          =    -431.8027317981566284 [Eh]
	 Singles Energy            =      -0.0000000000000000 [Eh]
	 Same-Spin Energy          =      -0.4504170001967153 [Eh]
	 Opposite-Spin Energy      =      -1.3718520920254687 [Eh]
	 Correlation Energy        =      -1.8222690922221840 [Eh]
	 Total Energy              =    -433.6250008903788284 [Eh]

	 ================> DF-SCS-MP2 Energies <==================
	-----------------------------------------------------------
	 SCS Same-Spin Scale       =       0.3333333333333333 [-]
	 SCS Opposite-Spin Scale   =       1.2000000000000000 [-]
	 SCS Same-Spin Energy      =      -0.1501390000655717 [Eh]
	 SCS Opposite-Spin Energy  =      -1.6462225104305623 [Eh]
	 SCS Correlation Energy    =      -1.7963615104961341 [Eh]
	 SCS Total Energy          =    -433.5990933086527548 [Eh]
	-----------------------------------------------------------

  Dipole Moment: [D]
     X:     2.0049      Y:     5.5850      Z:     0.7636     Total:     5.9829

*** Psi4 exiting successfully. Buy a developer a beer!
