                               Psi4 1.3.2 release

  ==> Input File <==

--------------------------------------------------------------------------
#psi4
#
memory 32 gb

molecule  {
0 1
  O       -1.4243350     1.8531120    -0.0084660
  N       -1.1176450    -0.4263010     0.0065070
  N        0.7429240     1.0712790     0.0095610
  N        2.8919430     0.2615640    -0.0759850
  C       -0.2733660    -1.4960510    -0.0007800
  C        1.0765330    -1.3300920    -0.0040440
  C       -0.6981513     0.9875361     0.0135719
  C       -2.5617390    -0.6507120     0.0005160
  C        1.5376510     0.0247200    -0.0002060
  H       -0.7522370    -2.4720050    -0.0099570
  H        1.7553550    -2.1750520    -0.0313920
  H       -2.8635010    -1.2105310     0.8892080
  H       -2.8583950    -1.1972750    -0.8980640
  H       -3.0263160     0.3321150     0.0069490
  H        3.5027140    -0.4263080     0.3467730
  H        3.1453740     1.2255370     0.1175850
units angstrom
no_reorient  #important for SAPT in psi4, default
symmetry c1  #important for SAPT in psi4, default
}

set PROPERTIES_ORIGIN ["COM"]
properties('MP2/aug-cc-pvtz', properties = ['dipole'])
--------------------------------------------------------------------------

    Molecular point group: c1
  Charge       = 0
  Multiplicity = 1
  Basis Set: AUG-CC-PVTZ
    Blend: AUG-CC-PVTZ
  Basis Set: (AUG-CC-PVTZ AUX)
    Blend: AUG-CC-PVTZ-JKFIT

    Orbital Energies [Eh]
    ---------------------

    Doubly Occupied:

       1A    -20.532607     2A    -15.613099     3A    -15.583511
       4A    -15.534206     5A    -11.374946     6A    -11.339981
       7A    -11.319734     8A    -11.266679     9A    -11.236029
      10A     -1.450738    11A     -1.296821    12A     -1.256627
      13A     -1.152343    14A     -1.064148    15A     -0.954746
      16A     -0.885869    17A     -0.842335    18A     -0.752164
      19A     -0.719780    20A     -0.681526    21A     -0.670040
      22A     -0.654154    23A     -0.650396    24A     -0.597654
      25A     -0.588829    26A     -0.584971    27A     -0.559614
      28A     -0.541125    29A     -0.480176    30A     -0.469024
      31A     -0.400190    32A     -0.380138    33A     -0.333754

  @DF-RHF Final Energy:  -431.78699830177243

   => Energetics <=

    Nuclear Repulsion Energy =            440.5743230329357516
    One-Electron Energy =               -1461.1867387261127078
    Two-Electron Energy =                 588.8254173914044713
    Total Energy =                       -431.7869983017724280
  Basis Set: (AUG-CC-PVTZ AUX)
    Blend: AUG-CC-PVTZ-RI
    Molecular point group: c1

    Geometry (in Angstrom), charge = 0, multiplicity = 1:

       Center              X                  Y                   Z               Mass
    ------------   -----------------  -----------------  -----------------  -----------------
         O           -1.426991920044     1.798820104232    -0.004936917674    15.994914619570
         N           -1.120301920044    -0.480592895768     0.010036082326    14.003074004430
         N            0.740267079956     1.016987104232     0.013090082326    14.003074004430
         N            2.889286079956     0.207272104232    -0.072455917674    14.003074004430
         C           -0.276022920044    -1.550342895768     0.002749082326    12.000000000000
         C            1.073876079956    -1.384383895768    -0.000514917674    12.000000000000
         C           -0.700808220044     0.933244204232     0.017100982326    12.000000000000
         C           -2.564395920044    -0.705003895768     0.004045082326    12.000000000000
         C            1.534994079956    -0.029571895768     0.003323082326    12.000000000000
         H           -0.754893920044    -2.526296895768    -0.006427917674     1.007825032230
         H            1.752698079956    -2.229343895768    -0.027862917674     1.007825032230
         H           -2.866157920044    -1.264822895768     0.892737082326     1.007825032230
         H           -2.861051920044    -1.251566895768    -0.894534917674     1.007825032230
         H           -3.028972920044     0.277823104232     0.010478082326     1.007825032230
         H            3.500057079956    -0.480599895768     0.350302082326     1.007825032230
         H            3.142717079956     1.171245104232     0.121114082326     1.007825032230

  Basis Set: AUG-CC-PVTZ
    Blend: AUG-CC-PVTZ
  Basis Set: (AUG-CC-PVTZ AUX)
    Blend: AUG-CC-PVTZ-JKFIT
	 Reference Energy          =    -431.7869983017724280 [Eh]
	 Singles Energy            =      -0.0000000000000000 [Eh]
	 Same-Spin Energy          =      -0.4489020501214923 [Eh]
	 Opposite-Spin Energy      =      -1.3700230843699328 [Eh]
	 Correlation Energy        =      -1.8189251344914252 [Eh]
	 Total Energy              =    -433.6059234362638790 [Eh]

	 ================> DF-SCS-MP2 Energies <==================
	-----------------------------------------------------------
	 SCS Same-Spin Scale       =       0.3333333333333333 [-]
	 SCS Opposite-Spin Scale   =       1.2000000000000000 [-]
	 SCS Same-Spin Energy      =      -0.1496340167071641 [Eh]
	 SCS Opposite-Spin Energy  =      -1.6440277012439193 [Eh]
	 SCS Correlation Energy    =      -1.7936617179510834 [Eh]
	 SCS Total Energy          =    -433.5806600197234957 [Eh]
	-----------------------------------------------------------

  Dipole Moment: [D]
     X:     0.9748      Y:    -4.7325      Z:     0.8295     Total:     4.9026

*** Psi4 exiting successfully. Buy a developer a beer!
