                               Psi4 1.4a3.dev225

  ==> Input File <==

--------------------------------------------------------------------------
#psi4
#
memory 32 gb

molecule  {
0 1
  O       -1.4602810    -1.8042760    -0.0008590
  N       -1.1067000     0.4494610     0.0014260
  N        0.7338450    -1.0777760     0.0056990
  N        2.8872480    -0.2944040    -0.0665390
  C       -0.2576190     1.5082170    -0.0002850
  C        1.0914800     1.3228940    -0.0047970
  C       -0.6316600    -0.8954310    -0.0014820
  C       -2.5563510     0.6193970     0.0049040
  C        1.5404980    -0.0347530    -0.0000590
  H       -0.7147670     2.4940890    -0.0022110
  H        1.7746080     2.1637920    -0.0246520
  H       -2.7835150     1.6863950     0.0041520
  H       -2.9802500     0.1433220     0.8903410
  H       -2.9840040     0.1411790    -0.8774920
  H        3.5081705     0.3862799     0.2994466
  H        3.1306380    -1.2574880     0.1361150
units angstrom
no_reorient  #important for SAPT in psi4, default
symmetry c1  #important for SAPT in psi4, default
}

set PROPERTIES_ORIGIN ["COM"]
properties('MP2/aug-cc-pvtz', properties = ['dipole'])
--------------------------------------------------------------------------

    Molecular point group: c1
  Charge       = 0
  Multiplicity = 1
  Basis Set: AUG-CC-PVTZ
    Blend: AUG-CC-PVTZ
  Basis Set: (AUG-CC-PVTZ AUX)
    Blend: AUG-CC-PVTZ-JKFIT

    Orbital Energies [Eh]
    ---------------------

    Doubly Occupied:

       1A    -20.503019     2A    -15.626275     3A    -15.589660
       4A    -15.542552     5A    -11.369254     6A    -11.349589
       7A    -11.328329     8A    -11.273628     9A    -11.243519
      10A     -1.383223    11A     -1.295952    12A     -1.268759
      13A     -1.173296    14A     -1.072669    15A     -0.965521
      16A     -0.898834    17A     -0.856670    18A     -0.760456
      19A     -0.725237    20A     -0.687681    21A     -0.676442
      22A     -0.655359    23A     -0.622616    24A     -0.602135
      25A     -0.590376    26A     -0.576568    27A     -0.566285
      28A     -0.517225    29A     -0.480341    30A     -0.442680
      31A     -0.418459    32A     -0.385340    33A     -0.337609

  @DF-RHF Final Energy:  -431.80364154267465

   => Energetics <=

    Nuclear Repulsion Energy =            441.6936492866194612
    One-Electron Energy =               -1463.4234633183364167
    Two-Electron Energy =                 589.9261724890423011
    Total Energy =                       -431.8036415426746544
  Basis Set: (AUG-CC-PVTZ AUX)
    Blend: AUG-CC-PVTZ-RI
    Molecular point group: c1

    Geometry (in Angstrom), charge = 0, multiplicity = 1:

       Center              X                  Y                   Z               Mass
    ------------   -----------------  -----------------  -----------------  -----------------
         O           -1.468525182125    -1.758428544069     0.002637876400    15.994914619570
         N           -1.114944182125     0.495308455931     0.004922876400    14.003074004430
         N            0.725600817875    -1.031928544069     0.009195876400    14.003074004430
         N            2.879003817875    -0.248556544069    -0.063042123600    14.003074004430
         C           -0.265863182125     1.554064455931     0.003211876400    12.000000000000
         C            1.083235817875     1.368741455931    -0.001300123600    12.000000000000
         C           -0.639904182125    -0.849583544069     0.002014876400    12.000000000000
         C           -2.564595182125     0.665244455931     0.008400876400    12.000000000000
         C            1.532253817875     0.011094455931     0.003437876400    12.000000000000
         H           -0.723011182125     2.539936455931     0.001285876400     1.007825032230
         H            1.766363817875     2.209639455931    -0.021155123600     1.007825032230
         H           -2.791759182125     1.732242455931     0.007648876400     1.007825032230
         H           -2.988494182125     0.189169455931     0.893837876400     1.007825032230
         H           -2.992248182125     0.187026455931    -0.873995123600     1.007825032230
         H            3.499926317875     0.432127355931     0.302943476400     1.007825032230
         H            3.122393817875    -1.211640544069     0.139611876400     1.007825032230

  Basis Set: AUG-CC-PVTZ
    Blend: AUG-CC-PVTZ
  Basis Set: (AUG-CC-PVTZ AUX)
    Blend: AUG-CC-PVTZ-JKFIT
	 Reference Energy          =    -431.8036415426746544 [Eh]
	 Singles Energy            =      -0.0000000000000000 [Eh]
	 Same-Spin Energy          =      -0.4502958281317330 [Eh]
	 Opposite-Spin Energy      =      -1.3715768475261210 [Eh]
	 Correlation Energy        =      -1.8218726756578540 [Eh]
	 Total Energy              =    -433.6255142183325120 [Eh]

	 ================> DF-SCS-MP2 Energies <==================
	-----------------------------------------------------------
	 SCS Same-Spin Scale       =       0.3333333333333333 [-]
	 SCS Opposite-Spin Scale   =       1.2000000000000000 [-]
	 SCS Same-Spin Energy      =      -0.1500986093772443 [Eh]
	 SCS Opposite-Spin Energy  =      -1.6458922170313450 [Eh]
	 SCS Correlation Energy    =      -1.7959908264085893 [Eh]
	 SCS Total Energy          =    -433.5996323690832241 [Eh]
	-----------------------------------------------------------

  Dipole Moment: [D]
     X:     1.7893      Y:     5.5987      Z:     0.7643     Total:     5.9271

*** Psi4 exiting successfully. Buy a developer a beer!
