                               Psi4 1.3.2 release

  ==> Input File <==

--------------------------------------------------------------------------
#psi4
#
memory 32 gb

molecule  {
0 1
  O       -1.4243350     1.8531120    -0.0084660
  N       -1.1176450    -0.4263010     0.0065070
  N        0.7429240     1.0712790     0.0095610
  N        2.8919430     0.2615640    -0.0759850
  C       -0.2733660    -1.4960510    -0.0007800
  C        1.2750379    -1.3056875    -0.0045240
  C       -0.6338910     0.9109410     0.0155220
  C       -2.5617390    -0.6507120     0.0005160
  C        1.5376510     0.0247200    -0.0002060
  H       -0.7522370    -2.4720050    -0.0099570
  H        1.7553550    -2.1750520    -0.0313920
  H       -2.8635010    -1.2105310     0.8892080
  H       -2.8583950    -1.1972750    -0.8980640
  H       -3.0263160     0.3321150     0.0069490
  H        3.5027140    -0.4263080     0.3467730
  H        3.1453740     1.2255370     0.1175850
units angstrom
no_reorient  #important for SAPT in psi4, default
symmetry c1  #important for SAPT in psi4, default
}

set PROPERTIES_ORIGIN ["COM"]
properties('MP2/aug-cc-pvtz', properties = ['dipole'])
--------------------------------------------------------------------------

    Molecular point group: c1
  Charge       = 0
  Multiplicity = 1
  Basis Set: AUG-CC-PVTZ
    Blend: AUG-CC-PVTZ
  Basis Set: (AUG-CC-PVTZ AUX)
    Blend: AUG-CC-PVTZ-JKFIT

    Orbital Energies [Eh]
    ---------------------

    Doubly Occupied:

       1A    -20.506555     2A    -15.648685     3A    -15.573412
       4A    -15.537737     5A    -11.374955     6A    -11.361379
       7A    -11.334326     8A    -11.280140     9A    -11.246010
      10A     -1.387016    11A     -1.297523    12A     -1.269450
      13A     -1.164252    14A     -1.052128    15A     -0.977192
      16A     -0.916805    17A     -0.846585    18A     -0.755512
      19A     -0.720860    20A     -0.699789    21A     -0.674260
      22A     -0.661555    23A     -0.642332    24A     -0.603026
      25A     -0.582273    26A     -0.580654    27A     -0.540636
      28A     -0.522359    29A     -0.469872    30A     -0.443613
      31A     -0.422281    32A     -0.383822    33A     -0.325923

  @DF-RHF Final Energy:  -431.74848377338111

   => Energetics <=

    Nuclear Repulsion Energy =            439.3657627038493843
    One-Electron Energy =               -1458.6226569654711511
    Two-Electron Energy =                 587.5084104882406564
    Total Energy =                       -431.7484837733810537
  Basis Set: (AUG-CC-PVTZ AUX)
    Blend: AUG-CC-PVTZ-RI
    Molecular point group: c1

    Geometry (in Angstrom), charge = 0, multiplicity = 1:

       Center              X                  Y                   Z               Mass
    ------------   -----------------  -----------------  -----------------  -----------------
         O           -1.452205496215     1.803828041616    -0.005077980792    15.994914619570
         N           -1.145515496215    -0.475584958384     0.009895019208    14.003074004430
         N            0.715053503785     1.021995041616     0.012949019208    14.003074004430
         N            2.864072503785     0.212280041616    -0.072596980792    14.003074004430
         C           -0.301236496215    -1.545334958384     0.002608019208    12.000000000000
         C            1.247167403785    -1.354971458384    -0.001135980792    12.000000000000
         C           -0.661761496215     0.861657041616     0.018910019208    12.000000000000
         C           -2.589609496215    -0.699995958384     0.003904019208    12.000000000000
         C            1.509780503785    -0.024563958384     0.003182019208    12.000000000000
         H           -0.780107496215    -2.521288958384    -0.006568980792     1.007825032230
         H            1.727484503785    -2.224335958384    -0.028003980792     1.007825032230
         H           -2.891371496215    -1.259814958384     0.892596019208     1.007825032230
         H           -2.886265496215    -1.246558958384    -0.894675980792     1.007825032230
         H           -3.054186496215     0.282831041616     0.010337019208     1.007825032230
         H            3.474843503785    -0.475591958384     0.350161019208     1.007825032230
         H            3.117503503785     1.176253041616     0.120973019208     1.007825032230

  Basis Set: AUG-CC-PVTZ
    Blend: AUG-CC-PVTZ
  Basis Set: (AUG-CC-PVTZ AUX)
    Blend: AUG-CC-PVTZ-JKFIT
	 Reference Energy          =    -431.7484837733811105 [Eh]
	 Singles Energy            =      -0.0000000000000000 [Eh]
	 Same-Spin Energy          =      -0.4530793023161236 [Eh]
	 Opposite-Spin Energy      =      -1.3765723822695652 [Eh]
	 Correlation Energy        =      -1.8296516845856889 [Eh]
	 Total Energy              =    -433.5781354579668232 [Eh]

	 ================> DF-SCS-MP2 Energies <==================
	-----------------------------------------------------------
	 SCS Same-Spin Scale       =       0.3333333333333333 [-]
	 SCS Opposite-Spin Scale   =       1.2000000000000000 [-]
	 SCS Same-Spin Energy      =      -0.1510264341053745 [Eh]
	 SCS Opposite-Spin Energy  =      -1.6518868587234783 [Eh]
	 SCS Correlation Energy    =      -1.8029132928288529 [Eh]
	 SCS Total Energy          =    -433.5513970662099723 [Eh]
	-----------------------------------------------------------

  Dipole Moment: [D]
     X:     1.0146      Y:    -5.8256      Z:     0.8253     Total:     5.9706

*** Psi4 exiting successfully. Buy a developer a beer!
