                               Psi4 1.3.2 release

  ==> Input File <==

--------------------------------------------------------------------------
#psi4
#
memory 32 gb

molecule  {
0 1
  O       -1.4243350     1.8531120    -0.0084660
  N       -1.1176450    -0.4263010     0.0065070
  N        0.7429240     1.0712790     0.0095610
  N        2.8919430     0.2615640    -0.0759850
  C       -0.2733660    -1.4960510    -0.0007800
  C        1.0765330    -1.3300920    -0.0040440
  C       -0.6338910     0.9109410     0.0155220
  C       -2.5617390    -0.6507120     0.0005160
  C        1.5981259    -0.0549181    -0.0009492
  H       -0.7522370    -2.4720050    -0.0099570
  H        1.7553550    -2.1750520    -0.0313920
  H       -2.8635010    -1.2105310     0.8892080
  H       -2.8583950    -1.1972750    -0.8980640
  H       -3.0263160     0.3321150     0.0069490
  H        3.5027140    -0.4263080     0.3467730
  H        3.1453740     1.2255370     0.1175850
units angstrom
no_reorient  #important for SAPT in psi4, default
symmetry c1  #important for SAPT in psi4, default
}

set PROPERTIES_ORIGIN ["COM"]
properties('MP2/aug-cc-pvtz', properties = ['dipole'])
--------------------------------------------------------------------------

    Molecular point group: c1
  Charge       = 0
  Multiplicity = 1
  Basis Set: AUG-CC-PVTZ
    Blend: AUG-CC-PVTZ
  Basis Set: (AUG-CC-PVTZ AUX)
    Blend: AUG-CC-PVTZ-JKFIT

    Orbital Energies [Eh]
    ---------------------

    Doubly Occupied:

       1A    -20.492784     2A    -15.627717     3A    -15.601430
       4A    -15.536710     5A    -11.361682     6A    -11.351657
       7A    -11.335766     8A    -11.269940     9A    -11.244236
      10A     -1.373776    11A     -1.294880    12A     -1.273534
      13A     -1.150656    14A     -1.078623    15A     -0.967621
      16A     -0.905188    17A     -0.847396    18A     -0.762273
      19A     -0.733037    20A     -0.690180    21A     -0.669511
      22A     -0.653155    23A     -0.628720    24A     -0.605021
      25A     -0.584298    26A     -0.573489    27A     -0.557634
      28A     -0.526620    29A     -0.474758    30A     -0.427281
      31A     -0.411345    32A     -0.376277    33A     -0.336373

  @DF-RHF Final Energy:  -431.78467953405010

   => Energetics <=

    Nuclear Repulsion Energy =            440.1886915458730414
    One-Electron Energy =               -1460.4996038780902836
    Two-Electron Energy =                 588.5262327981671433
    Total Energy =                       -431.7846795340500421
  Basis Set: (AUG-CC-PVTZ AUX)
    Blend: AUG-CC-PVTZ-RI
    Molecular point group: c1

    Geometry (in Angstrom), charge = 0, multiplicity = 1:

       Center              X                  Y                   Z               Mass
    ------------   -----------------  -----------------  -----------------  -----------------
         O           -1.438960858345     1.813811426099    -0.005052725494    15.994914619570
         N           -1.132270858345    -0.465601573901     0.009920274506    14.003074004430
         N            0.728298141655     1.031978426099     0.012974274506    14.003074004430
         N            2.877317141655     0.222263426099    -0.072571725494    14.003074004430
         C           -0.287991858345    -1.535351573901     0.002633274506    12.000000000000
         C            1.061907141655    -1.369392573901    -0.000630725494    12.000000000000
         C           -0.648516858345     0.871640426099     0.018935274506    12.000000000000
         C           -2.576364858345    -0.690012573901     0.003929274506    12.000000000000
         C            1.583500041655    -0.094218673901     0.002464074506    12.000000000000
         H           -0.766862858345    -2.511305573901    -0.006543725494     1.007825032230
         H            1.740729141655    -2.214352573901    -0.027978725494     1.007825032230
         H           -2.878126858345    -1.249831573901     0.892621274506     1.007825032230
         H           -2.873020858345    -1.236575573901    -0.894650725494     1.007825032230
         H           -3.040941858345     0.292814426099     0.010362274506     1.007825032230
         H            3.488088141655    -0.465608573901     0.350186274506     1.007825032230
         H            3.130748141655     1.186236426099     0.120998274506     1.007825032230

  Basis Set: AUG-CC-PVTZ
    Blend: AUG-CC-PVTZ
  Basis Set: (AUG-CC-PVTZ AUX)
    Blend: AUG-CC-PVTZ-JKFIT
	 Reference Energy          =    -431.7846795340500989 [Eh]
	 Singles Energy            =      -0.0000000000000000 [Eh]
	 Same-Spin Energy          =      -0.4523192018828509 [Eh]
	 Opposite-Spin Energy      =      -1.3745880157111459 [Eh]
	 Correlation Energy        =      -1.8269072175939969 [Eh]
	 Total Energy              =    -433.6115867516440971 [Eh]

	 ================> DF-SCS-MP2 Energies <==================
	-----------------------------------------------------------
	 SCS Same-Spin Scale       =       0.3333333333333333 [-]
	 SCS Opposite-Spin Scale   =       1.2000000000000000 [-]
	 SCS Same-Spin Energy      =      -0.1507730672942836 [Eh]
	 SCS Opposite-Spin Energy  =      -1.6495056188533750 [Eh]
	 SCS Correlation Energy    =      -1.8002786861476587 [Eh]
	 SCS Total Energy          =    -433.5849582201977341 [Eh]
	-----------------------------------------------------------

  Dipole Moment: [D]
     X:     2.1172      Y:    -5.9763      Z:     0.8094     Total:     6.3917

*** Psi4 exiting successfully. Buy a developer a beer!
