                               Psi4 1.3.2 release

  ==> Input File <==

--------------------------------------------------------------------------
#psi4
#
memory 32 gb

molecule  {
0 1
  O       -1.4243350     1.8531120    -0.0084660
  N       -1.1082775    -0.4189745     0.0065876
  N        0.7429240     1.0712790     0.0095610
  N        2.8919430     0.2615640    -0.0759850
  C       -0.2733660    -1.4960510    -0.0007800
  C        1.0765330    -1.3300920    -0.0040440
  C       -0.6338910     0.9109410     0.0155220
  C       -2.5617390    -0.6507120     0.0005160
  C        1.5376510     0.0247200    -0.0002060
  H       -0.7437017    -2.4761467    -0.0099746
  H        1.7553550    -2.1750520    -0.0313920
  H       -2.8635010    -1.2105310     0.8892080
  H       -2.8583950    -1.1972750    -0.8980640
  H       -3.0263160     0.3321150     0.0069490
  H        3.5027140    -0.4263080     0.3467730
  H        3.1453740     1.2255370     0.1175850
units angstrom
no_reorient  #important for SAPT in psi4, default
symmetry c1  #important for SAPT in psi4, default
}

set PROPERTIES_ORIGIN ["COM"]
properties('MP2/aug-cc-pvtz', properties = ['dipole'])
--------------------------------------------------------------------------

    Molecular point group: c1
  Charge       = 0
  Multiplicity = 1
  Basis Set: AUG-CC-PVTZ
    Blend: AUG-CC-PVTZ
  Basis Set: (AUG-CC-PVTZ AUX)
    Blend: AUG-CC-PVTZ-JKFIT

    Orbital Energies [Eh]
    ---------------------

    Doubly Occupied:

       1A    -20.502460     2A    -15.625694     3A    -15.591197
       4A    -15.543058     5A    -11.371125     6A    -11.348811
       7A    -11.327207     8A    -11.271478     9A    -11.246065
      10A     -1.382917    11A     -1.295844    12A     -1.266755
      13A     -1.170028    14A     -1.072628    15A     -0.965296
      16A     -0.900851    17A     -0.853513    18A     -0.759223
      19A     -0.724328    20A     -0.684738    21A     -0.674279
      22A     -0.655318    23A     -0.621645    24A     -0.601650
      25A     -0.591393    26A     -0.579779    27A     -0.558795
      28A     -0.522253    29A     -0.476204    30A     -0.440319
      31A     -0.419438    32A     -0.387523    33A     -0.339296

  @DF-RHF Final Energy:  -431.80098536440835

   => Energetics <=

    Nuclear Repulsion Energy =            441.0520464479326392
    One-Electron Energy =               -1462.1638420077449609
    Two-Electron Energy =                 589.3108101954039739
    Total Energy =                       -431.8009853644083478
  Basis Set: (AUG-CC-PVTZ AUX)
    Blend: AUG-CC-PVTZ-RI
    Molecular point group: c1

    Geometry (in Angstrom), charge = 0, multiplicity = 1:

       Center              X                  Y                   Z               Mass
    ------------   -----------------  -----------------  -----------------  -----------------
         O           -1.434275683122     1.805382785571    -0.005132922178    15.994914619570
         N           -1.118218183122    -0.466703714429     0.009920677822    14.003074004430
         N            0.732983316878     1.023549785571     0.012894077822    14.003074004430
         N            2.882002316878     0.213834785571    -0.072651922178    14.003074004430
         C           -0.283306683122    -1.543780214429     0.002553077822    12.000000000000
         C            1.066592316878    -1.377821214429    -0.000710922178    12.000000000000
         C           -0.643831683122     0.863211785571     0.018855077822    12.000000000000
         C           -2.571679683122    -0.698441214429     0.003849077822    12.000000000000
         C            1.527710316878    -0.023009214429     0.003127077822    12.000000000000
         H           -0.753642383122    -2.523875914429    -0.006641522178     1.007825032230
         H            1.745414316878    -2.222781214429    -0.028058922178     1.007825032230
         H           -2.873441683122    -1.258260214429     0.892541077822     1.007825032230
         H           -2.868335683122    -1.245004214429    -0.894730922178     1.007825032230
         H           -3.036256683122     0.284385785571     0.010282077822     1.007825032230
         H            3.492773316878    -0.474037214429     0.350106077822     1.007825032230
         H            3.135433316878     1.177807785571     0.120918077822     1.007825032230

  Basis Set: AUG-CC-PVTZ
    Blend: AUG-CC-PVTZ
  Basis Set: (AUG-CC-PVTZ AUX)
    Blend: AUG-CC-PVTZ-JKFIT
	 Reference Energy          =    -431.8009853644083478 [Eh]
	 Singles Energy            =      -0.0000000000000000 [Eh]
	 Same-Spin Energy          =      -0.4503354385811563 [Eh]
	 Opposite-Spin Energy      =      -1.3720918316942488 [Eh]
	 Correlation Energy        =      -1.8224272702754050 [Eh]
	 Total Energy              =    -433.6234126346837456 [Eh]

	 ================> DF-SCS-MP2 Energies <==================
	-----------------------------------------------------------
	 SCS Same-Spin Scale       =       0.3333333333333333 [-]
	 SCS Opposite-Spin Scale   =       1.2000000000000000 [-]
	 SCS Same-Spin Energy      =      -0.1501118128603854 [Eh]
	 SCS Opposite-Spin Energy  =      -1.6465101980330985 [Eh]
	 SCS Correlation Energy    =      -1.7966220108934841 [Eh]
	 SCS Total Energy          =    -433.5976073753018341 [Eh]
	-----------------------------------------------------------

  Dipole Moment: [D]
     X:     1.6900      Y:    -5.6801      Z:     0.8327     Total:     5.9844

*** Psi4 exiting successfully. Buy a developer a beer!
