                               Psi4 1.4a3.dev225

  ==> Input File <==

--------------------------------------------------------------------------
#psi4
#
memory 32 gb

molecule  {
0 1
  O       -1.4602810    -1.8042760    -0.0008590
  N       -1.1067000     0.4494610     0.0014260
  N        0.7338450    -1.0777760     0.0056990
  N        2.8872480    -0.2944040    -0.0665390
  C       -0.2576190     1.5082170    -0.0002850
  C        1.0914800     1.3228940    -0.0047970
  C       -0.6514838    -0.8927838    -0.0015863
  C       -2.5563510     0.6193970     0.0049040
  C        1.5404980    -0.0347530    -0.0000590
  H       -0.7147670     2.4940890    -0.0022110
  H        1.7746080     2.1637920    -0.0246520
  H       -2.7835150     1.6863950     0.0041520
  H       -2.9802500     0.1433220     0.8903410
  H       -2.9840040     0.1411790    -0.8774920
  H        3.5206970     0.4000120     0.3068300
  H        3.1306380    -1.2574880     0.1361150
units angstrom
no_reorient  #important for SAPT in psi4, default
symmetry c1  #important for SAPT in psi4, default
}

set PROPERTIES_ORIGIN ["COM"]
properties('MP2/aug-cc-pvtz', properties = ['dipole'])
--------------------------------------------------------------------------

    Molecular point group: c1
  Charge       = 0
  Multiplicity = 1
  Basis Set: AUG-CC-PVTZ
    Blend: AUG-CC-PVTZ
  Basis Set: (AUG-CC-PVTZ AUX)
    Blend: AUG-CC-PVTZ-JKFIT

    Orbital Energies [Eh]
    ---------------------

    Doubly Occupied:

       1A    -20.506229     2A    -15.626218     3A    -15.589770
       4A    -15.541459     5A    -11.369292     6A    -11.346851
       7A    -11.327743     8A    -11.274059     9A    -11.243250
      10A     -1.388970    11A     -1.297702    12A     -1.267594
      13A     -1.166436    14A     -1.072276    15A     -0.965422
      16A     -0.900524    17A     -0.851317    18A     -0.758486
      19A     -0.724015    20A     -0.685763    21A     -0.673337
      22A     -0.656692    23A     -0.624689    24A     -0.602212
      25A     -0.589714    26A     -0.575285    27A     -0.567622
      28A     -0.519146    29A     -0.481378    30A     -0.445197
      31A     -0.416792    32A     -0.383618    33A     -0.337634

  @DF-RHF Final Energy:  -431.80329515852611

   => Energetics <=

    Nuclear Repulsion Energy =            441.5890731284203525
    One-Electron Energy =               -1463.2313512829784941
    Two-Electron Energy =                 589.8389829960320867
    Total Energy =                       -431.8032951585261117
  Basis Set: (AUG-CC-PVTZ AUX)
    Blend: AUG-CC-PVTZ-RI
    Molecular point group: c1

    Geometry (in Angstrom), charge = 0, multiplicity = 1:

       Center              X                  Y                   Z               Mass
    ------------   -----------------  -----------------  -----------------  -----------------
         O           -1.466723942402    -1.758793219832     0.002588383123    15.994914619570
         N           -1.113142942402     0.494943780168     0.004873383123    14.003074004430
         N            0.727402057598    -1.032293219832     0.009146383123    14.003074004430
         N            2.880805057598    -0.248921219832    -0.063091616877    14.003074004430
         C           -0.264061942402     1.553699780168     0.003162383123    12.000000000000
         C            1.085037057598     1.368376780168    -0.001349616877    12.000000000000
         C           -0.657926742402    -0.847301019832     0.001861083123    12.000000000000
         C           -2.562793942402     0.664879780168     0.008351383123    12.000000000000
         C            1.534055057598     0.010729780168     0.003388383123    12.000000000000
         H           -0.721209942402     2.539571780168     0.001236383123     1.007825032230
         H            1.768165057598     2.209274780168    -0.021204616877     1.007825032230
         H           -2.789957942402     1.731877780168     0.007599383123     1.007825032230
         H           -2.986692942402     0.188804780168     0.893788383123     1.007825032230
         H           -2.990446942402     0.186661780168    -0.874044616877     1.007825032230
         H            3.514254057598     0.445494780168     0.310277383123     1.007825032230
         H            3.124195057598    -1.212005219832     0.139562383123     1.007825032230

  Basis Set: AUG-CC-PVTZ
    Blend: AUG-CC-PVTZ
  Basis Set: (AUG-CC-PVTZ AUX)
    Blend: AUG-CC-PVTZ-JKFIT
	 Reference Energy          =    -431.8032951585261117 [Eh]
	 Singles Energy            =      -0.0000000000000000 [Eh]
	 Same-Spin Energy          =      -0.4501867101642089 [Eh]
	 Opposite-Spin Energy      =      -1.3717625655560599 [Eh]
	 Correlation Energy        =      -1.8219492757202689 [Eh]
	 Total Energy              =    -433.6252444342463832 [Eh]

	 ================> DF-SCS-MP2 Energies <==================
	-----------------------------------------------------------
	 SCS Same-Spin Scale       =       0.3333333333333333 [-]
	 SCS Opposite-Spin Scale   =       1.2000000000000000 [-]
	 SCS Same-Spin Energy      =      -0.1500622367214030 [Eh]
	 SCS Opposite-Spin Energy  =      -1.6461150786672718 [Eh]
	 SCS Correlation Energy    =      -1.7961773153886746 [Eh]
	 SCS Total Energy          =    -433.5994724739147728 [Eh]
	-----------------------------------------------------------

  Dipole Moment: [D]
     X:     1.6636      Y:     5.5644      Z:     0.7696     Total:     5.8585

*** Psi4 exiting successfully. Buy a developer a beer!
