                               Psi4 1.3.2 release

  ==> Input File <==

--------------------------------------------------------------------------
#psi4
#
memory 32 gb

molecule  {
0 1
  O       -1.4243350     1.8531120    -0.0084660
  N       -1.1176450    -0.4263010     0.0065070
  N        0.7429240     1.0712790     0.0095610
  N        2.8829307     0.3087446    -0.0743465
  C       -0.2733660    -1.4960510    -0.0007800
  C        1.0296262    -1.3132152    -0.0008359
  C       -0.6338910     0.9109410     0.0155220
  C       -2.5617390    -0.6507120     0.0005160
  C        1.5376510     0.0247200    -0.0002060
  H       -0.7522370    -2.4720050    -0.0099570
  H        1.7553550    -2.1750520    -0.0313920
  H       -2.8635010    -1.2105310     0.8892080
  H       -2.8583950    -1.1972750    -0.8980640
  H       -3.0263160     0.3321150     0.0069490
  H        3.5027140    -0.4263080     0.3467730
  H        3.1453740     1.2255370     0.1175850
units angstrom
no_reorient  #important for SAPT in psi4, default
symmetry c1  #important for SAPT in psi4, default
}

set PROPERTIES_ORIGIN ["COM"]
properties('MP2/aug-cc-pvtz', properties = ['dipole'])
--------------------------------------------------------------------------

    Molecular point group: c1
  Charge       = 0
  Multiplicity = 1
  Basis Set: AUG-CC-PVTZ
    Blend: AUG-CC-PVTZ
  Basis Set: (AUG-CC-PVTZ AUX)
    Blend: AUG-CC-PVTZ-JKFIT

    Orbital Energies [Eh]
    ---------------------

    Doubly Occupied:

       1A    -20.501985     2A    -15.621020     3A    -15.593755
       4A    -15.542553     5A    -11.370368     6A    -11.350473
       7A    -11.319857     8A    -11.268595     9A    -11.247238
      10A     -1.381462    11A     -1.297252    12A     -1.268018
      13A     -1.170173    14A     -1.081043    15A     -0.963744
      16A     -0.898547    17A     -0.854215    18A     -0.764151
      19A     -0.726508    20A     -0.681747    21A     -0.669872
      22A     -0.654715    23A     -0.622950    24A     -0.608425
      25A     -0.585829    26A     -0.578810    27A     -0.557108
      28A     -0.521539    29A     -0.479848    30A     -0.439151
      31A     -0.418078    32A     -0.387307    33A     -0.342444

  @DF-RHF Final Energy:  -431.79511595344218

   => Energetics <=

    Nuclear Repulsion Energy =            441.8173005354576048
    One-Electron Energy =               -1463.6872702345876860
    Two-Electron Energy =                 590.0748537456878466
    Total Energy =                       -431.7951159534421777
  Basis Set: (AUG-CC-PVTZ AUX)
    Blend: AUG-CC-PVTZ-RI
    Molecular point group: c1

    Geometry (in Angstrom), charge = 0, multiplicity = 1:

       Center              X                  Y                   Z               Mass
    ------------   -----------------  -----------------  -----------------  -----------------
         O           -1.427647947631     1.799267462727    -0.005615337432    15.994914619570
         N           -1.120957947631    -0.480145537273     0.009357662568    14.003074004430
         N            0.739611052369     1.017434462727     0.012411662568    14.003074004430
         N            2.879617752369     0.254900062727    -0.071495837432    14.003074004430
         C           -0.276678947631    -1.549895537273     0.002070662568    12.000000000000
         C            1.026313252369    -1.367059737273     0.002014762568    12.000000000000
         C           -0.637203947631     0.857096462727     0.018372662568    12.000000000000
         C           -2.565051947631    -0.704556537273     0.003366662568    12.000000000000
         C            1.534338052369    -0.029124537273     0.002644662568    12.000000000000
         H           -0.755549947631    -2.525849537273    -0.007106337432     1.007825032230
         H            1.752042052369    -2.228896537273    -0.028541337432     1.007825032230
         H           -2.866813947631    -1.264375537273     0.892058662568     1.007825032230
         H           -2.861707947631    -1.251119537273    -0.895213337432     1.007825032230
         H           -3.029628947631     0.278270462727     0.009799662568     1.007825032230
         H            3.499401052369    -0.480152537273     0.349623662568     1.007825032230
         H            3.142061052369     1.171692462727     0.120435662568     1.007825032230

  Basis Set: AUG-CC-PVTZ
    Blend: AUG-CC-PVTZ
  Basis Set: (AUG-CC-PVTZ AUX)
    Blend: AUG-CC-PVTZ-JKFIT
	 Reference Energy          =    -431.7951159534421777 [Eh]
	 Singles Energy            =      -0.0000000000000000 [Eh]
	 Same-Spin Energy          =      -0.4501150143039290 [Eh]
	 Opposite-Spin Energy      =      -1.3717272197136992 [Eh]
	 Correlation Energy        =      -1.8218422340176281 [Eh]
	 Total Energy              =    -433.6169581874598293 [Eh]

	 ================> DF-SCS-MP2 Energies <==================
	-----------------------------------------------------------
	 SCS Same-Spin Scale       =       0.3333333333333333 [-]
	 SCS Opposite-Spin Scale   =       1.2000000000000000 [-]
	 SCS Same-Spin Energy      =      -0.1500383381013096 [Eh]
	 SCS Opposite-Spin Energy  =      -1.6460726636564389 [Eh]
	 SCS Correlation Energy    =      -1.7961110017577486 [Eh]
	 SCS Total Energy          =    -433.5912269551999429 [Eh]
	-----------------------------------------------------------

  Dipole Moment: [D]
     X:     1.8227      Y:    -5.6780      Z:     0.8207     Total:     6.0196

*** Psi4 exiting successfully. Buy a developer a beer!
