                               Psi4 1.3.2 release

  ==> Input File <==

--------------------------------------------------------------------------
#psi4
#
memory 32 gb

molecule  {
0 1
  O       -1.4243350     1.8531120    -0.0084660
  N       -1.1176450    -0.4263010     0.0065070
  N        0.7429240     1.0712790     0.0095610
  N        2.8919430     0.2615640    -0.0759850
  C       -0.2733660    -1.4960510    -0.0007800
  C        1.0765330    -1.3300920    -0.0040440
  C       -0.6338910     0.9109410     0.0155220
  C       -2.5617390    -0.6507120     0.0005160
  C        1.5299984     0.0657053    -0.0241133
  H       -0.7522370    -2.4720050    -0.0099570
  H        1.7553550    -2.1750520    -0.0313920
  H       -2.8635010    -1.2105310     0.8892080
  H       -2.8583950    -1.1972750    -0.8980640
  H       -3.0263160     0.3321150     0.0069490
  H        3.5304866    -0.4068540     0.3368259
  H        3.1453740     1.2255370     0.1175850
units angstrom
no_reorient  #important for SAPT in psi4, default
symmetry c1  #important for SAPT in psi4, default
}

set PROPERTIES_ORIGIN ["COM"]
properties('MP2/aug-cc-pvtz', properties = ['dipole'])
--------------------------------------------------------------------------

    Molecular point group: c1
  Charge       = 0
  Multiplicity = 1
  Basis Set: AUG-CC-PVTZ
    Blend: AUG-CC-PVTZ
  Basis Set: (AUG-CC-PVTZ AUX)
    Blend: AUG-CC-PVTZ-JKFIT

    Orbital Energies [Eh]
    ---------------------

    Doubly Occupied:

       1A    -20.507438     2A    -15.622900     3A    -15.589911
       4A    -15.544464     5A    -11.376221     6A    -11.348908
       7A    -11.322078     8A    -11.269750     9A    -11.246257
      10A     -1.385538    11A     -1.298895    12A     -1.268622
      13A     -1.178440    14A     -1.066899    15A     -0.964171
      16A     -0.894603    17A     -0.858456    18A     -0.757247
      19A     -0.723576    20A     -0.691159    21A     -0.671694
      22A     -0.655595    23A     -0.619190    24A     -0.598180
      25A     -0.594430    26A     -0.582703    27A     -0.558232
      28A     -0.522041    29A     -0.476111    30A     -0.443377
      31A     -0.420616    32A     -0.392136    33A     -0.337698

  @DF-RHF Final Energy:  -431.79993809543743

   => Energetics <=

    Nuclear Repulsion Energy =            441.0480676090938346
    One-Electron Energy =               -1462.1209450033616122
    Two-Electron Energy =                 589.2729392988304653
    Total Energy =                       -431.7999380954373692
  Basis Set: (AUG-CC-PVTZ AUX)
    Blend: AUG-CC-PVTZ-RI
    Molecular point group: c1

    Geometry (in Angstrom), charge = 0, multiplicity = 1:

       Center              X                  Y                   Z               Mass
    ------------   -----------------  -----------------  -----------------  -----------------
         O           -1.432647513164     1.802080258712    -0.002749857733    15.994914619570
         N           -1.125957513164    -0.477332741288     0.012223142267    14.003074004430
         N            0.734611486836     1.020247258712     0.015277142267    14.003074004430
         N            2.883630486836     0.210532258712    -0.070268857733    14.003074004430
         C           -0.281678513164    -1.547082741288     0.004936142267    12.000000000000
         C            1.068220486836    -1.381123741288     0.001672142267    12.000000000000
         C           -0.642203513164     0.859909258712     0.021238142267    12.000000000000
         C           -2.570051513164    -0.701743741288     0.006232142267    12.000000000000
         C            1.521685886836     0.014673558712    -0.018397157733    12.000000000000
         H           -0.760549513164    -2.523036741288    -0.004240857733     1.007825032230
         H            1.747042486836    -2.226083741288    -0.025675857733     1.007825032230
         H           -2.871813513164    -1.261562741288     0.894924142267     1.007825032230
         H           -2.866707513164    -1.248306741288    -0.892347857733     1.007825032230
         H           -3.034628513164     0.281083258712     0.012665142267     1.007825032230
         H            3.522174086836    -0.457885741288     0.342542042267     1.007825032230
         H            3.137061486836     1.174505258712     0.123301142267     1.007825032230

  Basis Set: AUG-CC-PVTZ
    Blend: AUG-CC-PVTZ
  Basis Set: (AUG-CC-PVTZ AUX)
    Blend: AUG-CC-PVTZ-JKFIT
	 Reference Energy          =    -431.7999380954374260 [Eh]
	 Singles Energy            =      -0.0000000000000000 [Eh]
	 Same-Spin Energy          =      -0.4495901263005201 [Eh]
	 Opposite-Spin Energy      =      -1.3713095089265370 [Eh]
	 Correlation Energy        =      -1.8208996352270572 [Eh]
	 Total Energy              =    -433.6208377306645048 [Eh]

	 ================> DF-SCS-MP2 Energies <==================
	-----------------------------------------------------------
	 SCS Same-Spin Scale       =       0.3333333333333333 [-]
	 SCS Opposite-Spin Scale   =       1.2000000000000000 [-]
	 SCS Same-Spin Energy      =      -0.1498633754335067 [Eh]
	 SCS Opposite-Spin Energy  =      -1.6455714107118444 [Eh]
	 SCS Correlation Energy    =      -1.7954347861453512 [Eh]
	 SCS Total Energy          =    -433.5953728815827617 [Eh]
	-----------------------------------------------------------

  Dipole Moment: [D]
     X:     1.7257      Y:    -5.4320      Z:     0.8067     Total:     5.7563

*** Psi4 exiting successfully. Buy a developer a beer!
