                               Psi4 1.3.2 release

  ==> Input File <==

--------------------------------------------------------------------------
#psi4
#
memory 32 gb

molecule  {
0 1
  O       -1.4243350     1.8531120    -0.0084660
  N       -1.1176450    -0.4263010     0.0065070
  N        0.7429240     1.0712790     0.0095610
  N        2.8919430     0.2615640    -0.0759850
  C       -0.2733660    -1.4960510    -0.0007800
  C        1.0792229    -1.3536748    -0.0043200
  C       -0.6338910     0.9109410     0.0155220
  C       -2.5617390    -0.6507120     0.0005160
  C        1.5376510     0.0247200    -0.0002060
  H       -0.7351307    -2.4802126    -0.0101146
  H        1.7553550    -2.1750520    -0.0313920
  H       -2.8635010    -1.2105310     0.8892080
  H       -2.8583950    -1.1972750    -0.8980640
  H       -3.0263160     0.3321150     0.0069490
  H        3.5027140    -0.4263080     0.3467730
  H        3.1453740     1.2255370     0.1175850
units angstrom
no_reorient  #important for SAPT in psi4, default
symmetry c1  #important for SAPT in psi4, default
}

set PROPERTIES_ORIGIN ["COM"]
properties('MP2/aug-cc-pvtz', properties = ['dipole'])
--------------------------------------------------------------------------

    Molecular point group: c1
  Charge       = 0
  Multiplicity = 1
  Basis Set: AUG-CC-PVTZ
    Blend: AUG-CC-PVTZ
  Basis Set: (AUG-CC-PVTZ AUX)
    Blend: AUG-CC-PVTZ-JKFIT

    Orbital Energies [Eh]
    ---------------------

    Doubly Occupied:

       1A    -20.504330     2A    -15.625056     3A    -15.592101
       4A    -15.544302     5A    -11.372810     6A    -11.351326
       7A    -11.326043     8A    -11.270184     9A    -11.246089
      10A     -1.382723    11A     -1.295304    12A     -1.267095
      13A     -1.170885    14A     -1.071957    15A     -0.964407
      16A     -0.896799    17A     -0.854538    18A     -0.758164
      19A     -0.723512    20A     -0.688059    21A     -0.675840
      22A     -0.655110    23A     -0.621789    24A     -0.599260
      25A     -0.593376    26A     -0.579216    27A     -0.559634
      28A     -0.521692    29A     -0.476256    30A     -0.441472
      31A     -0.419663    32A     -0.387642    33A     -0.339436

  @DF-RHF Final Energy:  -431.80070526142271

   => Energetics <=

    Nuclear Repulsion Energy =            440.4827873481788174
    One-Electron Energy =               -1461.0148426001437656
    Two-Electron Energy =                 588.7313499905422987
    Total Energy =                       -431.8007052614226495
  Basis Set: (AUG-CC-PVTZ AUX)
    Blend: AUG-CC-PVTZ-RI
    Molecular point group: c1

    Geometry (in Angstrom), charge = 0, multiplicity = 1:

       Center              X                  Y                   Z               Mass
    ------------   -----------------  -----------------  -----------------  -----------------
         O           -1.433553967843     1.808498795712    -0.005096285499    15.994914619570
         N           -1.126863967843    -0.470914204288     0.009876714501    14.003074004430
         N            0.733705032157     1.026665795712     0.012930714501    14.003074004430
         N            2.882724032157     0.216950795712    -0.072615285499    14.003074004430
         C           -0.282584967843    -1.540664204288     0.002589714501    12.000000000000
         C            1.070003932157    -1.398288004288    -0.000950285499    12.000000000000
         C           -0.643109967843     0.866327795712     0.018891714501    12.000000000000
         C           -2.570957967843    -0.695325204288     0.003885714501    12.000000000000
         C            1.528432032157    -0.019893204288     0.003163714501    12.000000000000
         H           -0.744349667843    -2.524825804288    -0.006744885499     1.007825032230
         H            1.746136032157    -2.219665204288    -0.028022285499     1.007825032230
         H           -2.872719967843    -1.255144204288     0.892577714501     1.007825032230
         H           -2.867613967843    -1.241888204288    -0.894694285499     1.007825032230
         H           -3.035534967843     0.287501795712     0.010318714501     1.007825032230
         H            3.493495032157    -0.470921204288     0.350142714501     1.007825032230
         H            3.136155032157     1.180923795712     0.120954714501     1.007825032230

  Basis Set: AUG-CC-PVTZ
    Blend: AUG-CC-PVTZ
  Basis Set: (AUG-CC-PVTZ AUX)
    Blend: AUG-CC-PVTZ-JKFIT
	 Reference Energy          =    -431.8007052614227064 [Eh]
	 Singles Energy            =      -0.0000000000000000 [Eh]
	 Same-Spin Energy          =      -0.4500411330439960 [Eh]
	 Opposite-Spin Energy      =      -1.3719225120033853 [Eh]
	 Correlation Energy        =      -1.8219636450473813 [Eh]
	 Total Energy              =    -433.6226689064700963 [Eh]

	 ================> DF-SCS-MP2 Energies <==================
	-----------------------------------------------------------
	 SCS Same-Spin Scale       =       0.3333333333333333 [-]
	 SCS Opposite-Spin Scale   =       1.2000000000000000 [-]
	 SCS Same-Spin Energy      =      -0.1500137110146653 [Eh]
	 SCS Opposite-Spin Energy  =      -1.6463070144040624 [Eh]
	 SCS Correlation Energy    =      -1.7963207254187277 [Eh]
	 SCS Total Energy          =    -433.5970259868414587 [Eh]
	-----------------------------------------------------------

  Dipole Moment: [D]
     X:     1.7480      Y:    -5.5879      Z:     0.8306     Total:     5.9135

*** Psi4 exiting successfully. Buy a developer a beer!
