                               Psi4 1.3.2 release

  ==> Input File <==

--------------------------------------------------------------------------
#psi4
#
memory 32 gb

molecule  {
0 1
  O       -1.4243350     1.8531120    -0.0084660
  N       -1.1176450    -0.4263010     0.0065070
  N        0.7338213     1.0643036     0.0095810
  N        2.8919430     0.2615640    -0.0759850
  C       -0.2733660    -1.4960510    -0.0007800
  C        1.0647279    -1.3260168    -0.0039545
  C       -0.6338910     0.9109410     0.0155220
  C       -2.5617390    -0.6507120     0.0005160
  C        1.5376510     0.0247200    -0.0002060
  H       -0.7522370    -2.4720050    -0.0099570
  H        1.7553550    -2.1750520    -0.0313920
  H       -2.8635010    -1.2105310     0.8892080
  H       -2.8583950    -1.1972750    -0.8980640
  H       -3.0263160     0.3321150     0.0069490
  H        3.5027140    -0.4263080     0.3467730
  H        3.1453740     1.2255370     0.1175850
units angstrom
no_reorient  #important for SAPT in psi4, default
symmetry c1  #important for SAPT in psi4, default
}

set PROPERTIES_ORIGIN ["COM"]
properties('MP2/aug-cc-pvtz', properties = ['dipole'])
--------------------------------------------------------------------------

    Molecular point group: c1
  Charge       = 0
  Multiplicity = 1
  Basis Set: AUG-CC-PVTZ
    Blend: AUG-CC-PVTZ
  Basis Set: (AUG-CC-PVTZ AUX)
    Blend: AUG-CC-PVTZ-JKFIT

    Orbital Energies [Eh]
    ---------------------

    Doubly Occupied:

       1A    -20.502182     2A    -15.623700     3A    -15.593261
       4A    -15.542525     5A    -11.370881     6A    -11.350471
       7A    -11.324942     8A    -11.269537     9A    -11.245649
      10A     -1.382401    11A     -1.296235    12A     -1.267233
      13A     -1.172903    14A     -1.074471    15A     -0.964869
      16A     -0.898348    17A     -0.855881    18A     -0.760310
      19A     -0.724478    20A     -0.685635    21A     -0.673980
      22A     -0.655243    23A     -0.620556    24A     -0.603721
      25A     -0.591140    26A     -0.580210    27A     -0.558399
      28A     -0.521939    29A     -0.476858    30A     -0.438858
      31A     -0.419192    32A     -0.388406    33A     -0.339653

  @DF-RHF Final Energy:  -431.80138945380872

   => Energetics <=

    Nuclear Repulsion Energy =            441.3613951757661198
    One-Electron Energy =               -1462.7774283087098866
    Two-Electron Energy =                 589.6146436791350425
    Total Energy =                       -431.8013894538087243
  Basis Set: (AUG-CC-PVTZ AUX)
    Blend: AUG-CC-PVTZ-RI
    Molecular point group: c1

    Geometry (in Angstrom), charge = 0, multiplicity = 1:

       Center              X                  Y                   Z               Mass
    ------------   -----------------  -----------------  -----------------  -----------------
         O           -1.431006001174     1.806559783300    -0.005134866473    15.994914619570
         N           -1.124316001174    -0.472853216700     0.009838133527    14.003074004430
         N            0.727150298826     1.017751383300     0.012912133527    14.003074004430
         N            2.885271998826     0.215011783300    -0.072653866473    14.003074004430
         C           -0.280037001174    -1.542603216700     0.002551133527    12.000000000000
         C            1.058056898826    -1.372569016700    -0.000623366473    12.000000000000
         C           -0.640562001174     0.864388783300     0.018853133527    12.000000000000
         C           -2.568410001174    -0.697264216700     0.003847133527    12.000000000000
         C            1.530979998826    -0.021832216700     0.003125133527    12.000000000000
         H           -0.758908001174    -2.518557216700    -0.006625866473     1.007825032230
         H            1.748683998826    -2.221604216700    -0.028060866473     1.007825032230
         H           -2.870172001174    -1.257083216700     0.892539133527     1.007825032230
         H           -2.865066001174    -1.243827216700    -0.894732866473     1.007825032230
         H           -3.032987001174     0.285562783300     0.010280133527     1.007825032230
         H            3.496042998826    -0.472860216700     0.350104133527     1.007825032230
         H            3.138702998826     1.178984783300     0.120916133527     1.007825032230

  Basis Set: AUG-CC-PVTZ
    Blend: AUG-CC-PVTZ
  Basis Set: (AUG-CC-PVTZ AUX)
    Blend: AUG-CC-PVTZ-JKFIT
	 Reference Energy          =    -431.8013894538087243 [Eh]
	 Singles Energy            =      -0.0000000000000000 [Eh]
	 Same-Spin Energy          =      -0.4503537953666379 [Eh]
	 Opposite-Spin Energy      =      -1.3718404119583285 [Eh]
	 Correlation Energy        =      -1.8221942073249664 [Eh]
	 Total Energy              =    -433.6235836611336936 [Eh]

	 ================> DF-SCS-MP2 Energies <==================
	-----------------------------------------------------------
	 SCS Same-Spin Scale       =       0.3333333333333333 [-]
	 SCS Opposite-Spin Scale   =       1.2000000000000000 [-]
	 SCS Same-Spin Energy      =      -0.1501179317888793 [Eh]
	 SCS Opposite-Spin Energy  =      -1.6462084943499942 [Eh]
	 SCS Correlation Energy    =      -1.7963264261388734 [Eh]
	 SCS Total Energy          =    -433.5977158799476001 [Eh]
	-----------------------------------------------------------

  Dipole Moment: [D]
     X:     1.7857      Y:    -5.6305      Z:     0.8330     Total:     5.9653

*** Psi4 exiting successfully. Buy a developer a beer!
