                               Psi4 1.3.2 release

  ==> Input File <==

--------------------------------------------------------------------------
#psi4
#
memory 32 gb

molecule  {
0 1
  O       -1.4243350     1.8531120    -0.0084660
  N       -1.1176450    -0.4263010     0.0065070
  N        0.7429240     1.0712790     0.0095610
  N        2.8919430     0.2615640    -0.0759850
  C       -0.2733660    -1.4960510    -0.0007800
  C        1.0765330    -1.3300920    -0.0040440
  C       -0.6338910     0.9109410     0.0155220
  C       -2.5617390    -0.6507120     0.0005160
  C        1.5376510     0.0247200    -0.0002060
  H       -0.7522370    -2.4720050    -0.0099570
  H        1.7553550    -2.1750520    -0.0313920
  H       -2.9187279    -1.3129861     1.0518516
  H       -2.8583950    -1.1972750    -0.8980640
  H       -3.0263160     0.3321150     0.0069490
  H        3.5027140    -0.4263080     0.3467730
  H        3.1453740     1.2255370     0.1175850
units angstrom
no_reorient  #important for SAPT in psi4, default
symmetry c1  #important for SAPT in psi4, default
}

set PROPERTIES_ORIGIN ["COM"]
properties('MP2/aug-cc-pvtz', properties = ['dipole'])
--------------------------------------------------------------------------

    Molecular point group: c1
  Charge       = 0
  Multiplicity = 1
  Basis Set: AUG-CC-PVTZ
    Blend: AUG-CC-PVTZ
  Basis Set: (AUG-CC-PVTZ AUX)
    Blend: AUG-CC-PVTZ-JKFIT

    Orbital Energies [Eh]
    ---------------------

    Doubly Occupied:

       1A    -20.505159     2A    -15.628042     3A    -15.592593
       4A    -15.544816     5A    -11.373980     6A    -11.350526
       7A    -11.327905     8A    -11.292939     9A    -11.247269
      10A     -1.384164    11A     -1.297311    12A     -1.268538
      13A     -1.171693    14A     -1.073053    15A     -0.955928
      16A     -0.899749    17A     -0.852528    18A     -0.760079
      19A     -0.723851    20A     -0.685255    21A     -0.675267
      22A     -0.646675    23A     -0.623231    24A     -0.602451
      25A     -0.593519    26A     -0.567739    27A     -0.553292
      28A     -0.517161    29A     -0.471894    30A     -0.442093
      31A     -0.421145    32A     -0.388215    33A     -0.339917

  @DF-RHF Final Energy:  -431.78102048930145

   => Energetics <=

    Nuclear Repulsion Energy =            440.0818576246754787
    One-Electron Energy =               -1460.1698046545222951
    Two-Electron Energy =                 588.3069265405454189
    Total Energy =                       -431.7810204893014543
  Basis Set: (AUG-CC-PVTZ AUX)
    Blend: AUG-CC-PVTZ-RI
    Molecular point group: c1

    Geometry (in Angstrom), charge = 0, multiplicity = 1:

       Center              X                  Y                   Z               Mass
    ------------   -----------------  -----------------  -----------------  -----------------
         O           -1.432712940138     1.806995435356    -0.006434751684    15.994914619570
         N           -1.126022940138    -0.472417564644     0.008538248316    14.003074004430
         N            0.734546059862     1.025162435356     0.011592248316    14.003074004430
         N            2.883565059862     0.215447435356    -0.073953751684    14.003074004430
         C           -0.281743940138    -1.542167564644     0.001251248316    12.000000000000
         C            1.068155059862    -1.376208564644    -0.002012751684    12.000000000000
         C           -0.642268940138     0.864824435356     0.017553248316    12.000000000000
         C           -2.570116940138    -0.696828564644     0.002547248316    12.000000000000
         C            1.529273059862    -0.021396564644     0.001825248316    12.000000000000
         H           -0.760614940138    -2.518121564644    -0.007925751684     1.007825032230
         H            1.746977059862    -2.221168564644    -0.029360751684     1.007825032230
         H           -2.927105840138    -1.359102664644     1.053882848316     1.007825032230
         H           -2.866772940138    -1.243391564644    -0.896032751684     1.007825032230
         H           -3.034693940138     0.285998435356     0.008980248316     1.007825032230
         H            3.494336059862    -0.472424564644     0.348804248316     1.007825032230
         H            3.136996059862     1.179420435356     0.119616248316     1.007825032230

  Basis Set: AUG-CC-PVTZ
    Blend: AUG-CC-PVTZ
  Basis Set: (AUG-CC-PVTZ AUX)
    Blend: AUG-CC-PVTZ-JKFIT
	 Reference Energy          =    -431.7810204893014543 [Eh]
	 Singles Energy            =      -0.0000000000000000 [Eh]
	 Same-Spin Energy          =      -0.4503695829048526 [Eh]
	 Opposite-Spin Energy      =      -1.3736432977443549 [Eh]
	 Correlation Energy        =      -1.8240128806492075 [Eh]
	 Total Energy              =    -433.6050333699506609 [Eh]

	 ================> DF-SCS-MP2 Energies <==================
	-----------------------------------------------------------
	 SCS Same-Spin Scale       =       0.3333333333333333 [-]
	 SCS Opposite-Spin Scale   =       1.2000000000000000 [-]
	 SCS Same-Spin Energy      =      -0.1501231943016175 [Eh]
	 SCS Opposite-Spin Energy  =      -1.6483719572932258 [Eh]
	 SCS Correlation Energy    =      -1.7984951515948433 [Eh]
	 SCS Total Energy          =    -433.5795156408963180 [Eh]
	-----------------------------------------------------------

  Dipole Moment: [D]
     X:     1.8477      Y:    -5.5551      Z:     0.7444     Total:     5.9015

*** Psi4 exiting successfully. Buy a developer a beer!
