                               Psi4 1.4a3.dev225

  ==> Input File <==

--------------------------------------------------------------------------
#psi4
#
memory 32 gb

molecule  {
0 1
  O       -1.4602810    -1.8042760    -0.0008590
  N       -1.1067000     0.4494610     0.0014260
  N        0.7338450    -1.0777760     0.0056990
  N        2.8872480    -0.2944040    -0.0665390
  C       -0.2576190     1.5082170    -0.0002850
  C        1.0914800     1.3228940    -0.0047970
  C       -0.6316600    -0.8954310    -0.0014820
  C       -2.5563510     0.6193970     0.0049040
  C        1.5404980    -0.0347530    -0.0000590
  H       -0.7147670     2.4940890    -0.0022110
  H        1.7619994     2.1482714    -0.0242855
  H       -2.7835150     1.6863950     0.0041520
  H       -2.9802500     0.1433220     0.8903410
  H       -2.9840040     0.1411790    -0.8774920
  H        3.5206970     0.4000120     0.3068300
  H        3.1306380    -1.2574880     0.1361150
units angstrom
no_reorient  #important for SAPT in psi4, default
symmetry c1  #important for SAPT in psi4, default
}

set PROPERTIES_ORIGIN ["COM"]
properties('MP2/aug-cc-pvtz', properties = ['dipole'])
--------------------------------------------------------------------------

    Molecular point group: c1
  Charge       = 0
  Multiplicity = 1
  Basis Set: AUG-CC-PVTZ
    Blend: AUG-CC-PVTZ
  Basis Set: (AUG-CC-PVTZ AUX)
    Blend: AUG-CC-PVTZ-JKFIT

    Orbital Energies [Eh]
    ---------------------

    Doubly Occupied:

       1A    -20.502917     2A    -15.626105     3A    -15.591616
       4A    -15.542369     5A    -11.369145     6A    -11.349351
       7A    -11.328103     8A    -11.273522     9A    -11.241151
      10A     -1.383087    11A     -1.295429    12A     -1.267815
      13A     -1.171571    14A     -1.073161    15A     -0.965299
      16A     -0.898956    17A     -0.855700    18A     -0.759501
      19A     -0.725450    20A     -0.687381    21A     -0.675184
      22A     -0.655195    23A     -0.623546    24A     -0.602137
      25A     -0.591008    26A     -0.576380    27A     -0.566414
      28A     -0.517009    29A     -0.480183    30A     -0.442608
      31A     -0.418355    32A     -0.385018    33A     -0.337483

  @DF-RHF Final Energy:  -431.80342133748826

   => Energetics <=

    Nuclear Repulsion Energy =            441.6903548331696925
    One-Electron Energy =               -1463.4312538212620893
    Two-Electron Energy =                 589.9374776506041371
    Total Energy =                       -431.8034213374882029
  Basis Set: (AUG-CC-PVTZ AUX)
    Blend: AUG-CC-PVTZ-RI
    Molecular point group: c1

    Geometry (in Angstrom), charge = 0, multiplicity = 1:

       Center              X                  Y                   Z               Mass
    ------------   -----------------  -----------------  -----------------  -----------------
         O           -1.468524520498    -1.758414130901     0.002575421489    15.994914619570
         N           -1.114943520498     0.495322869099     0.004860421489    14.003074004430
         N            0.725601479502    -1.031914130901     0.009133421489    14.003074004430
         N            2.879004479502    -0.248542130901    -0.063104578511    14.003074004430
         C           -0.265862520498     1.554078869099     0.003149421489    12.000000000000
         C            1.083236479502     1.368755869099    -0.001362578511    12.000000000000
         C           -0.639903520498    -0.849569130901     0.001952421489    12.000000000000
         C           -2.564594520498     0.665258869099     0.008338421489    12.000000000000
         C            1.532254479502     0.011108869099     0.003375421489    12.000000000000
         H           -0.723010520498     2.539950869099     0.001223421489     1.007825032230
         H            1.753755879502     2.194133269099    -0.020851078511     1.007825032230
         H           -2.791758520498     1.732256869099     0.007586421489     1.007825032230
         H           -2.988493520498     0.189183869099     0.893775421489     1.007825032230
         H           -2.992247520498     0.187040869099    -0.874057578511     1.007825032230
         H            3.512453479502     0.445873869099     0.310264421489     1.007825032230
         H            3.122394479502    -1.211626130901     0.139549421489     1.007825032230

  Basis Set: AUG-CC-PVTZ
    Blend: AUG-CC-PVTZ
  Basis Set: (AUG-CC-PVTZ AUX)
    Blend: AUG-CC-PVTZ-JKFIT
	 Reference Energy          =    -431.8034213374882597 [Eh]
	 Singles Energy            =      -0.0000000000000000 [Eh]
	 Same-Spin Energy          =      -0.4503719361930841 [Eh]
	 Opposite-Spin Energy      =      -1.3717682252984480 [Eh]
	 Correlation Energy        =      -1.8221401614915320 [Eh]
	 Total Energy              =    -433.6255614989797778 [Eh]

	 ================> DF-SCS-MP2 Energies <==================
	-----------------------------------------------------------
	 SCS Same-Spin Scale       =       0.3333333333333333 [-]
	 SCS Opposite-Spin Scale   =       1.2000000000000000 [-]
	 SCS Same-Spin Energy      =      -0.1501239787310280 [Eh]
	 SCS Opposite-Spin Energy  =      -1.6461218703581375 [Eh]
	 SCS Correlation Energy    =      -1.7962458490891655 [Eh]
	 SCS Total Energy          =    -433.5996671865774488 [Eh]
	-----------------------------------------------------------

  Dipole Moment: [D]
     X:     1.8049      Y:     5.6105      Z:     0.7695     Total:     5.9437

*** Psi4 exiting successfully. Buy a developer a beer!
