                               Psi4 1.3.2 release

  ==> Input File <==

--------------------------------------------------------------------------
#psi4
#
memory 32 gb

molecule  {
0 1
  O       -1.4243350     1.8531120    -0.0084660
  N       -1.1176450    -0.4263010     0.0065070
  N        0.7429240     1.0712790     0.0095610
  N        2.8919430     0.2615640    -0.0759850
  C       -0.2801934    -1.4252026     0.0012215
  C        1.0765330    -1.3300920    -0.0040440
  C       -0.6338910     0.9109410     0.0155220
  C       -2.5617390    -0.6507120     0.0005160
  C        1.5376510     0.0247200    -0.0002060
  H       -0.7522370    -2.4720050    -0.0099570
  H        1.7986684    -2.1383731    -0.0306286
  H       -2.8635010    -1.2105310     0.8892080
  H       -2.8583950    -1.1972750    -0.8980640
  H       -3.0263160     0.3321150     0.0069490
  H        3.5027140    -0.4263080     0.3467730
  H        3.1453740     1.2255370     0.1175850
units angstrom
no_reorient  #important for SAPT in psi4, default
symmetry c1  #important for SAPT in psi4, default
}

set PROPERTIES_ORIGIN ["COM"]
properties('MP2/aug-cc-pvtz', properties = ['dipole'])
--------------------------------------------------------------------------

    Molecular point group: c1
  Charge       = 0
  Multiplicity = 1
  Basis Set: AUG-CC-PVTZ
    Blend: AUG-CC-PVTZ
  Basis Set: (AUG-CC-PVTZ AUX)
    Blend: AUG-CC-PVTZ-JKFIT

    Orbital Energies [Eh]
    ---------------------

    Doubly Occupied:

       1A    -20.505690     2A    -15.630976     3A    -15.588909
       4A    -15.541217     5A    -11.373513     6A    -11.344787
       7A    -11.327871     8A    -11.275694     9A    -11.240384
      10A     -1.389593    11A     -1.306304    12A     -1.273492
      13A     -1.170479    14A     -1.070832    15A     -0.974029
      16A     -0.899935    17A     -0.854653    18A     -0.762065
      19A     -0.720567    20A     -0.688770    21A     -0.668971
      22A     -0.664437    23A     -0.623771    24A     -0.598310
      25A     -0.582730    26A     -0.580873    27A     -0.567082
      28A     -0.522490    29A     -0.484926    30A     -0.441070
      31A     -0.417996    32A     -0.388077    33A     -0.336195

  @DF-RHF Final Energy:  -431.79552897047068

   => Energetics <=

    Nuclear Repulsion Energy =            442.3928353835285634
    One-Electron Energy =               -1464.7433464198825277
    Two-Electron Energy =                 590.5549820658832232
    Total Energy =                       -431.7955289704707411
  Basis Set: (AUG-CC-PVTZ AUX)
    Blend: AUG-CC-PVTZ-RI
    Molecular point group: c1

    Geometry (in Angstrom), charge = 0, multiplicity = 1:

       Center              X                  Y                   Z               Mass
    ------------   -----------------  -----------------  -----------------  -----------------
         O           -1.432851935279     1.799075939549    -0.005322244660    15.994914619570
         N           -1.126161935279    -0.480337060451     0.009650755340    14.003074004430
         N            0.734407064721     1.017242939549     0.012704755340    14.003074004430
         N            2.883426064721     0.207527939549    -0.072841244660    14.003074004430
         C           -0.288710335279    -1.479238660451     0.004365255340    12.000000000000
         C            1.068016064721    -1.384128060451    -0.000900244660    12.000000000000
         C           -0.642407935279     0.856904939549     0.018665755340    12.000000000000
         C           -2.570255935279    -0.704748060451     0.003659755340    12.000000000000
         C            1.529134064721    -0.029316060451     0.002937755340    12.000000000000
         H           -0.760753935279    -2.526041060451    -0.006813244660     1.007825032230
         H            1.790151464721    -2.192409160451    -0.027484844660     1.007825032230
         H           -2.872017935279    -1.264567060451     0.892351755340     1.007825032230
         H           -2.866911935279    -1.251311060451    -0.894920244660     1.007825032230
         H           -3.034832935279     0.278078939549     0.010092755340     1.007825032230
         H            3.494197064721    -0.480344060451     0.349916755340     1.007825032230
         H            3.136857064721     1.171500939549     0.120728755340     1.007825032230

  Basis Set: AUG-CC-PVTZ
    Blend: AUG-CC-PVTZ
  Basis Set: (AUG-CC-PVTZ AUX)
    Blend: AUG-CC-PVTZ-JKFIT
	 Reference Energy          =    -431.7955289704706843 [Eh]
	 Singles Energy            =      -0.0000000000000000 [Eh]
	 Same-Spin Energy          =      -0.4506225269176330 [Eh]
	 Opposite-Spin Energy      =      -1.3716242477305096 [Eh]
	 Correlation Energy        =      -1.8222467746481428 [Eh]
	 Total Energy              =    -433.6177757451188199 [Eh]

	 ================> DF-SCS-MP2 Energies <==================
	-----------------------------------------------------------
	 SCS Same-Spin Scale       =       0.3333333333333333 [-]
	 SCS Opposite-Spin Scale   =       1.2000000000000000 [-]
	 SCS Same-Spin Energy      =      -0.1502075089725443 [Eh]
	 SCS Opposite-Spin Energy  =      -1.6459490972766115 [Eh]
	 SCS Correlation Energy    =      -1.7961566062491559 [Eh]
	 SCS Total Energy          =    -433.5916855767198399 [Eh]
	-----------------------------------------------------------

  Dipole Moment: [D]
     X:     1.4723      Y:    -5.5287      Z:     0.8324     Total:     5.7816

*** Psi4 exiting successfully. Buy a developer a beer!
