                               Psi4 1.3.2 release

  ==> Input File <==

--------------------------------------------------------------------------
#psi4
#
memory 32 gb

molecule  {
0 1
  O       -1.4243350     1.8531120    -0.0084660
  N       -1.1176450    -0.4263010     0.0065070
  N        0.7429240     1.0712790     0.0095610
  N        2.8919430     0.2615640    -0.0759850
  C       -0.2733660    -1.4960510    -0.0007800
  C        1.0765330    -1.3300920    -0.0040440
  C       -0.6274579     0.8629888     0.0152237
  C       -2.5617390    -0.6507120     0.0005160
  C        1.5006416    -0.0023790    -0.0001723
  H       -0.7522370    -2.4720050    -0.0099570
  H        1.7553550    -2.1750520    -0.0313920
  H       -2.8635010    -1.2105310     0.8892080
  H       -2.8583950    -1.1972750    -0.8980640
  H       -3.0263160     0.3321150     0.0069490
  H        3.5027140    -0.4263080     0.3467730
  H        3.1453740     1.2255370     0.1175850
units angstrom
no_reorient  #important for SAPT in psi4, default
symmetry c1  #important for SAPT in psi4, default
}

set PROPERTIES_ORIGIN ["COM"]
properties('MP2/aug-cc-pvtz', properties = ['dipole'])
--------------------------------------------------------------------------

    Molecular point group: c1
  Charge       = 0
  Multiplicity = 1
  Basis Set: AUG-CC-PVTZ
    Blend: AUG-CC-PVTZ
  Basis Set: (AUG-CC-PVTZ AUX)
    Blend: AUG-CC-PVTZ-JKFIT

    Orbital Energies [Eh]
    ---------------------

    Doubly Occupied:

       1A    -20.492936     2A    -15.636540     3A    -15.586129
       4A    -15.550565     5A    -11.370397     6A    -11.348572
       7A    -11.335237     8A    -11.275878     9A    -11.251001
      10A     -1.376469    11A     -1.284252    12A     -1.265983
      13A     -1.166295    14A     -1.084682    15A     -0.975286
      16A     -0.915966    17A     -0.851038    18A     -0.761584
      19A     -0.727647    20A     -0.681751    21A     -0.670708
      22A     -0.663256    23A     -0.626400    24A     -0.604275
      25A     -0.585701    26A     -0.579578    27A     -0.557233
      28A     -0.513413    29A     -0.471748    30A     -0.443909
      31A     -0.418251    32A     -0.389900    33A     -0.342665

  @DF-RHF Final Energy:  -431.79124815570765

   => Energetics <=

    Nuclear Repulsion Energy =            441.5566899236268910
    One-Electron Energy =               -1463.0853881715008811
    Two-Electron Energy =                 589.7374500921663412
    Total Energy =                       -431.7912481557076489
  Basis Set: (AUG-CC-PVTZ AUX)
    Blend: AUG-CC-PVTZ-RI
    Molecular point group: c1

    Geometry (in Angstrom), charge = 0, multiplicity = 1:

       Center              X                  Y                   Z               Mass
    ------------   -----------------  -----------------  -----------------  -----------------
         O           -1.430224060753     1.813371291132    -0.005098649450    15.994914619570
         N           -1.123534060753    -0.466041708868     0.009874350550    14.003074004430
         N            0.737034939247     1.031538291132     0.012928350550    14.003074004430
         N            2.886053939247     0.221823291132    -0.072617649450    14.003074004430
         C           -0.279255060753    -1.535791708868     0.002587350550    12.000000000000
         C            1.070643939247    -1.369832708868    -0.000676649450    12.000000000000
         C           -0.633346960753     0.823248091132     0.018591050550    12.000000000000
         C           -2.567628060753    -0.690452708868     0.003883350550    12.000000000000
         C            1.494752539247    -0.042119708868     0.003195050550    12.000000000000
         H           -0.758126060753    -2.511745708868    -0.006589649450     1.007825032230
         H            1.749465939247    -2.214792708868    -0.028024649450     1.007825032230
         H           -2.869390060753    -1.250271708868     0.892575350550     1.007825032230
         H           -2.864284060753    -1.237015708868    -0.894696649450     1.007825032230
         H           -3.032205060753     0.292374291132     0.010316350550     1.007825032230
         H            3.496824939247    -0.466048708868     0.350140350550     1.007825032230
         H            3.139484939247     1.185796291132     0.120952350550     1.007825032230

  Basis Set: AUG-CC-PVTZ
    Blend: AUG-CC-PVTZ
  Basis Set: (AUG-CC-PVTZ AUX)
    Blend: AUG-CC-PVTZ-JKFIT
	 Reference Energy          =    -431.7912481557076489 [Eh]
	 Singles Energy            =      -0.0000000000000000 [Eh]
	 Same-Spin Energy          =      -0.4514768729282229 [Eh]
	 Opposite-Spin Energy      =      -1.3741989858216916 [Eh]
	 Correlation Energy        =      -1.8256758587499147 [Eh]
	 Total Energy              =    -433.6169240144575383 [Eh]

	 ================> DF-SCS-MP2 Energies <==================
	-----------------------------------------------------------
	 SCS Same-Spin Scale       =       0.3333333333333333 [-]
	 SCS Opposite-Spin Scale   =       1.2000000000000000 [-]
	 SCS Same-Spin Energy      =      -0.1504922909760743 [Eh]
	 SCS Opposite-Spin Energy  =      -1.6490387829860300 [Eh]
	 SCS Correlation Energy    =      -1.7995310739621044 [Eh]
	 SCS Total Energy          =    -433.5907792296697494 [Eh]
	-----------------------------------------------------------

  Dipole Moment: [D]
     X:     1.4899      Y:    -6.1767      Z:     0.8416     Total:     6.4094

*** Psi4 exiting successfully. Buy a developer a beer!
