                               Psi4 1.3.2 release

  ==> Input File <==

--------------------------------------------------------------------------
#psi4
#
memory 32 gb

molecule  {
0 1
  O       -1.4243350     1.8531120    -0.0084660
  N       -1.1176450    -0.4263010     0.0065070
  N        0.7429240     1.0712790     0.0095610
  N        2.8919430     0.2615640    -0.0759850
  C       -0.2733660    -1.4960510    -0.0007800
  C        1.0765330    -1.3300920    -0.0040440
  C       -0.6338910     0.9109410     0.0155220
  C       -2.5617390    -0.6507120     0.0005160
  C        1.5376510     0.0247200    -0.0002060
  H       -0.7522370    -2.4720050    -0.0099570
  H        1.7553550    -2.1750520    -0.0313920
  H       -2.8485423    -1.1829204     0.9108616
  H       -2.8433145    -1.1693477    -0.9192199
  H       -3.0263160     0.3321150     0.0069490
  H        3.5027140    -0.4263080     0.3467730
  H        3.1453740     1.2255370     0.1175850
units angstrom
no_reorient  #important for SAPT in psi4, default
symmetry c1  #important for SAPT in psi4, default
}

set PROPERTIES_ORIGIN ["COM"]
properties('MP2/aug-cc-pvtz', properties = ['dipole'])
--------------------------------------------------------------------------

    Molecular point group: c1
  Charge       = 0
  Multiplicity = 1
  Basis Set: AUG-CC-PVTZ
    Blend: AUG-CC-PVTZ
  Basis Set: (AUG-CC-PVTZ AUX)
    Blend: AUG-CC-PVTZ-JKFIT

    Orbital Energies [Eh]
    ---------------------

    Doubly Occupied:

       1A    -20.503338     2A    -15.624661     3A    -15.591317
       4A    -15.543311     5A    -11.371847     6A    -11.349003
       7A    -11.326954     8A    -11.270400     9A    -11.245718
      10A     -1.382343    11A     -1.295781    12A     -1.267286
      13A     -1.170494    14A     -1.072591    15A     -0.965180
      16A     -0.898931    17A     -0.853336    18A     -0.758644
      19A     -0.723322    20A     -0.684500    21A     -0.673951
      22A     -0.658621    23A     -0.621786    24A     -0.601154
      25A     -0.590026    26A     -0.581720    27A     -0.557049
      28A     -0.522356    29A     -0.476711    30A     -0.440456
      31A     -0.419448    32A     -0.387678    33A     -0.338791

  @DF-RHF Final Energy:  -431.80052033131528

   => Energetics <=

    Nuclear Repulsion Energy =            440.9929577605901159
    One-Electron Energy =               -1462.0495504398816138
    Two-Electron Energy =                 589.2560723479762146
    Total Energy =                       -431.8005203313152833
  Basis Set: (AUG-CC-PVTZ AUX)
    Blend: AUG-CC-PVTZ-RI
    Molecular point group: c1

    Geometry (in Angstrom), charge = 0, multiplicity = 1:

       Center              X                  Y                   Z               Mass
    ------------   -----------------  -----------------  -----------------  -----------------
         O           -1.433400082772     1.805722201022    -0.005128049950    15.994914619570
         N           -1.126710082772    -0.473690798978     0.009844950050    14.003074004430
         N            0.733858917228     1.023889201022     0.012898950050    14.003074004430
         N            2.882877917228     0.214174201022    -0.072647049950    14.003074004430
         C           -0.282431082772    -1.543440798978     0.002557950050    12.000000000000
         C            1.067467917228    -1.377481798978    -0.000706049950    12.000000000000
         C           -0.642956082772     0.863551201022     0.018859950050    12.000000000000
         C           -2.570804082772    -0.698101798978     0.003853950050    12.000000000000
         C            1.528585917228    -0.022669798978     0.003131950050    12.000000000000
         H           -0.761302082772    -2.519394798978    -0.006619049950     1.007825032230
         H            1.746289917228    -2.222441798978    -0.028054049950     1.007825032230
         H           -2.857607382772    -1.230310198978     0.914199550050     1.007825032230
         H           -2.852379582772    -1.216737498978    -0.915881949950     1.007825032230
         H           -3.035381082772     0.284725201022     0.010286950050     1.007825032230
         H            3.493648917228    -0.473697798978     0.350110950050     1.007825032230
         H            3.136308917228     1.178147201022     0.120922950050     1.007825032230

  Basis Set: AUG-CC-PVTZ
    Blend: AUG-CC-PVTZ
  Basis Set: (AUG-CC-PVTZ AUX)
    Blend: AUG-CC-PVTZ-JKFIT
	 Reference Energy          =    -431.8005203313152833 [Eh]
	 Singles Energy            =      -0.0000000000000000 [Eh]
	 Same-Spin Energy          =      -0.4504575724400861 [Eh]
	 Opposite-Spin Energy      =      -1.3722784366231646 [Eh]
	 Correlation Energy        =      -1.8227360090632507 [Eh]
	 Total Energy              =    -433.6232563403785321 [Eh]

	 ================> DF-SCS-MP2 Energies <==================
	-----------------------------------------------------------
	 SCS Same-Spin Scale       =       0.3333333333333333 [-]
	 SCS Opposite-Spin Scale   =       1.2000000000000000 [-]
	 SCS Same-Spin Energy      =      -0.1501525241466954 [Eh]
	 SCS Opposite-Spin Energy  =      -1.6467341239477975 [Eh]
	 SCS Correlation Energy    =      -1.7968866480944929 [Eh]
	 SCS Total Energy          =    -433.5974069794097545 [Eh]
	-----------------------------------------------------------

  Dipole Moment: [D]
     X:     1.6856      Y:    -5.6127      Z:     0.8326     Total:     5.9192

*** Psi4 exiting successfully. Buy a developer a beer!
