                               Psi4 1.3.2 release

  ==> Input File <==

--------------------------------------------------------------------------
#psi4
#
memory 32 gb

molecule  {
0 1
  O       -1.4243350     1.8531120    -0.0084660
  N       -1.1176450    -0.4263010     0.0065070
  N        0.7429240     1.0712790     0.0095610
  N        2.8919430     0.2615640    -0.0759850
  C       -0.2733660    -1.4960510    -0.0007800
  C        1.0765330    -1.3300920    -0.0040440
  C       -0.6338910     0.9109410     0.0155220
  C       -2.5617390    -0.6507120     0.0005160
  C        1.5698713     0.1193867     0.0000622
  H       -0.7522370    -2.4720050    -0.0099570
  H        1.7553550    -2.1750520    -0.0313920
  H       -2.8635010    -1.2105310     0.8892080
  H       -2.8583950    -1.1972750    -0.8980640
  H       -3.0263160     0.3321150     0.0069490
  H        3.5027140    -0.4263080     0.3467730
  H        3.1453740     1.2255370     0.1175850
units angstrom
no_reorient  #important for SAPT in psi4, default
symmetry c1  #important for SAPT in psi4, default
}

set PROPERTIES_ORIGIN ["COM"]
properties('MP2/aug-cc-pvtz', properties = ['dipole'])
--------------------------------------------------------------------------

    Molecular point group: c1
  Charge       = 0
  Multiplicity = 1
  Basis Set: AUG-CC-PVTZ
    Blend: AUG-CC-PVTZ
  Basis Set: (AUG-CC-PVTZ AUX)
    Blend: AUG-CC-PVTZ-JKFIT

    Orbital Energies [Eh]
    ---------------------

    Doubly Occupied:

       1A    -20.508411     2A    -15.617238     3A    -15.597615
       4A    -15.541582     5A    -11.377865     6A    -11.349324
       7A    -11.314843     8A    -11.266922     9A    -11.245898
      10A     -1.384815    11A     -1.306048    12A     -1.272794
      13A     -1.190070    14A     -1.056302    15A     -0.960959
      16A     -0.885992    17A     -0.862113    18A     -0.761099
      19A     -0.730379    20A     -0.696813    21A     -0.672904
      22A     -0.652856    23A     -0.615985    24A     -0.595843
      25A     -0.589960    26A     -0.585229    27A     -0.555496
      28A     -0.529178    29A     -0.473515    30A     -0.440585
      31A     -0.413651    32A     -0.395528    33A     -0.333351

  @DF-RHF Final Energy:  -431.79219991470535

   => Energetics <=

    Nuclear Repulsion Energy =            440.8530418072637076
    One-Electron Energy =               -1461.7281535140646156
    Two-Electron Energy =                 589.0829117920956151
    Total Energy =                       -431.7921999147052929
  Basis Set: (AUG-CC-PVTZ AUX)
    Blend: AUG-CC-PVTZ-RI
    Molecular point group: c1

    Geometry (in Angstrom), charge = 0, multiplicity = 1:

       Center              X                  Y                   Z               Mass
    ------------   -----------------  -----------------  -----------------  -----------------
         O           -1.436249694502     1.797086047883    -0.005149774156    15.994914619570
         N           -1.129559694502    -0.482326952117     0.009823225844    14.003074004430
         N            0.731009305498     1.015253047883     0.012877225844    14.003074004430
         N            2.880028305498     0.205538047883    -0.072668774156    14.003074004430
         C           -0.285280694502    -1.552076952117     0.002536225844    12.000000000000
         C            1.064618305498    -1.386117952117    -0.000727774156    12.000000000000
         C           -0.645805694502     0.854915047883     0.018838225844    12.000000000000
         C           -2.573653694502    -0.706737952117     0.003832225844    12.000000000000
         C            1.557956605498     0.063360747883     0.003378425844    12.000000000000
         H           -0.764151694502    -2.528030952117    -0.006640774156     1.007825032230
         H            1.743440305498    -2.231077952117    -0.028075774156     1.007825032230
         H           -2.875415694502    -1.266556952117     0.892524225844     1.007825032230
         H           -2.870309694502    -1.253300952117    -0.894747774156     1.007825032230
         H           -3.038230694502     0.276089047883     0.010265225844     1.007825032230
         H            3.490799305498    -0.482333952117     0.350089225844     1.007825032230
         H            3.133459305498     1.169511047883     0.120901225844     1.007825032230

  Basis Set: AUG-CC-PVTZ
    Blend: AUG-CC-PVTZ
  Basis Set: (AUG-CC-PVTZ AUX)
    Blend: AUG-CC-PVTZ-JKFIT
	 Reference Energy          =    -431.7921999147053498 [Eh]
	 Singles Energy            =      -0.0000000000000000 [Eh]
	 Same-Spin Energy          =      -0.4490840885433987 [Eh]
	 Opposite-Spin Energy      =      -1.3709663426283463 [Eh]
	 Correlation Energy        =      -1.8200504311717449 [Eh]
	 Total Energy              =    -433.6122503458771007 [Eh]

	 ================> DF-SCS-MP2 Energies <==================
	-----------------------------------------------------------
	 SCS Same-Spin Scale       =       0.3333333333333333 [-]
	 SCS Opposite-Spin Scale   =       1.2000000000000000 [-]
	 SCS Same-Spin Energy      =      -0.1496946961811329 [Eh]
	 SCS Opposite-Spin Energy  =      -1.6451596111540154 [Eh]
	 SCS Correlation Energy    =      -1.7948543073351484 [Eh]
	 SCS Total Energy          =    -433.5870542220404786 [Eh]
	-----------------------------------------------------------

  Dipole Moment: [D]
     X:     2.1277      Y:    -5.1739      Z:     0.8311     Total:     5.6557

*** Psi4 exiting successfully. Buy a developer a beer!
