                               Psi4 1.3.2 release

  ==> Input File <==

--------------------------------------------------------------------------
#psi4
#
memory 32 gb

molecule  {
0 1
  O       -1.4243350     1.8531120    -0.0084660
  N       -1.1176450    -0.4263010     0.0065070
  N        0.7429240     1.0712790     0.0095610
  N        2.8919430     0.2615640    -0.0759850
  C       -0.2733660    -1.4960510    -0.0007800
  C        1.0765330    -1.3300920    -0.0040440
  C       -0.6338910     0.9109410     0.0155220
  C       -2.5617390    -0.6507120     0.0005160
  C        1.5376510     0.0247200    -0.0002060
  H       -0.7522370    -2.4720050    -0.0099570
  H        1.7553550    -2.1750520    -0.0313920
  H       -2.8671839    -1.2173284     0.8836244
  H       -2.8621094    -1.2041541    -0.8926029
  H       -3.0263160     0.3321150     0.0069490
  H        3.5027140    -0.4263080     0.3467730
  H        3.1453740     1.2255370     0.1175850
units angstrom
no_reorient  #important for SAPT in psi4, default
symmetry c1  #important for SAPT in psi4, default
}

set PROPERTIES_ORIGIN ["COM"]
properties('MP2/aug-cc-pvtz', properties = ['dipole'])
--------------------------------------------------------------------------

    Molecular point group: c1
  Charge       = 0
  Multiplicity = 1
  Basis Set: AUG-CC-PVTZ
    Blend: AUG-CC-PVTZ
  Basis Set: (AUG-CC-PVTZ AUX)
    Blend: AUG-CC-PVTZ-JKFIT

    Orbital Energies [Eh]
    ---------------------

    Doubly Occupied:

       1A    -20.503632     2A    -15.625571     3A    -15.591568
       4A    -15.543634     5A    -11.372340     6A    -11.349321
       7A    -11.327281     8A    -11.270487     9A    -11.246039
      10A     -1.382641    11A     -1.296057    12A     -1.267480
      13A     -1.170731    14A     -1.072728    15A     -0.965319
      16A     -0.899489    17A     -0.853793    18A     -0.759072
      19A     -0.723907    20A     -0.686059    21A     -0.674183
      22A     -0.654758    23A     -0.622062    24A     -0.601920
      25A     -0.593020    26A     -0.579212    27A     -0.559553
      28A     -0.521742    29A     -0.476148    30A     -0.440973
      31A     -0.419830    32A     -0.387844    33A     -0.339042

  @DF-RHF Final Energy:  -431.80100425227113

   => Energetics <=

    Nuclear Repulsion Energy =            440.9000018720701064
    One-Electron Energy =               -1461.8471391191533257
    Two-Electron Energy =                 589.1461329948120920
    Total Energy =                       -431.8010042522711274
  Basis Set: (AUG-CC-PVTZ AUX)
    Blend: AUG-CC-PVTZ-RI
    Molecular point group: c1

    Geometry (in Angstrom), charge = 0, multiplicity = 1:

       Center              X                  Y                   Z               Mass
    ------------   -----------------  -----------------  -----------------  -----------------
         O           -1.433098389424     1.806279986180    -0.005123051881    15.994914619570
         N           -1.126408389424    -0.473133013820     0.009849948119    14.003074004430
         N            0.734160610576     1.024446986180     0.012903948119    14.003074004430
         N            2.883179610576     0.214731986180    -0.072642051881    14.003074004430
         C           -0.282129389424    -1.542883013820     0.002562948119    12.000000000000
         C            1.067769610576    -1.376924013820    -0.000701051881    12.000000000000
         C           -0.642654389424     0.864108986180     0.018864948119    12.000000000000
         C           -2.570502389424    -0.697544013820     0.003858948119    12.000000000000
         C            1.528887610576    -0.022112013820     0.003136948119    12.000000000000
         H           -0.761000389424    -2.518837013820    -0.006614051881     1.007825032230
         H            1.746591610576    -2.221884013820    -0.028049051881     1.007825032230
         H           -2.875947289424    -1.264160413820     0.886967348119     1.007825032230
         H           -2.870872789424    -1.250986113820    -0.889259951881     1.007825032230
         H           -3.035079389424     0.285282986180     0.010291948119     1.007825032230
         H            3.493950610576    -0.473140013820     0.350115948119     1.007825032230
         H            3.136610610576     1.178704986180     0.120927948119     1.007825032230

  Basis Set: AUG-CC-PVTZ
    Blend: AUG-CC-PVTZ
  Basis Set: (AUG-CC-PVTZ AUX)
    Blend: AUG-CC-PVTZ-JKFIT
	 Reference Energy          =    -431.8010042522711274 [Eh]
	 Singles Energy            =      -0.0000000000000000 [Eh]
	 Same-Spin Energy          =      -0.4503737921007469 [Eh]
	 Opposite-Spin Energy      =      -1.3721434184854584 [Eh]
	 Correlation Energy        =      -1.8225172105862053 [Eh]
	 Total Energy              =    -433.6235214628573544 [Eh]

	 ================> DF-SCS-MP2 Energies <==================
	-----------------------------------------------------------
	 SCS Same-Spin Scale       =       0.3333333333333333 [-]
	 SCS Opposite-Spin Scale   =       1.2000000000000000 [-]
	 SCS Same-Spin Energy      =      -0.1501245973669156 [Eh]
	 SCS Opposite-Spin Energy  =      -1.6465721021825501 [Eh]
	 SCS Correlation Energy    =      -1.7966966995494658 [Eh]
	 SCS Total Energy          =    -433.5977009518205705 [Eh]
	-----------------------------------------------------------

  Dipole Moment: [D]
     X:     1.7074      Y:    -5.6379      Z:     0.8324     Total:     5.9493

*** Psi4 exiting successfully. Buy a developer a beer!
