                               Psi4 1.3.2 release

  ==> Input File <==

--------------------------------------------------------------------------
#psi4
#
memory 32 gb

molecule  {
0 1
  O       -1.4243350     1.8531120    -0.0084660
  N       -1.1176450    -0.4263010     0.0065070
  N        0.7429240     1.0712790     0.0095610
  N        2.8919430     0.2615640    -0.0759850
  C       -0.2733660    -1.4960510    -0.0007800
  C        1.1757854    -1.3178897    -0.0042840
  C       -0.6338910     0.9109410     0.0155220
  C       -2.5617390    -0.6507120     0.0005160
  C        1.5376510     0.0247200    -0.0002060
  H       -0.7522370    -2.4720050    -0.0099570
  H        1.7553550    -2.1750520    -0.0313920
  H       -2.8635010    -1.2105310     0.8892080
  H       -2.8583950    -1.1972750    -0.8980640
  H       -3.0263160     0.3321150     0.0069490
  H        3.5027140    -0.4263080     0.3467730
  H        3.1453740     1.2255370     0.1175850
units angstrom
no_reorient  #important for SAPT in psi4, default
symmetry c1  #important for SAPT in psi4, default
}

set PROPERTIES_ORIGIN ["COM"]
properties('MP2/aug-cc-pvtz', properties = ['dipole'])
--------------------------------------------------------------------------

    Molecular point group: c1
  Charge       = 0
  Multiplicity = 1
  Basis Set: AUG-CC-PVTZ
    Blend: AUG-CC-PVTZ
  Basis Set: (AUG-CC-PVTZ AUX)
    Blend: AUG-CC-PVTZ-JKFIT

    Orbital Energies [Eh]
    ---------------------

    Doubly Occupied:

       1A    -20.504823     2A    -15.637246     3A    -15.582640
       4A    -15.540792     5A    -11.373574     6A    -11.346484
       7A    -11.341659     8A    -11.275442     9A    -11.245944
      10A     -1.384643    11A     -1.296184    12A     -1.268599
      13A     -1.167461    14A     -1.060862    15A     -0.971498
      16A     -0.908645    17A     -0.849584    18A     -0.755570
      19A     -0.722779    20A     -0.690418    21A     -0.675035
      22A     -0.658446    23A     -0.634154    24A     -0.599714
      25A     -0.586691    26A     -0.580952    27A     -0.556929
      28A     -0.522000    29A     -0.471817    30A     -0.442388
      31A     -0.421537    32A     -0.386021    33A     -0.331639

  @DF-RHF Final Energy:  -431.78460349244040

   => Energetics <=

    Nuclear Repulsion Energy =            440.0882534428102986
    One-Electron Energy =               -1460.1613721260007424
    Two-Electron Energy =                 588.2885151907499903
    Total Energy =                       -431.7846034924403966
  Basis Set: (AUG-CC-PVTZ AUX)
    Blend: AUG-CC-PVTZ-RI
    Molecular point group: c1

    Geometry (in Angstrom), charge = 0, multiplicity = 1:

       Center              X                  Y                   Z               Mass
    ------------   -----------------  -----------------  -----------------  -----------------
         O           -1.442681744710     1.804998900996    -0.005101009938    15.994914619570
         N           -1.135991744710    -0.474414099004     0.009871990062    14.003074004430
         N            0.724577255290     1.023165900996     0.012925990062    14.003074004430
         N            2.873596255290     0.213450900996    -0.072620009938    14.003074004430
         C           -0.291712744710    -1.544164099004     0.002584990062    12.000000000000
         C            1.157438655290    -1.366002799004    -0.000919009938    12.000000000000
         C           -0.652237744710     0.862827900996     0.018886990062    12.000000000000
         C           -2.580085744710    -0.698825099004     0.003880990062    12.000000000000
         C            1.519304255290    -0.023393099004     0.003158990062    12.000000000000
         H           -0.770583744710    -2.520118099004    -0.006592009938     1.007825032230
         H            1.737008255290    -2.223165099004    -0.028027009938     1.007825032230
         H           -2.881847744710    -1.258644099004     0.892572990062     1.007825032230
         H           -2.876741744710    -1.245388099004    -0.894699009938     1.007825032230
         H           -3.044662744710     0.284001900996     0.010313990062     1.007825032230
         H            3.484367255290    -0.474421099004     0.350137990062     1.007825032230
         H            3.127027255290     1.177423900996     0.120949990062     1.007825032230

  Basis Set: AUG-CC-PVTZ
    Blend: AUG-CC-PVTZ
  Basis Set: (AUG-CC-PVTZ AUX)
    Blend: AUG-CC-PVTZ-JKFIT
	 Reference Energy          =    -431.7846034924403966 [Eh]
	 Singles Energy            =      -0.0000000000000000 [Eh]
	 Same-Spin Energy          =      -0.4518250851814016 [Eh]
	 Opposite-Spin Energy      =      -1.3742928238967216 [Eh]
	 Correlation Energy        =      -1.8261179090781232 [Eh]
	 Total Energy              =    -433.6107214015185036 [Eh]

	 ================> DF-SCS-MP2 Energies <==================
	-----------------------------------------------------------
	 SCS Same-Spin Scale       =       0.3333333333333333 [-]
	 SCS Opposite-Spin Scale   =       1.2000000000000000 [-]
	 SCS Same-Spin Energy      =      -0.1506083617271338 [Eh]
	 SCS Opposite-Spin Energy  =      -1.6491513886760658 [Eh]
	 SCS Correlation Energy    =      -1.7997597504031997 [Eh]
	 SCS Total Energy          =    -433.5843632428436081 [Eh]
	-----------------------------------------------------------

  Dipole Moment: [D]
     X:     1.3566      Y:    -5.7379      Z:     0.8292     Total:     5.9541

*** Psi4 exiting successfully. Buy a developer a beer!
