                               Psi4 1.4a3.dev225

  ==> Input File <==

--------------------------------------------------------------------------
#psi4
#
memory 32 gb

molecule  {
0 1
  O       -1.4602810    -1.8042760    -0.0008590
  N       -1.1067000     0.4494610     0.0014260
  N        0.7338450    -1.0777760     0.0056990
  N        2.8872480    -0.2944040    -0.0665390
  C       -0.2576190     1.5082170    -0.0002850
  C        1.0914800     1.3228940    -0.0047970
  C       -0.6316600    -0.8954310    -0.0014820
  C       -2.5563510     0.6193970     0.0049040
  C        1.5527333    -0.0189324    -0.0001463
  H       -0.7147670     2.4940890    -0.0022110
  H        1.7746080     2.1637920    -0.0246520
  H       -2.7835150     1.6863950     0.0041520
  H       -2.9802500     0.1433220     0.8903410
  H       -2.9840040     0.1411790    -0.8774920
  H        3.5206970     0.4000120     0.3068300
  H        3.1306380    -1.2574880     0.1361150
units angstrom
no_reorient  #important for SAPT in psi4, default
symmetry c1  #important for SAPT in psi4, default
}

set PROPERTIES_ORIGIN ["COM"]
properties('MP2/aug-cc-pvtz', properties = ['dipole'])
--------------------------------------------------------------------------

    Molecular point group: c1
  Charge       = 0
  Multiplicity = 1
  Basis Set: AUG-CC-PVTZ
    Blend: AUG-CC-PVTZ
  Basis Set: (AUG-CC-PVTZ AUX)
    Blend: AUG-CC-PVTZ-JKFIT

    Orbital Energies [Eh]
    ---------------------

    Doubly Occupied:

       1A    -20.500641     2A    -15.626629     3A    -15.593700
       4A    -15.541199     5A    -11.367015     6A    -11.350195
       7A    -11.329893     8A    -11.273465     9A    -11.243115
      10A     -1.381208    11A     -1.294552    12A     -1.268649
      13A     -1.168060    14A     -1.073858    15A     -0.965545
      16A     -0.899848    17A     -0.853758    18A     -0.760294
      19A     -0.726122    20A     -0.686334    21A     -0.674163
      22A     -0.654624    23A     -0.623848    24A     -0.602391
      25A     -0.588313    26A     -0.575613    27A     -0.566219
      28A     -0.517929    29A     -0.479872    30A     -0.440018
      31A     -0.416867    32A     -0.382404    33A     -0.337432

  @DF-RHF Final Energy:  -431.80194669491948

   => Energetics <=

    Nuclear Repulsion Energy =            441.4263326856268463
    One-Electron Energy =               -1462.9290099508286858
    Two-Electron Energy =                 589.7007305702823032
    Total Energy =                       -431.8019466949194793
  Basis Set: (AUG-CC-PVTZ AUX)
    Blend: AUG-CC-PVTZ-RI
    Molecular point group: c1

    Geometry (in Angstrom), charge = 0, multiplicity = 1:

       Center              X                  Y                   Z               Mass
    ------------   -----------------  -----------------  -----------------  -----------------
         O           -1.469800166194    -1.760057270491     0.002586751892    15.994914619570
         N           -1.116219166194     0.493679729509     0.004871751892    14.003074004430
         N            0.724325833806    -1.033557270491     0.009144751892    14.003074004430
         N            2.877728833806    -0.250185270491    -0.063093248108    14.003074004430
         C           -0.267138166194     1.552435729509     0.003160751892    12.000000000000
         C            1.081960833806     1.367112729509    -0.001351248108    12.000000000000
         C           -0.641179166194    -0.851212270491     0.001963751892    12.000000000000
         C           -2.565870166194     0.663615729509     0.008349751892    12.000000000000
         C            1.543214133806     0.025286329509     0.003299451892    12.000000000000
         H           -0.724286166194     2.538307729509     0.001234751892     1.007825032230
         H            1.765088833806     2.208010729509    -0.021206248108     1.007825032230
         H           -2.793034166194     1.730613729509     0.007597751892     1.007825032230
         H           -2.989769166194     0.187540729509     0.893786751892     1.007825032230
         H           -2.993523166194     0.185397729509    -0.874046248108     1.007825032230
         H            3.511177833806     0.444230729509     0.310275751892     1.007825032230
         H            3.121118833806    -1.213269270491     0.139560751892     1.007825032230

  Basis Set: AUG-CC-PVTZ
    Blend: AUG-CC-PVTZ
  Basis Set: (AUG-CC-PVTZ AUX)
    Blend: AUG-CC-PVTZ-JKFIT
	 Reference Energy          =    -431.8019466949194793 [Eh]
	 Singles Energy            =      -0.0000000000000000 [Eh]
	 Same-Spin Energy          =      -0.4507602900930745 [Eh]
	 Opposite-Spin Energy      =      -1.3722890706722306 [Eh]
	 Correlation Energy        =      -1.8230493607653051 [Eh]
	 Total Energy              =    -433.6249960556847896 [Eh]

	 ================> DF-SCS-MP2 Energies <==================
	-----------------------------------------------------------
	 SCS Same-Spin Scale       =       0.3333333333333333 [-]
	 SCS Opposite-Spin Scale   =       1.2000000000000000 [-]
	 SCS Same-Spin Energy      =      -0.1502534300310248 [Eh]
	 SCS Opposite-Spin Energy  =      -1.6467468848066766 [Eh]
	 SCS Correlation Energy    =      -1.7970003148377014 [Eh]
	 SCS Total Energy          =    -433.5989470097571825 [Eh]
	-----------------------------------------------------------

  Dipole Moment: [D]
     X:     1.8930      Y:     5.6798      Z:     0.7654     Total:     6.0357

*** Psi4 exiting successfully. Buy a developer a beer!
