                               Psi4 1.3.2 release

  ==> Input File <==

--------------------------------------------------------------------------
#psi4
#
memory 32 gb

molecule  {
0 1
  O       -1.4243350     1.8531120    -0.0084660
  N       -1.1176450    -0.4263010     0.0065070
  N        0.7338396     1.0643115     0.0102268
  N        2.8939740     0.2497234    -0.0757417
  C       -0.2733660    -1.4960510    -0.0007800
  C        1.0765330    -1.3300920    -0.0040440
  C       -0.6338910     0.9109410     0.0155220
  C       -2.5617390    -0.6507120     0.0005160
  C        1.5376510     0.0247200    -0.0002060
  H       -0.7522370    -2.4720050    -0.0099570
  H        1.7553550    -2.1750520    -0.0313920
  H       -2.8635010    -1.2105310     0.8892080
  H       -2.8583950    -1.1972750    -0.8980640
  H       -3.0263160     0.3321150     0.0069490
  H        3.5027140    -0.4263080     0.3467730
  H        3.1453740     1.2255370     0.1175850
units angstrom
no_reorient  #important for SAPT in psi4, default
symmetry c1  #important for SAPT in psi4, default
}

set PROPERTIES_ORIGIN ["COM"]
properties('MP2/aug-cc-pvtz', properties = ['dipole'])
--------------------------------------------------------------------------

    Molecular point group: c1
  Charge       = 0
  Multiplicity = 1
  Basis Set: AUG-CC-PVTZ
    Blend: AUG-CC-PVTZ
  Basis Set: (AUG-CC-PVTZ AUX)
    Blend: AUG-CC-PVTZ-JKFIT

    Orbital Energies [Eh]
    ---------------------

    Doubly Occupied:

       1A    -20.502604     2A    -15.624819     3A    -15.592651
       4A    -15.542819     5A    -11.371372     6A    -11.350277
       7A    -11.326776     8A    -11.270021     9A    -11.245373
      10A     -1.382712    11A     -1.296006    12A     -1.267194
      13A     -1.173181    14A     -1.072418    15A     -0.965326
      16A     -0.898667    17A     -0.856068    18A     -0.758908
      19A     -0.724401    20A     -0.687829    21A     -0.673825
      22A     -0.655451    23A     -0.621019    24A     -0.600946
      25A     -0.592782    26A     -0.580353    27A     -0.558710
      28A     -0.522035    29A     -0.476052    30A     -0.439299
      31A     -0.419601    32A     -0.388558    33A     -0.338772

  @DF-RHF Final Energy:  -431.80097729830055

   => Energetics <=

    Nuclear Repulsion Energy =            441.1481307045779658
    One-Electron Energy =               -1462.3445667088608388
    Two-Electron Energy =                 589.3954587059822643
    Total Energy =                       -431.8009772983006087
  Basis Set: (AUG-CC-PVTZ AUX)
    Blend: AUG-CC-PVTZ-RI
    Molecular point group: c1

    Geometry (in Angstrom), charge = 0, multiplicity = 1:

       Center              X                  Y                   Z               Mass
    ------------   -----------------  -----------------  -----------------  -----------------
         O           -1.432368220764     1.808275747165    -0.005225832666    15.994914619570
         N           -1.125678220764    -0.471137252835     0.009747167334    14.003074004430
         N            0.725806379236     1.019475247165     0.013466967334    14.003074004430
         N            2.885940779236     0.204887147165    -0.072501532666    14.003074004430
         C           -0.281399220764    -1.540887252835     0.002460167334    12.000000000000
         C            1.068499779236    -1.374928252835    -0.000803832666    12.000000000000
         C           -0.641924220764     0.866104747165     0.018762167334    12.000000000000
         C           -2.569772220764    -0.695548252835     0.003756167334    12.000000000000
         C            1.529617779236    -0.020116252835     0.003034167334    12.000000000000
         H           -0.760270220764    -2.516841252835    -0.006716832666     1.007825032230
         H            1.747321779236    -2.219888252835    -0.028151832666     1.007825032230
         H           -2.871534220764    -1.255367252835     0.892448167334     1.007825032230
         H           -2.866428220764    -1.242111252835    -0.894823832666     1.007825032230
         H           -3.034349220764     0.287278747165     0.010189167334     1.007825032230
         H            3.494680779236    -0.471144252835     0.350013167334     1.007825032230
         H            3.137340779236     1.180700747165     0.120825167334     1.007825032230

  Basis Set: AUG-CC-PVTZ
    Blend: AUG-CC-PVTZ
  Basis Set: (AUG-CC-PVTZ AUX)
    Blend: AUG-CC-PVTZ-JKFIT
	 Reference Energy          =    -431.8009772983005519 [Eh]
	 Singles Energy            =      -0.0000000000000000 [Eh]
	 Same-Spin Energy          =      -0.4504499625807112 [Eh]
	 Opposite-Spin Energy      =      -1.3720293770419352 [Eh]
	 Correlation Energy        =      -1.8224793396226464 [Eh]
	 Total Energy              =    -433.6234566379231978 [Eh]

	 ================> DF-SCS-MP2 Energies <==================
	-----------------------------------------------------------
	 SCS Same-Spin Scale       =       0.3333333333333333 [-]
	 SCS Opposite-Spin Scale   =       1.2000000000000000 [-]
	 SCS Same-Spin Energy      =      -0.1501499875269037 [Eh]
	 SCS Opposite-Spin Energy  =      -1.6464352524503221 [Eh]
	 SCS Correlation Energy    =      -1.7965852399772257 [Eh]
	 SCS Total Energy          =    -433.5975625382777707 [Eh]
	-----------------------------------------------------------

  Dipole Moment: [D]
     X:     1.7538      Y:    -5.6188      Z:     0.8331     Total:     5.9448

*** Psi4 exiting successfully. Buy a developer a beer!
