                               Psi4 1.3.2 release

  ==> Input File <==

--------------------------------------------------------------------------
#psi4
#
memory 32 gb

molecule  {
0 1
  O       -1.4243350     1.8531120    -0.0084660
  N       -1.1176450    -0.4263010     0.0065070
  N        0.7429240     1.0712790     0.0095610
  N        2.8919430     0.2615640    -0.0759850
  C       -0.3305107    -1.5387701    -0.0010654
  C        1.0765330    -1.3300920    -0.0040440
  C       -0.7045414     0.9344255     0.0156852
  C       -2.5617390    -0.6507120     0.0005160
  C        1.5376510     0.0247200    -0.0002060
  H       -0.7522370    -2.4720050    -0.0099570
  H        1.7553550    -2.1750520    -0.0313920
  H       -2.8635010    -1.2105310     0.8892080
  H       -2.8583950    -1.1972750    -0.8980640
  H       -3.0263160     0.3321150     0.0069490
  H        3.5027140    -0.4263080     0.3467730
  H        3.1453740     1.2255370     0.1175850
units angstrom
no_reorient  #important for SAPT in psi4, default
symmetry c1  #important for SAPT in psi4, default
}

set PROPERTIES_ORIGIN ["COM"]
properties('MP2/aug-cc-pvtz', properties = ['dipole'])
--------------------------------------------------------------------------

    Molecular point group: c1
  Charge       = 0
  Multiplicity = 1
  Basis Set: AUG-CC-PVTZ
    Blend: AUG-CC-PVTZ
  Basis Set: (AUG-CC-PVTZ AUX)
    Blend: AUG-CC-PVTZ-JKFIT

    Orbital Energies [Eh]
    ---------------------

    Doubly Occupied:

       1A    -20.523114     2A    -15.625708     3A    -15.582893
       4A    -15.537064     5A    -11.376098     6A    -11.338504
       7A    -11.329523     8A    -11.270238     9A    -11.247167
      10A     -1.422319    11A     -1.302426    12A     -1.262347
      13A     -1.152091    14A     -1.057355    15A     -0.961133
      16A     -0.908716    17A     -0.837653    18A     -0.753535
      19A     -0.727464    20A     -0.680766    21A     -0.677594
      22A     -0.658127    23A     -0.639900    24A     -0.609161
      25A     -0.585095    26A     -0.579005    27A     -0.557361
      28A     -0.532772    29A     -0.478973    30A     -0.458759
      31A     -0.407904    32A     -0.380298    33A     -0.329619

  @DF-RHF Final Energy:  -431.78321825454310

   => Energetics <=

    Nuclear Repulsion Energy =            439.7940783365688162
    One-Electron Energy =               -1459.5732314205861258
    Two-Electron Energy =                 587.9959348294742085
    Total Energy =                       -431.7832182545430442
  Basis Set: (AUG-CC-PVTZ AUX)
    Blend: AUG-CC-PVTZ-RI
    Molecular point group: c1

    Geometry (in Angstrom), charge = 0, multiplicity = 1:

       Center              X                  Y                   Z               Mass
    ------------   -----------------  -----------------  -----------------  -----------------
         O           -1.420895452478     1.808015421726    -0.005112313411    15.994914619570
         N           -1.114205452478    -0.471397578274     0.009860686589    14.003074004430
         N            0.746363547522     1.026182421726     0.012914686589    14.003074004430
         N            2.895382547522     0.216467421726    -0.072631313411    14.003074004430
         C           -0.327071152478    -1.583866678274     0.002288286589    12.000000000000
         C            1.079972547522    -1.375188578274    -0.000690313411    12.000000000000
         C           -0.701101852478     0.889328921726     0.019038886589    12.000000000000
         C           -2.558299452478    -0.695808578274     0.003869686589    12.000000000000
         C            1.541090547522    -0.020376578274     0.003147686589    12.000000000000
         H           -0.748797452478    -2.517101578274    -0.006603313411     1.007825032230
         H            1.758794547522    -2.220148578274    -0.028038313411     1.007825032230
         H           -2.860061452478    -1.255627578274     0.892561686589     1.007825032230
         H           -2.854955452478    -1.242371578274    -0.894710313411     1.007825032230
         H           -3.022876452478     0.287018421726     0.010302686589     1.007825032230
         H            3.506153547522    -0.471404578274     0.350126686589     1.007825032230
         H            3.148813547522     1.180440421726     0.120938686589     1.007825032230

  Basis Set: AUG-CC-PVTZ
    Blend: AUG-CC-PVTZ
  Basis Set: (AUG-CC-PVTZ AUX)
    Blend: AUG-CC-PVTZ-JKFIT
	 Reference Energy          =    -431.7832182545431010 [Eh]
	 Singles Energy            =      -0.0000000000000000 [Eh]
	 Same-Spin Energy          =      -0.4503671743823391 [Eh]
	 Opposite-Spin Energy      =      -1.3732383879419932 [Eh]
	 Correlation Energy        =      -1.8236055623243321 [Eh]
	 Total Energy              =    -433.6068238168674611 [Eh]

	 ================> DF-SCS-MP2 Energies <==================
	-----------------------------------------------------------
	 SCS Same-Spin Scale       =       0.3333333333333333 [-]
	 SCS Opposite-Spin Scale   =       1.2000000000000000 [-]
	 SCS Same-Spin Energy      =      -0.1501223914607797 [Eh]
	 SCS Opposite-Spin Energy  =      -1.6478860655303917 [Eh]
	 SCS Correlation Energy    =      -1.7980084569911714 [Eh]
	 SCS Total Energy          =    -433.5812267115342706 [Eh]
	-----------------------------------------------------------

  Dipole Moment: [D]
     X:     1.0187      Y:    -5.2038      Z:     0.8346     Total:     5.3679

*** Psi4 exiting successfully. Buy a developer a beer!
