                               Psi4 1.3.2 release

  ==> Input File <==

--------------------------------------------------------------------------
#psi4
#
memory 32 gb

molecule  {
0 1
  O       -1.4243350     1.8531120    -0.0084660
  N       -1.1176450    -0.4263010     0.0065070
  N        0.7429240     1.0712790     0.0095610
  N        2.8919430     0.2615640    -0.0759850
  C       -0.2733660    -1.4960510    -0.0007800
  C        1.0765330    -1.3300920    -0.0040440
  C       -0.6324397     0.8989324     0.0154481
  C       -2.5617390    -0.6507120     0.0005160
  C        1.5284877     0.0178244    -0.0001987
  H       -0.7522370    -2.4720050    -0.0099570
  H        1.7553550    -2.1750520    -0.0313920
  H       -2.8635010    -1.2105310     0.8892080
  H       -2.8583950    -1.1972750    -0.8980640
  H       -3.0263160     0.3321150     0.0069490
  H        3.5027140    -0.4263080     0.3467730
  H        3.1453740     1.2255370     0.1175850
units angstrom
no_reorient  #important for SAPT in psi4, default
symmetry c1  #important for SAPT in psi4, default
}

set PROPERTIES_ORIGIN ["COM"]
properties('MP2/aug-cc-pvtz', properties = ['dipole'])
--------------------------------------------------------------------------

    Molecular point group: c1
  Charge       = 0
  Multiplicity = 1
  Basis Set: AUG-CC-PVTZ
    Blend: AUG-CC-PVTZ
  Basis Set: (AUG-CC-PVTZ AUX)
    Blend: AUG-CC-PVTZ-JKFIT

    Orbital Energies [Eh]
    ---------------------

    Doubly Occupied:

       1A    -20.500910     2A    -15.628255     3A    -15.590171
       4A    -15.545242     5A    -11.371791     6A    -11.349050
       7A    -11.329238     8A    -11.271834     9A    -11.247244
      10A     -1.379699    11A     -1.293823    12A     -1.267028
      13A     -1.169794    14A     -1.075690    15A     -0.967743
      16A     -0.903501    17A     -0.852991    18A     -0.759447
      19A     -0.724334    20A     -0.684500    21A     -0.673780
      22A     -0.657465    23A     -0.622085    24A     -0.602409
      25A     -0.591206    26A     -0.579602    27A     -0.559433
      28A     -0.519388    29A     -0.475407    30A     -0.440037
      31A     -0.421069    32A     -0.388284    33A     -0.340132

  @DF-RHF Final Energy:  -431.79977409232663

   => Energetics <=

    Nuclear Repulsion Energy =            441.0684809661714780
    One-Electron Energy =               -1462.1713467230090373
    Two-Electron Energy =                 589.3030916645109301
    Total Energy =                       -431.7997740923266292
  Basis Set: (AUG-CC-PVTZ AUX)
    Blend: AUG-CC-PVTZ-RI
    Molecular point group: c1

    Geometry (in Angstrom), charge = 0, multiplicity = 1:

       Center              X                  Y                   Z               Mass
    ------------   -----------------  -----------------  -----------------  -----------------
         O           -1.432417999561     1.807983718267    -0.005117648496    15.994914619570
         N           -1.125727999561    -0.471429281733     0.009855351504    14.003074004430
         N            0.734841000439     1.026150718267     0.012909351504    14.003074004430
         N            2.883860000439     0.216435718267    -0.072636648496    14.003074004430
         C           -0.281448999561    -1.541179281733     0.002568351504    12.000000000000
         C            1.068450000439    -1.375220281733    -0.000695648496    12.000000000000
         C           -0.640522699561     0.853804118267     0.018796451504    12.000000000000
         C           -2.569821999561    -0.695840281733     0.003864351504    12.000000000000
         C            1.520404700439    -0.027303881733     0.003149651504    12.000000000000
         H           -0.760319999561    -2.517133281733    -0.006608648496     1.007825032230
         H            1.747272000439    -2.220180281733    -0.028043648496     1.007825032230
         H           -2.871583999561    -1.255659281733     0.892556351504     1.007825032230
         H           -2.866477999561    -1.242403281733    -0.894715648496     1.007825032230
         H           -3.034398999561     0.286986718267     0.010297351504     1.007825032230
         H            3.494631000439    -0.471436281733     0.350121351504     1.007825032230
         H            3.137291000439     1.180408718267     0.120933351504     1.007825032230

  Basis Set: AUG-CC-PVTZ
    Blend: AUG-CC-PVTZ
  Basis Set: (AUG-CC-PVTZ AUX)
    Blend: AUG-CC-PVTZ-JKFIT
	 Reference Energy          =    -431.7997740923266292 [Eh]
	 Singles Energy            =      -0.0000000000000000 [Eh]
	 Same-Spin Energy          =      -0.4506320549554839 [Eh]
	 Opposite-Spin Energy      =      -1.3726196762423108 [Eh]
	 Correlation Energy        =      -1.8232517311977947 [Eh]
	 Total Energy              =    -433.6230258235244150 [Eh]

	 ================> DF-SCS-MP2 Energies <==================
	-----------------------------------------------------------
	 SCS Same-Spin Scale       =       0.3333333333333333 [-]
	 SCS Opposite-Spin Scale   =       1.2000000000000000 [-]
	 SCS Same-Spin Energy      =      -0.1502106849851613 [Eh]
	 SCS Opposite-Spin Energy  =      -1.6471436114907729 [Eh]
	 SCS Correlation Energy    =      -1.7973542964759341 [Eh]
	 SCS Total Energy          =    -433.5971283888025596 [Eh]
	-----------------------------------------------------------

  Dipole Moment: [D]
     X:     1.6485      Y:    -5.7716      Z:     0.8348     Total:     6.0602

*** Psi4 exiting successfully. Buy a developer a beer!
