                               Psi4 1.3.2 release

  ==> Input File <==

--------------------------------------------------------------------------
#psi4
#
memory 32 gb

molecule  {
0 1
  O       -1.4243350     1.8531120    -0.0084660
  N       -1.1176450    -0.4263010     0.0065070
  N        0.7429240     1.0712790     0.0095610
  N        2.8919430     0.2615640    -0.0759850
  C       -0.2733660    -1.4960510    -0.0007800
  C        1.0765330    -1.3300920    -0.0040440
  C       -0.6236146     0.8391043     0.0150719
  C       -2.5617390    -0.6507120     0.0005160
  C        1.4817879    -0.0154399    -0.0001510
  H       -0.7522370    -2.4720050    -0.0099570
  H        1.7553550    -2.1750520    -0.0313920
  H       -2.8635010    -1.2105310     0.8892080
  H       -2.8583950    -1.1972750    -0.8980640
  H       -3.0263160     0.3321150     0.0069490
  H        3.5027140    -0.4263080     0.3467730
  H        3.1453740     1.2255370     0.1175850
units angstrom
no_reorient  #important for SAPT in psi4, default
symmetry c1  #important for SAPT in psi4, default
}

set PROPERTIES_ORIGIN ["COM"]
properties('MP2/aug-cc-pvtz', properties = ['dipole'])
--------------------------------------------------------------------------

    Molecular point group: c1
  Charge       = 0
  Multiplicity = 1
  Basis Set: AUG-CC-PVTZ
    Blend: AUG-CC-PVTZ
  Basis Set: (AUG-CC-PVTZ AUX)
    Blend: AUG-CC-PVTZ-JKFIT

    Orbital Energies [Eh]
    ---------------------

    Doubly Occupied:

       1A    -20.487637     2A    -15.641807     3A    -15.583423
       4A    -15.554344     5A    -11.369412     6A    -11.348385
       7A    -11.339180     8A    -11.278527     9A    -11.253474
      10A     -1.378348    11A     -1.275489    12A     -1.265839
      13A     -1.163306    14A     -1.090642    15A     -0.980435
      16A     -0.924253    17A     -0.849911    18A     -0.763502
      19A     -0.730698    20A     -0.681107    21A     -0.670228
      22A     -0.664222    23A     -0.630841    24A     -0.604730
      25A     -0.584048    26A     -0.579799    27A     -0.551870
      28A     -0.510599    29A     -0.468704    30A     -0.449480
      31A     -0.413138    32A     -0.391046    33A     -0.343603

  @DF-RHF Final Energy:  -431.78162165756856

   => Energetics <=

    Nuclear Repulsion Energy =            441.9132771905791515
    One-Electron Energy =               -1463.7457416780084714
    Two-Electron Energy =                 590.0508428298608123
    Total Energy =                       -431.7816216575685075
  Basis Set: (AUG-CC-PVTZ AUX)
    Blend: AUG-CC-PVTZ-RI
    Molecular point group: c1

    Geometry (in Angstrom), charge = 0, multiplicity = 1:

       Center              X                  Y                   Z               Mass
    ------------   -----------------  -----------------  -----------------  -----------------
         O           -1.428783741168     1.816916378750    -0.005086127352    15.994914619570
         N           -1.122093741168    -0.462496621250     0.009886872648    14.003074004430
         N            0.738475258832     1.035083378750     0.012940872648    14.003074004430
         N            2.887494258832     0.225368378750    -0.072605127352    14.003074004430
         C           -0.277814741168    -1.532246621250     0.002599872648    12.000000000000
         C            1.072084258832    -1.366287621250    -0.000664127352    12.000000000000
         C           -0.628063341168     0.802908678750     0.018451772648    12.000000000000
         C           -2.566187741168    -0.686907621250     0.003895872648    12.000000000000
         C            1.477339158832    -0.051635521250     0.003228872648    12.000000000000
         H           -0.756685741168    -2.508200621250    -0.006577127352     1.007825032230
         H            1.750906258832    -2.211247621250    -0.028012127352     1.007825032230
         H           -2.867949741168    -1.246726621250     0.892587872648     1.007825032230
         H           -2.862843741168    -1.233470621250    -0.894684127352     1.007825032230
         H           -3.030764741168     0.295919378750     0.010328872648     1.007825032230
         H            3.498265258832    -0.462503621250     0.350152872648     1.007825032230
         H            3.140925258832     1.189341378750     0.120964872648     1.007825032230

  Basis Set: AUG-CC-PVTZ
    Blend: AUG-CC-PVTZ
  Basis Set: (AUG-CC-PVTZ AUX)
    Blend: AUG-CC-PVTZ-JKFIT
	 Reference Energy          =    -431.7816216575685644 [Eh]
	 Singles Energy            =      -0.0000000000000000 [Eh]
	 Same-Spin Energy          =      -0.4521223899727211 [Eh]
	 Opposite-Spin Energy      =      -1.3754210270539218 [Eh]
	 Correlation Energy        =      -1.8275434170266429 [Eh]
	 Total Energy              =    -433.6091650745951824 [Eh]

	 ================> DF-SCS-MP2 Energies <==================
	-----------------------------------------------------------
	 SCS Same-Spin Scale       =       0.3333333333333333 [-]
	 SCS Opposite-Spin Scale   =       1.2000000000000000 [-]
	 SCS Same-Spin Energy      =      -0.1507074633242404 [Eh]
	 SCS Opposite-Spin Energy  =      -1.6505052324647060 [Eh]
	 SCS Correlation Energy    =      -1.8012126957889465 [Eh]
	 SCS Total Energy          =    -433.5828343533574980 [Eh]
	-----------------------------------------------------------

  Dipole Moment: [D]
     X:     1.3888      Y:    -6.4383      Z:     0.8461     Total:     6.6405

*** Psi4 exiting successfully. Buy a developer a beer!
