                               Psi4 1.3.2 release

  ==> Input File <==

--------------------------------------------------------------------------
#psi4
#
memory 32 gb

molecule  {
0 1
  O       -1.4243350     1.8531120    -0.0084660
  N       -1.1176450    -0.4263010     0.0065070
  N        0.7429240     1.0712790     0.0095610
  N        2.8919430     0.2615640    -0.0759850
  C       -0.2733660    -1.4960510    -0.0007800
  C        1.0765330    -1.3300920    -0.0040440
  C       -0.6338910     0.9109410     0.0155220
  C       -2.5617390    -0.6507120     0.0005160
  C        1.6360067     0.0419208    -0.0057095
  H       -0.7522370    -2.4720050    -0.0099570
  H        1.7553550    -2.1750520    -0.0313920
  H       -2.8635010    -1.2105310     0.8892080
  H       -2.8583950    -1.1972750    -0.8980640
  H       -3.0263160     0.3321150     0.0069490
  H        3.5027140    -0.4263080     0.3467730
  H        3.1453740     1.2255370     0.1175850
units angstrom
no_reorient  #important for SAPT in psi4, default
symmetry c1  #important for SAPT in psi4, default
}

set PROPERTIES_ORIGIN ["COM"]
properties('MP2/aug-cc-pvtz', properties = ['dipole'])
--------------------------------------------------------------------------

    Molecular point group: c1
  Charge       = 0
  Multiplicity = 1
  Basis Set: AUG-CC-PVTZ
    Blend: AUG-CC-PVTZ
  Basis Set: (AUG-CC-PVTZ AUX)
    Blend: AUG-CC-PVTZ-JKFIT

    Orbital Energies [Eh]
    ---------------------

    Doubly Occupied:

       1A    -20.496336     2A    -15.616739     3A    -15.610451
       4A    -15.534623     5A    -11.366165     6A    -11.354521
       7A    -11.321844     8A    -11.265007     9A    -11.246311
      10A     -1.374059    11A     -1.316373    12A     -1.274381
      13A     -1.164234    14A     -1.060957    15A     -0.959225
      16A     -0.891501    17A     -0.857751    18A     -0.769718
      19A     -0.737796    20A     -0.692979    21A     -0.676654
      22A     -0.648929    23A     -0.615740    24A     -0.599785
      25A     -0.589244    26A     -0.577105    27A     -0.554309
      28A     -0.533822    29A     -0.471360    30A     -0.427932
      31A     -0.406271    32A     -0.377886    33A     -0.332970

  @DF-RHF Final Energy:  -431.78606902514701

   => Energetics <=

    Nuclear Repulsion Energy =            440.0689961438061459
    One-Electron Energy =               -1460.2641701339273368
    Two-Electron Energy =                 588.4091049649742899
    Total Energy =                       -431.7860690251469578
  Basis Set: (AUG-CC-PVTZ AUX)
    Blend: AUG-CC-PVTZ-RI
    Molecular point group: c1

    Geometry (in Angstrom), charge = 0, multiplicity = 1:

       Center              X                  Y                   Z               Mass
    ------------   -----------------  -----------------  -----------------  -----------------
         O           -1.442595702062     1.804519271043    -0.004595951969    15.994914619570
         N           -1.135905702062    -0.474893728957     0.010377048031    14.003074004430
         N            0.724663297938     1.022686271043     0.013431048031    14.003074004430
         N            2.873682297938     0.212971271043    -0.072114951969    14.003074004430
         C           -0.291626702062    -1.544643728957     0.003090048031    12.000000000000
         C            1.058272297938    -1.378684728957    -0.000173951969    12.000000000000
         C           -0.652151702062     0.862348271043     0.019392048031    12.000000000000
         C           -2.579999702062    -0.699304728957     0.004386048031    12.000000000000
         C            1.617745997938    -0.006671928957    -0.001839451969    12.000000000000
         H           -0.770497702062    -2.520597728957    -0.006086951969     1.007825032230
         H            1.737094297938    -2.223644728957    -0.027521951969     1.007825032230
         H           -2.881761702062    -1.259123728957     0.893078048031     1.007825032230
         H           -2.876655702062    -1.245867728957    -0.894193951969     1.007825032230
         H           -3.044576702062     0.283522271043     0.010819048031     1.007825032230
         H            3.484453297938    -0.474900728957     0.350643048031     1.007825032230
         H            3.127113297938     1.176944271043     0.121455048031     1.007825032230

  Basis Set: AUG-CC-PVTZ
    Blend: AUG-CC-PVTZ
  Basis Set: (AUG-CC-PVTZ AUX)
    Blend: AUG-CC-PVTZ-JKFIT
	 Reference Energy          =    -431.7860690251470146 [Eh]
	 Singles Energy            =      -0.0000000000000000 [Eh]
	 Same-Spin Energy          =      -0.4506452795706958 [Eh]
	 Opposite-Spin Energy      =      -1.3723686128815404 [Eh]
	 Correlation Energy        =      -1.8230138924522361 [Eh]
	 Total Energy              =    -433.6090829175992667 [Eh]

	 ================> DF-SCS-MP2 Energies <==================
	-----------------------------------------------------------
	 SCS Same-Spin Scale       =       0.3333333333333333 [-]
	 SCS Opposite-Spin Scale   =       1.2000000000000000 [-]
	 SCS Same-Spin Energy      =      -0.1502150931902319 [Eh]
	 SCS Opposite-Spin Energy  =      -1.6468423354578485 [Eh]
	 SCS Correlation Energy    =      -1.7970574286480805 [Eh]
	 SCS Total Energy          =    -433.5831264537951029 [Eh]
	-----------------------------------------------------------

  Dipole Moment: [D]
     X:     2.7170      Y:    -5.5431      Z:     0.7987     Total:     6.2246

*** Psi4 exiting successfully. Buy a developer a beer!
