                               Psi4 1.3.2 release

  ==> Input File <==

--------------------------------------------------------------------------
#psi4
#
memory 32 gb

molecule  {
0 1
  O       -1.4243350     1.8531120    -0.0084660
  N       -1.1160170    -0.4388185     0.0286711
  N        0.7429240     1.0712790     0.0095610
  N        2.8919430     0.2615640    -0.0759850
  C       -0.2733660    -1.4960510    -0.0007800
  C        1.0765330    -1.3300920    -0.0040440
  C       -0.6338910     0.9109410     0.0155220
  C       -2.5617390    -0.6507120     0.0005160
  C        1.5376510     0.0247200    -0.0002060
  H       -0.7522370    -2.4720050    -0.0099570
  H        1.7553550    -2.1750520    -0.0313920
  H       -2.8453074    -1.2109505     0.8949168
  H       -2.8583950    -1.1972750    -0.8980640
  H       -3.0263160     0.3321150     0.0069490
  H        3.5027140    -0.4263080     0.3467730
  H        3.1453740     1.2255370     0.1175850
units angstrom
no_reorient  #important for SAPT in psi4, default
symmetry c1  #important for SAPT in psi4, default
}

set PROPERTIES_ORIGIN ["COM"]
properties('MP2/aug-cc-pvtz', properties = ['dipole'])
--------------------------------------------------------------------------

    Molecular point group: c1
  Charge       = 0
  Multiplicity = 1
  Basis Set: AUG-CC-PVTZ
    Blend: AUG-CC-PVTZ
  Basis Set: (AUG-CC-PVTZ AUX)
    Blend: AUG-CC-PVTZ-JKFIT

    Orbital Energies [Eh]
    ---------------------

    Doubly Occupied:

       1A    -20.505590     2A    -15.625512     3A    -15.591077
       4A    -15.543397     5A    -11.373782     6A    -11.348831
       7A    -11.326211     8A    -11.270921     9A    -11.244334
      10A     -1.382650    11A     -1.297201    12A     -1.268389
      13A     -1.170671    14A     -1.072032    15A     -0.965212
      16A     -0.898239    17A     -0.854199    18A     -0.758716
      19A     -0.723666    20A     -0.685323    21A     -0.673378
      22A     -0.656155    23A     -0.622293    24A     -0.600552
      25A     -0.592652    26A     -0.579757    27A     -0.561420
      28A     -0.521569    29A     -0.478301    30A     -0.441590
      31A     -0.419658    32A     -0.387614    33A     -0.337915

  @DF-RHF Final Energy:  -431.80064002194138

   => Energetics <=

    Nuclear Repulsion Energy =            440.8856425162811092
    One-Electron Energy =               -1461.8149564374596139
    Two-Electron Energy =                 589.1286738992371284
    Total Energy =                       -431.8006400219413763
  Basis Set: (AUG-CC-PVTZ AUX)
    Blend: AUG-CC-PVTZ-RI
    Molecular point group: c1

    Geometry (in Angstrom), charge = 0, multiplicity = 1:

       Center              X                  Y                   Z               Mass
    ------------   -----------------  -----------------  -----------------  -----------------
         O           -1.433486911548     1.807574757900    -0.007651799796    15.994914619570
         N           -1.125168911548    -0.484355742100     0.029485300204    14.003074004430
         N            0.733772088452     1.025741757900     0.010375200204    14.003074004430
         N            2.882791088452     0.216026757900    -0.075170799796    14.003074004430
         C           -0.282517911548    -1.541588242100     0.000034200204    12.000000000000
         C            1.067381088452    -1.375629242100    -0.003229799796    12.000000000000
         C           -0.643042911548     0.865403757900     0.016336200204    12.000000000000
         C           -2.570890911548    -0.696249242100     0.001330200204    12.000000000000
         C            1.528499088452    -0.020817242100     0.000608200204    12.000000000000
         H           -0.761388911548    -2.517542242100    -0.009142799796     1.007825032230
         H            1.746203088452    -2.220589242100    -0.030577799796     1.007825032230
         H           -2.854459311548    -1.256487742100     0.895731000204     1.007825032230
         H           -2.867546911548    -1.242812242100    -0.897249799796     1.007825032230
         H           -3.035467911548     0.286577757900     0.007763200204     1.007825032230
         H            3.493562088452    -0.471845242100     0.347587200204     1.007825032230
         H            3.136222088452     1.179999757900     0.118399200204     1.007825032230

  Basis Set: AUG-CC-PVTZ
    Blend: AUG-CC-PVTZ
  Basis Set: (AUG-CC-PVTZ AUX)
    Blend: AUG-CC-PVTZ-JKFIT
	 Reference Energy          =    -431.8006400219413763 [Eh]
	 Singles Energy            =      -0.0000000000000000 [Eh]
	 Same-Spin Energy          =      -0.4505142589300972 [Eh]
	 Opposite-Spin Energy      =      -1.3722725437605456 [Eh]
	 Correlation Energy        =      -1.8227868026906429 [Eh]
	 Total Energy              =    -433.6234268246320198 [Eh]

	 ================> DF-SCS-MP2 Energies <==================
	-----------------------------------------------------------
	 SCS Same-Spin Scale       =       0.3333333333333333 [-]
	 SCS Opposite-Spin Scale   =       1.2000000000000000 [-]
	 SCS Same-Spin Energy      =      -0.1501714196433657 [Eh]
	 SCS Opposite-Spin Energy  =      -1.6467270525126547 [Eh]
	 SCS Correlation Energy    =      -1.7968984721560204 [Eh]
	 SCS Total Energy          =    -433.5975384940974209 [Eh]
	-----------------------------------------------------------

  Dipole Moment: [D]
     X:     1.6508      Y:    -5.5769      Z:     0.8187     Total:     5.8734

*** Psi4 exiting successfully. Buy a developer a beer!
