                               Psi4 1.3.2 release

  ==> Input File <==

--------------------------------------------------------------------------
#psi4
#
memory 32 gb

molecule  {
0 1
  O       -1.4243350     1.8531120    -0.0084660
  N       -1.1176450    -0.4263010     0.0065070
  N        0.7429240     1.0712790     0.0095610
  N        2.8919430     0.2615640    -0.0759850
  C       -0.2733660    -1.4960510    -0.0007800
  C        1.0765330    -1.3300920    -0.0040440
  C       -0.6308837     0.8869368     0.0153737
  C       -2.5617390    -0.6507120     0.0005160
  C        1.5192645     0.0110090    -0.0001906
  H       -0.7522370    -2.4720050    -0.0099570
  H        1.7553550    -2.1750520    -0.0313920
  H       -2.8635010    -1.2105310     0.8892080
  H       -2.8583950    -1.1972750    -0.8980640
  H       -3.0263160     0.3321150     0.0069490
  H        3.5027140    -0.4263080     0.3467730
  H        3.1453740     1.2255370     0.1175850
units angstrom
no_reorient  #important for SAPT in psi4, default
symmetry c1  #important for SAPT in psi4, default
}

set PROPERTIES_ORIGIN ["COM"]
properties('MP2/aug-cc-pvtz', properties = ['dipole'])
--------------------------------------------------------------------------

    Molecular point group: c1
  Charge       = 0
  Multiplicity = 1
  Basis Set: AUG-CC-PVTZ
    Blend: AUG-CC-PVTZ
  Basis Set: (AUG-CC-PVTZ AUX)
    Blend: AUG-CC-PVTZ-JKFIT

    Orbital Energies [Eh]
    ---------------------

    Doubly Occupied:

       1A    -20.498249     2A    -15.631069     3A    -15.588824
       4A    -15.546968     5A    -11.371335     6A    -11.348865
       7A    -11.331249     8A    -11.273192     9A    -11.248504
      10A     -1.377728    11A     -1.291161    12A     -1.266612
      13A     -1.168765    14A     -1.078687    15A     -0.970233
      16A     -0.907647    17A     -0.852310    18A     -0.760042
      19A     -0.725203    20A     -0.683342    21A     -0.673071
      22A     -0.659454    23A     -0.623004    24A     -0.603104
      25A     -0.589396    26A     -0.579515    27A     -0.559336
      28A     -0.517147    29A     -0.474348    30A     -0.440323
      31A     -0.421195    32A     -0.388793    33A     -0.341125

  @DF-RHF Final Energy:  -431.79772565229814

   => Energetics <=

    Nuclear Repulsion Energy =            441.2250243169076498
    One-Electron Energy =               -1462.4659051401993111
    Two-Electron Energy =                 589.4431551709935775
    Total Energy =                       -431.7977256522981406
  Basis Set: (AUG-CC-PVTZ AUX)
    Blend: AUG-CC-PVTZ-RI
    Molecular point group: c1

    Geometry (in Angstrom), charge = 0, multiplicity = 1:

       Center              X                  Y                   Z               Mass
    ------------   -----------------  -----------------  -----------------  -----------------
         O           -1.431682295094     1.809788723578    -0.005111286695    15.994914619570
         N           -1.124992295094    -0.469624276422     0.009861713305    14.003074004430
         N            0.735576704906     1.027955723578     0.012915713305    14.003074004430
         N            2.884595704906     0.218240723578    -0.072630286695    14.003074004430
         C           -0.280713295094    -1.539374276422     0.002574713305    12.000000000000
         C            1.069185704906    -1.373415276422    -0.000689286695    12.000000000000
         C           -0.638230995094     0.843613523578     0.018728413305    12.000000000000
         C           -2.569086295094    -0.694035276422     0.003870713305    12.000000000000
         C            1.511917204906    -0.032314276422     0.003164113305    12.000000000000
         H           -0.759584295094    -2.515328276422    -0.006602286695     1.007825032230
         H            1.748007704906    -2.218375276422    -0.028037286695     1.007825032230
         H           -2.870848295094    -1.253854276422     0.892562713305     1.007825032230
         H           -2.865742295094    -1.240598276422    -0.894709286695     1.007825032230
         H           -3.033663295094     0.288791723578     0.010303713305     1.007825032230
         H            3.495366704906    -0.469631276422     0.350127713305     1.007825032230
         H            3.138026704906     1.182213723578     0.120939713305     1.007825032230

  Basis Set: AUG-CC-PVTZ
    Blend: AUG-CC-PVTZ
  Basis Set: (AUG-CC-PVTZ AUX)
    Blend: AUG-CC-PVTZ-JKFIT
	 Reference Energy          =    -431.7977256522981406 [Eh]
	 Singles Energy            =      -0.0000000000000000 [Eh]
	 Same-Spin Energy          =      -0.4508965771846196 [Eh]
	 Opposite-Spin Energy      =      -1.3731115536016110 [Eh]
	 Correlation Energy        =      -1.8240081307862306 [Eh]
	 Total Energy              =    -433.6217337830843803 [Eh]

	 ================> DF-SCS-MP2 Energies <==================
	-----------------------------------------------------------
	 SCS Same-Spin Scale       =       0.3333333333333333 [-]
	 SCS Opposite-Spin Scale   =       1.2000000000000000 [-]
	 SCS Same-Spin Energy      =      -0.1502988590615399 [Eh]
	 SCS Opposite-Spin Energy  =      -1.6477338643219330 [Eh]
	 SCS Correlation Energy    =      -1.7980327233834730 [Eh]
	 SCS Total Energy          =    -433.5957583756816121 [Eh]
	-----------------------------------------------------------

  Dipole Moment: [D]
     X:     1.5948      Y:    -5.9085      Z:     0.8371     Total:     6.1769

*** Psi4 exiting successfully. Buy a developer a beer!
