                               Psi4 1.3.2 release

  ==> Input File <==

--------------------------------------------------------------------------
#psi4
#
memory 32 gb

molecule  {
0 1
  O       -1.4243350     1.8531120    -0.0084660
  N       -1.1176450    -0.4263010     0.0065070
  N        0.7429240     1.0712790     0.0095610
  N        2.8919430     0.2615640    -0.0759850
  C       -0.2733660    -1.4960510    -0.0007800
  C        1.0765330    -1.3300920    -0.0040440
  C       -0.6338910     0.9109410     0.0155220
  C       -2.5617390    -0.6507120     0.0005160
  C        1.5258150     0.0286899     0.0001458
  H       -0.7522370    -2.4720050    -0.0099570
  H        1.7479558    -2.1809474    -0.0312695
  H       -2.8635010    -1.2105310     0.8892080
  H       -2.8583950    -1.1972750    -0.8980640
  H       -3.0263160     0.3321150     0.0069490
  H        3.5027140    -0.4263080     0.3467730
  H        3.1453740     1.2255370     0.1175850
units angstrom
no_reorient  #important for SAPT in psi4, default
symmetry c1  #important for SAPT in psi4, default
}

set PROPERTIES_ORIGIN ["COM"]
properties('MP2/aug-cc-pvtz', properties = ['dipole'])
--------------------------------------------------------------------------

    Molecular point group: c1
  Charge       = 0
  Multiplicity = 1
  Basis Set: AUG-CC-PVTZ
    Blend: AUG-CC-PVTZ
  Basis Set: (AUG-CC-PVTZ AUX)
    Blend: AUG-CC-PVTZ-JKFIT

    Orbital Energies [Eh]
    ---------------------

    Doubly Occupied:

       1A    -20.504881     2A    -15.625855     3A    -15.589329
       4A    -15.544719     5A    -11.373448     6A    -11.348739
       7A    -11.326931     8A    -11.270906     9A    -11.246054
      10A     -1.383962    11A     -1.296576    12A     -1.266222
      13A     -1.171417    14A     -1.073243    15A     -0.965634
      16A     -0.899543    17A     -0.854230    18A     -0.758430
      19A     -0.722972    20A     -0.684470    21A     -0.673420
      22A     -0.656211    23A     -0.622225    24A     -0.601228
      25A     -0.593518    26A     -0.580415    27A     -0.559251
      28A     -0.520581    29A     -0.476710    30A     -0.442937
      31A     -0.421041    32A     -0.389279    33A     -0.339526

  @DF-RHF Final Energy:  -431.80103108600389

   => Energetics <=

    Nuclear Repulsion Energy =            441.0457199172614651
    One-Electron Energy =               -1462.1256975503024478
    Two-Electron Energy =                 589.2789465470370942
    Total Energy =                       -431.8010310860038317
  Basis Set: (AUG-CC-PVTZ AUX)
    Blend: AUG-CC-PVTZ-RI
    Molecular point group: c1

    Geometry (in Angstrom), charge = 0, multiplicity = 1:

       Center              X                  Y                   Z               Mass
    ------------   -----------------  -----------------  -----------------  -----------------
         O           -1.431962653371     1.805836348965    -0.005158783178    15.994914619570
         N           -1.125272653371    -0.473576651035     0.009814216822    14.003074004430
         N            0.735296346629     1.024003348965     0.012868216822    14.003074004430
         N            2.884315346629     0.214288348965    -0.072677783178    14.003074004430
         C           -0.280993653371    -1.543326651035     0.002527216822    12.000000000000
         C            1.068905346629    -1.377367651035    -0.000736783178    12.000000000000
         C           -0.641518653371     0.863665348965     0.018829216822    12.000000000000
         C           -2.569366653371    -0.697987651035     0.003823216822    12.000000000000
         C            1.518187346629    -0.018585751035     0.003453016822    12.000000000000
         H           -0.759864653371    -2.519280651035    -0.006649783178     1.007825032230
         H            1.740328146629    -2.228223051035    -0.027962283178     1.007825032230
         H           -2.871128653371    -1.257806651035     0.892515216822     1.007825032230
         H           -2.866022653371    -1.244550651035    -0.894756783178     1.007825032230
         H           -3.033943653371     0.284839348965     0.010256216822     1.007825032230
         H            3.495086346629    -0.473583651035     0.350080216822     1.007825032230
         H            3.137746346629     1.178261348965     0.120892216822     1.007825032230

  Basis Set: AUG-CC-PVTZ
    Blend: AUG-CC-PVTZ
  Basis Set: (AUG-CC-PVTZ AUX)
    Blend: AUG-CC-PVTZ-JKFIT
	 Reference Energy          =    -431.8010310860038885 [Eh]
	 Singles Energy            =      -0.0000000000000000 [Eh]
	 Same-Spin Energy          =      -0.4502663910010356 [Eh]
	 Opposite-Spin Energy      =      -1.3720677158019319 [Eh]
	 Correlation Energy        =      -1.8223341068029675 [Eh]
	 Total Energy              =    -433.6233651928068298 [Eh]

	 ================> DF-SCS-MP2 Energies <==================
	-----------------------------------------------------------
	 SCS Same-Spin Scale       =       0.3333333333333333 [-]
	 SCS Opposite-Spin Scale   =       1.2000000000000000 [-]
	 SCS Same-Spin Energy      =      -0.1500887970003452 [Eh]
	 SCS Opposite-Spin Energy  =      -1.6464812589623181 [Eh]
	 SCS Correlation Energy    =      -1.7965700559626634 [Eh]
	 SCS Total Energy          =    -433.5976011419665497 [Eh]
	-----------------------------------------------------------

  Dipole Moment: [D]
     X:     1.5931      Y:    -5.6173      Z:     0.8364     Total:     5.8984

*** Psi4 exiting successfully. Buy a developer a beer!
