                               Psi4 1.3.2 release

  ==> Input File <==

--------------------------------------------------------------------------
#psi4
#
memory 32 gb

molecule  {
0 1
  O       -1.4243350     1.8531120    -0.0084660
  N       -1.1176450    -0.4263010     0.0065070
  N        0.7429240     1.0712790     0.0095610
  N        2.8919430     0.2615640    -0.0759850
  C       -0.2733660    -1.4960510    -0.0007800
  C        1.0765330    -1.3300920    -0.0040440
  C       -0.6338910     0.9109410     0.0155220
  C       -2.5617390    -0.6507120     0.0005160
  C        1.5267939     0.0862906    -0.0360925
  H       -0.7522370    -2.4720050    -0.0099570
  H        1.7553550    -2.1750520    -0.0313920
  H       -2.8635010    -1.2105310     0.8892080
  H       -2.8583950    -1.1972750    -0.8980640
  H       -3.0263160     0.3321150     0.0069490
  H        3.5440833    -0.3968201     0.3316630
  H        3.1453740     1.2255370     0.1175850
units angstrom
no_reorient  #important for SAPT in psi4, default
symmetry c1  #important for SAPT in psi4, default
}

set PROPERTIES_ORIGIN ["COM"]
properties('MP2/aug-cc-pvtz', properties = ['dipole'])
--------------------------------------------------------------------------

    Molecular point group: c1
  Charge       = 0
  Multiplicity = 1
  Basis Set: AUG-CC-PVTZ
    Blend: AUG-CC-PVTZ
  Basis Set: (AUG-CC-PVTZ AUX)
    Blend: AUG-CC-PVTZ-JKFIT

    Orbital Energies [Eh]
    ---------------------

    Doubly Occupied:

       1A    -20.509361     2A    -15.621787     3A    -15.589088
       4A    -15.544822     5A    -11.378215     6A    -11.348652
       7A    -11.319580     8A    -11.269438     9A    -11.246253
      10A     -1.387107    11A     -1.300853    12A     -1.269233
      13A     -1.181980    14A     -1.064042    15A     -0.963876
      16A     -0.892238    17A     -0.860728    18A     -0.756397
      19A     -0.724246    20A     -0.693310    21A     -0.670190
      22A     -0.655716    23A     -0.618432    24A     -0.596593
      25A     -0.594583    26A     -0.584289    27A     -0.557683
      28A     -0.522239    29A     -0.476000    30A     -0.444499
      31A     -0.420573    32A     -0.394375    33A     -0.336838

  @DF-RHF Final Energy:  -431.79707919114009

   => Energetics <=

    Nuclear Repulsion Energy =            441.1090977972852443
    One-Electron Energy =               -1462.2259234981906957
    Two-Electron Energy =                 589.3197465097654231
    Total Energy =                       -431.7970791911400283
  Basis Set: (AUG-CC-PVTZ AUX)
    Blend: AUG-CC-PVTZ-RI
    Molecular point group: c1

    Geometry (in Angstrom), charge = 0, multiplicity = 1:

       Center              X                  Y                   Z               Mass
    ------------   -----------------  -----------------  -----------------  -----------------
         O           -1.432449599197     1.800024139626    -0.001558789478    15.994914619570
         N           -1.125759599197    -0.479388860374     0.013414210522    14.003074004430
         N            0.734809400803     1.018191139626     0.016468210522    14.003074004430
         N            2.883828400803     0.208476139626    -0.069077789478    14.003074004430
         C           -0.281480599197    -1.549138860374     0.006127210522    12.000000000000
         C            1.068418400803    -1.383179860374     0.002863210522    12.000000000000
         C           -0.642005599197     0.857853139626     0.022429210522    12.000000000000
         C           -2.569853599197    -0.703799860374     0.007423210522    12.000000000000
         C            1.518679300803     0.033202739626    -0.029185289478    12.000000000000
         H           -0.760351599197    -2.525092860374    -0.003049789478     1.007825032230
         H            1.747240400803    -2.228139860374    -0.024484789478     1.007825032230
         H           -2.871615599197    -1.263618860374     0.896115210522     1.007825032230
         H           -2.866509599197    -1.250362860374    -0.891156789478     1.007825032230
         H           -3.034430599197     0.279027139626     0.013856210522     1.007825032230
         H            3.535968700803    -0.449907960374     0.338570210522     1.007825032230
         H            3.137259400803     1.172449139626     0.124492210522     1.007825032230

  Basis Set: AUG-CC-PVTZ
    Blend: AUG-CC-PVTZ
  Basis Set: (AUG-CC-PVTZ AUX)
    Blend: AUG-CC-PVTZ-JKFIT
	 Reference Energy          =    -431.7970791911400852 [Eh]
	 Singles Energy            =      -0.0000000000000000 [Eh]
	 Same-Spin Energy          =      -0.4492652120460697 [Eh]
	 Opposite-Spin Energy      =      -1.3710328184879352 [Eh]
	 Correlation Energy        =      -1.8202980305340049 [Eh]
	 Total Energy              =    -433.6173772216740758 [Eh]

	 ================> DF-SCS-MP2 Energies <==================
	-----------------------------------------------------------
	 SCS Same-Spin Scale       =       0.3333333333333333 [-]
	 SCS Opposite-Spin Scale   =       1.2000000000000000 [-]
	 SCS Same-Spin Energy      =      -0.1497550706820232 [Eh]
	 SCS Opposite-Spin Energy  =      -1.6452393821855222 [Eh]
	 SCS Correlation Energy    =      -1.7949944528675454 [Eh]
	 SCS Total Energy          =    -433.5920736440076553 [Eh]
	-----------------------------------------------------------

  Dipole Moment: [D]
     X:     1.7339      Y:    -5.3274      Z:     0.7921     Total:     5.6581

*** Psi4 exiting successfully. Buy a developer a beer!
