                               Psi4 1.3.2 release

  ==> Input File <==

--------------------------------------------------------------------------
#psi4
#
memory 32 gb

molecule  {
0 1
  O       -1.4243350     1.8531120    -0.0084660
  N       -1.1176450    -0.4263010     0.0065070
  N        0.7429240     1.0712790     0.0095610
  N        2.8919430     0.2615640    -0.0759850
  C       -0.2733660    -1.4960510    -0.0007800
  C        1.0765330    -1.3300920    -0.0040440
  C       -0.6338910     0.9109410     0.0155220
  C       -2.5617390    -0.6507120     0.0005160
  C        1.5376510     0.0247200    -0.0002060
  H       -0.7522370    -2.4720050    -0.0099570
  H        1.7553550    -2.1750520    -0.0313920
  H       -2.8635010    -1.2105310     0.8892080
  H       -2.8583950    -1.1972750    -0.8980640
  H       -3.0263160     0.3321150     0.0069490
  H        3.5309871    -0.3864947     0.3673839
  H        3.1863088     1.2075379     0.1463272
units angstrom
no_reorient  #important for SAPT in psi4, default
symmetry c1  #important for SAPT in psi4, default
}

set PROPERTIES_ORIGIN ["COM"]
properties('MP2/aug-cc-pvtz', properties = ['dipole'])
--------------------------------------------------------------------------

    Molecular point group: c1
  Charge       = 0
  Multiplicity = 1
  Basis Set: AUG-CC-PVTZ
    Blend: AUG-CC-PVTZ
  Basis Set: (AUG-CC-PVTZ AUX)
    Blend: AUG-CC-PVTZ-JKFIT

    Orbital Energies [Eh]
    ---------------------

    Doubly Occupied:

       1A    -20.503702     2A    -15.625595     3A    -15.591141
       4A    -15.544024     5A    -11.372359     6A    -11.350550
       7A    -11.327197     8A    -11.270540     9A    -11.246064
      10A     -1.382700    11A     -1.295851    12A     -1.267079
      13A     -1.171111    14A     -1.072798    15A     -0.965953
      16A     -0.899475    17A     -0.855793    18A     -0.756193
      19A     -0.726543    20A     -0.687259    21A     -0.668171
      22A     -0.655473    23A     -0.622296    24A     -0.601212
      25A     -0.592190    26A     -0.579707    27A     -0.559227
      28A     -0.522011    29A     -0.476350    30A     -0.440933
      31A     -0.419933    32A     -0.388689    33A     -0.338888

  @DF-RHF Final Energy:  -431.79988861439676

   => Energetics <=

    Nuclear Repulsion Energy =            440.7833452256550117
    One-Electron Energy =               -1461.6124528561779243
    Two-Electron Energy =                 589.0292190161261487
    Total Energy =                       -431.7998886143967638
  Basis Set: (AUG-CC-PVTZ AUX)
    Blend: AUG-CC-PVTZ-RI
    Molecular point group: c1

    Geometry (in Angstrom), charge = 0, multiplicity = 1:

       Center              X                  Y                   Z               Mass
    ------------   -----------------  -----------------  -----------------  -----------------
         O           -1.433715735577     1.805993973649    -0.005521765955    15.994914619570
         N           -1.127025735577    -0.473419026351     0.009451234045    14.003074004430
         N            0.733543264423     1.024160973649     0.012505234045    14.003074004430
         N            2.882562264423     0.214445973649    -0.073040765955    14.003074004430
         C           -0.282746735577    -1.543169026351     0.002164234045    12.000000000000
         C            1.067152264423    -1.377210026351    -0.001099765955    12.000000000000
         C           -0.643271735577     0.863822973649     0.018466234045    12.000000000000
         C           -2.571119735577    -0.697830026351     0.003460234045    12.000000000000
         C            1.528270264423    -0.022398026351     0.002738234045    12.000000000000
         H           -0.761617735577    -2.519123026351    -0.007012765955     1.007825032230
         H            1.745974264423    -2.222170026351    -0.028447765955     1.007825032230
         H           -2.872881735577    -1.257649026351     0.892152234045     1.007825032230
         H           -2.867775735577    -1.244393026351    -0.895119765955     1.007825032230
         H           -3.035696735577     0.284996973649     0.009893234045     1.007825032230
         H            3.521606364423    -0.433612726351     0.370328134045     1.007825032230
         H            3.176928064423     1.160419873649     0.149271434045     1.007825032230

  Basis Set: AUG-CC-PVTZ
    Blend: AUG-CC-PVTZ
  Basis Set: (AUG-CC-PVTZ AUX)
    Blend: AUG-CC-PVTZ-JKFIT
	 Reference Energy          =    -431.7998886143967638 [Eh]
	 Singles Energy            =      -0.0000000000000000 [Eh]
	 Same-Spin Energy          =      -0.4503694624610481 [Eh]
	 Opposite-Spin Energy      =      -1.3722130743501773 [Eh]
	 Correlation Energy        =      -1.8225825368112254 [Eh]
	 Total Energy              =    -433.6224711512080034 [Eh]

	 ================> DF-SCS-MP2 Energies <==================
	-----------------------------------------------------------
	 SCS Same-Spin Scale       =       0.3333333333333333 [-]
	 SCS Opposite-Spin Scale   =       1.2000000000000000 [-]
	 SCS Same-Spin Energy      =      -0.1501231541536827 [Eh]
	 SCS Opposite-Spin Energy  =      -1.6466556892202127 [Eh]
	 SCS Correlation Energy    =      -1.7967788433738954 [Eh]
	 SCS Total Energy          =    -433.5966674577706499 [Eh]
	-----------------------------------------------------------

  Dipole Moment: [D]
     X:     1.7119      Y:    -5.6162      Z:     0.8942     Total:     5.9391

*** Psi4 exiting successfully. Buy a developer a beer!
