                               Psi4 1.3.2 release

  ==> Input File <==

--------------------------------------------------------------------------
#psi4
#
memory 32 gb

molecule  {
0 1
  O       -1.4243350     1.8531120    -0.0084660
  N       -1.1176450    -0.4263010     0.0065070
  N        0.7429240     1.0712790     0.0095610
  N        2.8919430     0.2615640    -0.0759850
  C       -0.2733660    -1.4960510    -0.0007800
  C        1.0699205    -1.2830852    -0.0034891
  C       -0.6338910     0.9109410     0.0155220
  C       -2.5617390    -0.6507120     0.0005160
  C        1.5376510     0.0247200    -0.0002060
  H       -0.7860068    -2.4547005    -0.0096335
  H        1.7553550    -2.1750520    -0.0313920
  H       -2.8635010    -1.2105310     0.8892080
  H       -2.8583950    -1.1972750    -0.8980640
  H       -3.0263160     0.3321150     0.0069490
  H        3.5027140    -0.4263080     0.3467730
  H        3.1453740     1.2255370     0.1175850
units angstrom
no_reorient  #important for SAPT in psi4, default
symmetry c1  #important for SAPT in psi4, default
}

set PROPERTIES_ORIGIN ["COM"]
properties('MP2/aug-cc-pvtz', properties = ['dipole'])
--------------------------------------------------------------------------

    Molecular point group: c1
  Charge       = 0
  Multiplicity = 1
  Basis Set: AUG-CC-PVTZ
    Blend: AUG-CC-PVTZ
  Basis Set: (AUG-CC-PVTZ AUX)
    Blend: AUG-CC-PVTZ-JKFIT

    Orbital Energies [Eh]
    ---------------------

    Doubly Occupied:

       1A    -20.502079     2A    -15.626330     3A    -15.590258
       4A    -15.542084     5A    -11.371136     6A    -11.344704
       7A    -11.329961     8A    -11.271158     9A    -11.245955
      10A     -1.382445    11A     -1.297574    12A     -1.268265
      13A     -1.170336    14A     -1.074431    15A     -0.967512
      16A     -0.904876    17A     -0.852024    18A     -0.760936
      19A     -0.724519    20A     -0.682906    21A     -0.670269
      22A     -0.656466    23A     -0.626042    24A     -0.604721
      25A     -0.587924    26A     -0.580766    27A     -0.557043
      28A     -0.522304    29A     -0.476431    30A     -0.439441
      31A     -0.419634    32A     -0.388302    33A     -0.338160

  @DF-RHF Final Energy:  -431.79672259958505

   => Energetics <=

    Nuclear Repulsion Energy =            441.8173492554320774
    One-Electron Energy =               -1463.6741598497007999
    Two-Electron Energy =                 590.0600879946837267
    Total Energy =                       -431.7967225995849958
  Basis Set: (AUG-CC-PVTZ AUX)
    Blend: AUG-CC-PVTZ-RI
    Molecular point group: c1

    Geometry (in Angstrom), charge = 0, multiplicity = 1:

       Center              X                  Y                   Z               Mass
    ------------   -----------------  -----------------  -----------------  -----------------
         O           -1.432251357700     1.801519789418    -0.005179891413    15.994914619570
         N           -1.125561357700    -0.477893210582     0.009793108587    14.003074004430
         N            0.735007642300     1.019686789418     0.012847108587    14.003074004430
         N            2.884026642300     0.209971789418    -0.072698891413    14.003074004430
         C           -0.281282357700    -1.547643210582     0.002506108587    12.000000000000
         C            1.062004142300    -1.334677410582    -0.000202991413    12.000000000000
         C           -0.641807357700     0.859348789418     0.018808108587    12.000000000000
         C           -2.569655357700    -0.702304210582     0.003802108587    12.000000000000
         C            1.529734642300    -0.026872210582     0.003080108587    12.000000000000
         H           -0.793923157700    -2.506292710582    -0.006347391413     1.007825032230
         H            1.747438642300    -2.226644210582    -0.028105891413     1.007825032230
         H           -2.871417357700    -1.262123210582     0.892494108587     1.007825032230
         H           -2.866311357700    -1.248867210582    -0.894777891413     1.007825032230
         H           -3.034232357700     0.280522789418     0.010235108587     1.007825032230
         H            3.494797642300    -0.477900210582     0.350059108587     1.007825032230
         H            3.137457642300     1.173944789418     0.120871108587     1.007825032230

  Basis Set: AUG-CC-PVTZ
    Blend: AUG-CC-PVTZ
  Basis Set: (AUG-CC-PVTZ AUX)
    Blend: AUG-CC-PVTZ-JKFIT
	 Reference Energy          =    -431.7967225995850526 [Eh]
	 Singles Energy            =      -0.0000000000000000 [Eh]
	 Same-Spin Energy          =      -0.4512172869921479 [Eh]
	 Opposite-Spin Energy      =      -1.3729666422201394 [Eh]
	 Correlation Energy        =      -1.8241839292122872 [Eh]
	 Total Energy              =    -433.6209065287973203 [Eh]

	 ================> DF-SCS-MP2 Energies <==================
	-----------------------------------------------------------
	 SCS Same-Spin Scale       =       0.3333333333333333 [-]
	 SCS Opposite-Spin Scale   =       1.2000000000000000 [-]
	 SCS Same-Spin Energy      =      -0.1504057623307160 [Eh]
	 SCS Opposite-Spin Energy  =      -1.6475599706641673 [Eh]
	 SCS Correlation Energy    =      -1.7979657329948833 [Eh]
	 SCS Total Energy          =    -433.5946883325799490 [Eh]
	-----------------------------------------------------------

  Dipole Moment: [D]
     X:     1.6056      Y:    -5.7157      Z:     0.8362     Total:     5.9955

*** Psi4 exiting successfully. Buy a developer a beer!
