                               Psi4 1.3.2 release

  ==> Input File <==

--------------------------------------------------------------------------
#psi4
#
memory 32 gb

molecule  {
0 1
  O       -1.4243350     1.8531120    -0.0084660
  N       -1.1869683    -0.3991545     0.0071126
  N        0.7326488     1.1431141     0.0102389
  N        2.8919430     0.2615640    -0.0759850
  C       -0.2733660    -1.4960510    -0.0007800
  C        1.0765330    -1.3300920    -0.0040440
  C       -0.6338910     0.9109410     0.0155220
  C       -2.5617390    -0.6507120     0.0005160
  C        1.5376510     0.0247200    -0.0002060
  H       -0.7522370    -2.4720050    -0.0099570
  H        1.7553550    -2.1750520    -0.0313920
  H       -2.8635010    -1.2105310     0.8892080
  H       -2.8583950    -1.1972750    -0.8980640
  H       -3.0263160     0.3321150     0.0069490
  H        3.5027140    -0.4263080     0.3467730
  H        3.1453740     1.2255370     0.1175850
units angstrom
no_reorient  #important for SAPT in psi4, default
symmetry c1  #important for SAPT in psi4, default
}

set PROPERTIES_ORIGIN ["COM"]
properties('MP2/aug-cc-pvtz', properties = ['dipole'])
--------------------------------------------------------------------------

    Molecular point group: c1
  Charge       = 0
  Multiplicity = 1
  Basis Set: AUG-CC-PVTZ
    Blend: AUG-CC-PVTZ
  Basis Set: (AUG-CC-PVTZ AUX)
    Blend: AUG-CC-PVTZ-JKFIT

    Orbital Energies [Eh]
    ---------------------

    Doubly Occupied:

       1A    -20.491476     2A    -15.623263     3A    -15.600929
       4A    -15.553007     5A    -11.364205     6A    -11.362724
       7A    -11.336492     8A    -11.262480     9A    -11.257502
      10A     -1.376401    11A     -1.285336    12A     -1.264851
      13A     -1.165260    14A     -1.080181    15A     -0.963601
      16A     -0.899086    17A     -0.842649    18A     -0.758107
      19A     -0.720886    20A     -0.694358    21A     -0.674696
      22A     -0.655504    23A     -0.622329    24A     -0.611217
      25A     -0.588066    26A     -0.574878    27A     -0.545063
      28A     -0.520067    29A     -0.465523    30A     -0.442734
      31A     -0.418592    32A     -0.383878    33A     -0.342052

  @DF-RHF Final Energy:  -431.78396261563017

   => Energetics <=

    Nuclear Repulsion Energy =            438.9143395895345066
    One-Electron Energy =               -1457.9018232874325349
    Two-Electron Energy =                 587.2035210822677982
    Total Energy =                       -431.7839626156302302
  Basis Set: (AUG-CC-PVTZ AUX)
    Blend: AUG-CC-PVTZ-RI
    Molecular point group: c1

    Geometry (in Angstrom), charge = 0, multiplicity = 1:

       Center              X                  Y                   Z               Mass
    ------------   -----------------  -----------------  -----------------  -----------------
         O           -1.424245213863     1.795086620044    -0.005267754916    15.994914619570
         N           -1.186878513863    -0.457179879956     0.010310845084    14.003074004430
         N            0.732738586137     1.085088720044     0.013437145084    14.003074004430
         N            2.892032786137     0.203538620044    -0.072786754916    14.003074004430
         C           -0.273276213863    -1.554076379956     0.002418245084    12.000000000000
         C            1.076622786137    -1.388117379956    -0.000845754916    12.000000000000
         C           -0.633801213863     0.852915620044     0.018720245084    12.000000000000
         C           -2.561649213863    -0.708737379956     0.003714245084    12.000000000000
         C            1.537740786137    -0.033305379956     0.002992245084    12.000000000000
         H           -0.752147213863    -2.530030379956    -0.006758754916     1.007825032230
         H            1.755444786137    -2.233077379956    -0.028193754916     1.007825032230
         H           -2.863411213863    -1.268556379956     0.892406245084     1.007825032230
         H           -2.858305213863    -1.255300379956    -0.894865754916     1.007825032230
         H           -3.026226213863     0.274089620044     0.010147245084     1.007825032230
         H            3.502803786137    -0.484333379956     0.349971245084     1.007825032230
         H            3.145463786137     1.167511620044     0.120783245084     1.007825032230

  Basis Set: AUG-CC-PVTZ
    Blend: AUG-CC-PVTZ
  Basis Set: (AUG-CC-PVTZ AUX)
    Blend: AUG-CC-PVTZ-JKFIT
	 Reference Energy          =    -431.7839626156301733 [Eh]
	 Singles Energy            =      -0.0000000000000000 [Eh]
	 Same-Spin Energy          =      -0.4509353122007648 [Eh]
	 Opposite-Spin Energy      =      -1.3744398884769877 [Eh]
	 Correlation Energy        =      -1.8253752006777524 [Eh]
	 Total Energy              =    -433.6093378163079137 [Eh]

	 ================> DF-SCS-MP2 Energies <==================
	-----------------------------------------------------------
	 SCS Same-Spin Scale       =       0.3333333333333333 [-]
	 SCS Opposite-Spin Scale   =       1.2000000000000000 [-]
	 SCS Same-Spin Energy      =      -0.1503117707335883 [Eh]
	 SCS Opposite-Spin Energy  =      -1.6493278661723851 [Eh]
	 SCS Correlation Energy    =      -1.7996396369059733 [Eh]
	 SCS Total Energy          =    -433.5836022525361386 [Eh]
	-----------------------------------------------------------

  Dipole Moment: [D]
     X:     2.2937      Y:    -5.8898      Z:     0.8216     Total:     6.3739

*** Psi4 exiting successfully. Buy a developer a beer!
