                               Psi4 1.3.2 release

  ==> Input File <==

--------------------------------------------------------------------------
#psi4
#
memory 32 gb

molecule  {
0 1
  O       -1.4243350     1.8531120    -0.0084660
  N       -1.1409096    -0.4176559     0.0067062
  N        0.7399171     1.0952826     0.0097852
  N        2.8919430     0.2615640    -0.0759850
  C       -0.2733660    -1.4960510    -0.0007800
  C        1.0765330    -1.3300920    -0.0040440
  C       -0.6338910     0.9109410     0.0155220
  C       -2.5617390    -0.6507120     0.0005160
  C        1.5376510     0.0247200    -0.0002060
  H       -0.7522370    -2.4720050    -0.0099570
  H        1.7553550    -2.1750520    -0.0313920
  H       -2.8635010    -1.2105310     0.8892080
  H       -2.8583950    -1.1972750    -0.8980640
  H       -3.0263160     0.3321150     0.0069490
  H        3.5027140    -0.4263080     0.3467730
  H        3.1453740     1.2255370     0.1175850
units angstrom
no_reorient  #important for SAPT in psi4, default
symmetry c1  #important for SAPT in psi4, default
}

set PROPERTIES_ORIGIN ["COM"]
properties('MP2/aug-cc-pvtz', properties = ['dipole'])
--------------------------------------------------------------------------

    Molecular point group: c1
  Charge       = 0
  Multiplicity = 1
  Basis Set: AUG-CC-PVTZ
    Blend: AUG-CC-PVTZ
  Basis Set: (AUG-CC-PVTZ AUX)
    Blend: AUG-CC-PVTZ-JKFIT

    Orbital Energies [Eh]
    ---------------------

    Doubly Occupied:

       1A    -20.499489     2A    -15.624736     3A    -15.594660
       4A    -15.546786     5A    -11.369380     6A    -11.353874
       7A    -11.330439     8A    -11.267800     9A    -11.249912
      10A     -1.380305    11A     -1.291843    12A     -1.266349
      13A     -1.168971    14A     -1.075291    15A     -0.964728
      16A     -0.898788    17A     -0.850287    18A     -0.758695
      19A     -0.722653    20A     -0.688080    21A     -0.674999
      22A     -0.655250    23A     -0.621647    24A     -0.604590
      25A     -0.591837    26A     -0.578110    27A     -0.554929
      28A     -0.521207    29A     -0.472487    30A     -0.440282
      31A     -0.420905    32A     -0.386489    33A     -0.340322

  @DF-RHF Final Energy:  -431.79826508860572

   => Energetics <=

    Nuclear Repulsion Energy =            440.2242839273054642
    One-Electron Energy =               -1460.5128613322256115
    Two-Electron Energy =                 588.4903123163144301
    Total Energy =                       -431.7982650886057172
  Basis Set: (AUG-CC-PVTZ AUX)
    Blend: AUG-CC-PVTZ-RI
    Molecular point group: c1

    Geometry (in Angstrom), charge = 0, multiplicity = 1:

       Center              X                  Y                   Z               Mass
    ------------   -----------------  -----------------  -----------------  -----------------
         O           -1.430216335124     1.802514035603    -0.005171447953    15.994914619570
         N           -1.146790935124    -0.468253864397     0.010000752047    14.003074004430
         N            0.734035764876     1.044684635603     0.013079752047    14.003074004430
         N            2.886061664876     0.210966035603    -0.072690447953    14.003074004430
         C           -0.279247335124    -1.546648964397     0.002514552047    12.000000000000
         C            1.070651664876    -1.380689964397    -0.000749447953    12.000000000000
         C           -0.639772335124     0.860343035603     0.018816552047    12.000000000000
         C           -2.567620335124    -0.701309964397     0.003810552047    12.000000000000
         C            1.531769664876    -0.025877964397     0.003088552047    12.000000000000
         H           -0.758118335124    -2.522602964397    -0.006662447953     1.007825032230
         H            1.749473664876    -2.225649964397    -0.028097447953     1.007825032230
         H           -2.869382335124    -1.261128964397     0.892502552047     1.007825032230
         H           -2.864276335124    -1.247872964397    -0.894769447953     1.007825032230
         H           -3.032197335124     0.281517035603     0.010243552047     1.007825032230
         H            3.496832664876    -0.476905964397     0.350067552047     1.007825032230
         H            3.139492664876     1.174939035603     0.120879552047     1.007825032230

  Basis Set: AUG-CC-PVTZ
    Blend: AUG-CC-PVTZ
  Basis Set: (AUG-CC-PVTZ AUX)
    Blend: AUG-CC-PVTZ-JKFIT
	 Reference Energy          =    -431.7982650886057172 [Eh]
	 Singles Energy            =      -0.0000000000000000 [Eh]
	 Same-Spin Energy          =      -0.4504712934238554 [Eh]
	 Opposite-Spin Energy      =      -1.3727275000815387 [Eh]
	 Correlation Energy        =      -1.8231987935053939 [Eh]
	 Total Energy              =    -433.6214638821111294 [Eh]

	 ================> DF-SCS-MP2 Energies <==================
	-----------------------------------------------------------
	 SCS Same-Spin Scale       =       0.3333333333333333 [-]
	 SCS Opposite-Spin Scale   =       1.2000000000000000 [-]
	 SCS Same-Spin Energy      =      -0.1501570978079518 [Eh]
	 SCS Opposite-Spin Energy  =      -1.6472730000978464 [Eh]
	 SCS Correlation Energy    =      -1.7974300979057982 [Eh]
	 SCS Total Energy          =    -433.5956951865115343 [Eh]
	-----------------------------------------------------------

  Dipole Moment: [D]
     X:     1.8989      Y:    -5.7235      Z:     0.8289     Total:     6.0870

*** Psi4 exiting successfully. Buy a developer a beer!
