                               Psi4 1.3.2 release

  ==> Input File <==

--------------------------------------------------------------------------
#psi4
#
memory 32 gb

molecule  {
0 1
  O       -1.4243350     1.8531120    -0.0084660
  N       -1.1176450    -0.4263010     0.0065070
  N        0.7429240     1.0712790     0.0095610
  N        2.8919430     0.2615640    -0.0759850
  C       -0.2548246    -1.4811544    -0.0005951
  C        1.0765330    -1.3300920    -0.0040440
  C       -0.6338910     0.9109410     0.0155220
  C       -2.5654363    -0.6254757     0.0007326
  C        1.5376510     0.0247200    -0.0002060
  H       -0.7522370    -2.4720050    -0.0099570
  H        1.7553550    -2.1750520    -0.0313920
  H       -2.8635010    -1.2105310     0.8892080
  H       -2.8583950    -1.1972750    -0.8980640
  H       -3.0263160     0.3321150     0.0069490
  H        3.5027140    -0.4263080     0.3467730
  H        3.1453740     1.2255370     0.1175850
units angstrom
no_reorient  #important for SAPT in psi4, default
symmetry c1  #important for SAPT in psi4, default
}

set PROPERTIES_ORIGIN ["COM"]
properties('MP2/aug-cc-pvtz', properties = ['dipole'])
--------------------------------------------------------------------------

    Molecular point group: c1
  Charge       = 0
  Multiplicity = 1
  Basis Set: AUG-CC-PVTZ
    Blend: AUG-CC-PVTZ
  Basis Set: (AUG-CC-PVTZ AUX)
    Blend: AUG-CC-PVTZ-JKFIT

    Orbital Energies [Eh]
    ---------------------

    Doubly Occupied:

       1A    -20.503160     2A    -15.624247     3A    -15.592070
       4A    -15.543556     5A    -11.371197     6A    -11.349676
       7A    -11.325811     8A    -11.271103     9A    -11.244623
      10A     -1.382574    11A     -1.296380    12A     -1.266950
      13A     -1.170832    14A     -1.077716    15A     -0.965858
      16A     -0.895700    17A     -0.854965    18A     -0.760512
      19A     -0.722728    20A     -0.686108    21A     -0.672098
      22A     -0.653209    23A     -0.621982    24A     -0.600199
      25A     -0.591833    26A     -0.577742    27A     -0.567143
      28A     -0.520944    29A     -0.476884    30A     -0.441059
      31A     -0.418861    32A     -0.387823    33A     -0.341245

  @DF-RHF Final Energy:  -431.80027204198927

   => Energetics <=

    Nuclear Repulsion Energy =            441.3411717675397199
    One-Electron Energy =               -1462.7293162375292468
    Two-Electron Energy =                 589.5878724280003098
    Total Energy =                       -431.8002720419892739
  Basis Set: (AUG-CC-PVTZ AUX)
    Blend: AUG-CC-PVTZ-RI
    Molecular point group: c1

    Geometry (in Angstrom), charge = 0, multiplicity = 1:

       Center              X                  Y                   Z               Mass
    ------------   -----------------  -----------------  -----------------  -----------------
         O           -1.434582365106     1.802318826502    -0.005162564927    15.994914619570
         N           -1.127892365106    -0.477094173498     0.009810435073    14.003074004430
         N            0.732676634894     1.020485826502     0.012864435073    14.003074004430
         N            2.881695634894     0.210770826502    -0.072681564927    14.003074004430
         C           -0.265071965106    -1.531947573498     0.002708335073    12.000000000000
         C            1.066285634894    -1.380885173498    -0.000740564927    12.000000000000
         C           -0.644138365106     0.860147826502     0.018825435073    12.000000000000
         C           -2.575683665106    -0.676268873498     0.004036035073    12.000000000000
         C            1.527403634894    -0.026073173498     0.003097435073    12.000000000000
         H           -0.762484365106    -2.522798173498    -0.006653564927     1.007825032230
         H            1.745107634894    -2.225845173498    -0.028088564927     1.007825032230
         H           -2.873748365106    -1.261324173498     0.892511435073     1.007825032230
         H           -2.868642365106    -1.248068173498    -0.894760564927     1.007825032230
         H           -3.036563365106     0.281321826502     0.010252435073     1.007825032230
         H            3.492466634894    -0.477101173498     0.350076435073     1.007825032230
         H            3.135126634894     1.174743826502     0.120888435073     1.007825032230

  Basis Set: AUG-CC-PVTZ
    Blend: AUG-CC-PVTZ
  Basis Set: (AUG-CC-PVTZ AUX)
    Blend: AUG-CC-PVTZ-JKFIT
	 Reference Energy          =    -431.8002720419892739 [Eh]
	 Singles Energy            =      -0.0000000000000000 [Eh]
	 Same-Spin Energy          =      -0.4501191029576410 [Eh]
	 Opposite-Spin Energy      =      -1.3717337151167506 [Eh]
	 Correlation Energy        =      -1.8218528180743916 [Eh]
	 Total Energy              =    -433.6221248600636500 [Eh]

	 ================> DF-SCS-MP2 Energies <==================
	-----------------------------------------------------------
	 SCS Same-Spin Scale       =       0.3333333333333333 [-]
	 SCS Opposite-Spin Scale   =       1.2000000000000000 [-]
	 SCS Same-Spin Energy      =      -0.1500397009858803 [Eh]
	 SCS Opposite-Spin Energy  =      -1.6460804581401007 [Eh]
	 SCS Correlation Energy    =      -1.7961201591259810 [Eh]
	 SCS Total Energy          =    -433.5963922011152363 [Eh]
	-----------------------------------------------------------

  Dipole Moment: [D]
     X:     1.7393      Y:    -5.6191      Z:     0.8327     Total:     5.9408

*** Psi4 exiting successfully. Buy a developer a beer!
