                               Psi4 1.3.2 release

  ==> Input File <==

--------------------------------------------------------------------------
#psi4
#
memory 32 gb

molecule  {
0 1
  O       -1.4243350     1.8531120    -0.0084660
  N       -1.1176450    -0.4263010     0.0065070
  N        0.7612737     1.0849744     0.0082273
  N        2.8875717     0.2851901    -0.0764543
  C       -0.2733660    -1.4960510    -0.0007800
  C        1.0765330    -1.3300920    -0.0040440
  C       -0.6338910     0.9109410     0.0155220
  C       -2.5617390    -0.6507120     0.0005160
  C        1.5376510     0.0247200    -0.0002060
  H       -0.7522370    -2.4720050    -0.0099570
  H        1.7553550    -2.1750520    -0.0313920
  H       -2.8635010    -1.2105310     0.8892080
  H       -2.8583950    -1.1972750    -0.8980640
  H       -3.0263160     0.3321150     0.0069490
  H        3.5027140    -0.4263080     0.3467730
  H        3.1453740     1.2255370     0.1175850
units angstrom
no_reorient  #important for SAPT in psi4, default
symmetry c1  #important for SAPT in psi4, default
}

set PROPERTIES_ORIGIN ["COM"]
properties('MP2/aug-cc-pvtz', properties = ['dipole'])
--------------------------------------------------------------------------

    Molecular point group: c1
  Charge       = 0
  Multiplicity = 1
  Basis Set: AUG-CC-PVTZ
    Blend: AUG-CC-PVTZ
  Basis Set: (AUG-CC-PVTZ AUX)
    Blend: AUG-CC-PVTZ-JKFIT

    Orbital Energies [Eh]
    ---------------------

    Doubly Occupied:

       1A    -20.505473     2A    -15.626510     3A    -15.589266
       4A    -15.545108     5A    -11.373887     6A    -11.347391
       7A    -11.328124     8A    -11.271342     9A    -11.247202
      10A     -1.382389    11A     -1.296083    12A     -1.268030
      13A     -1.165770    14A     -1.073320    15A     -0.965324
      16A     -0.900838    17A     -0.849364    18A     -0.758727
      19A     -0.723639    20A     -0.684414    21A     -0.671159
      22A     -0.655603    23A     -0.624031    24A     -0.603126
      25A     -0.591300    26A     -0.578683    27A     -0.559835
      28A     -0.521662    29A     -0.476734    30A     -0.444157
      31A     -0.419740    32A     -0.386334    33A     -0.339435

  @DF-RHF Final Energy:  -431.79902267558123

   => Energetics <=

    Nuclear Repulsion Energy =            440.4724917906653445
    One-Electron Energy =               -1460.9950277821005784
    Two-Electron Energy =                 588.7235133158540066
    Total Energy =                       -431.7990226755812273
  Basis Set: (AUG-CC-PVTZ AUX)
    Blend: AUG-CC-PVTZ-RI
    Molecular point group: c1

    Geometry (in Angstrom), charge = 0, multiplicity = 1:

       Center              X                  Y                   Z               Mass
    ------------   -----------------  -----------------  -----------------  -----------------
         O           -1.434723189694     1.801990813681    -0.004922153892    15.994914619570
         N           -1.128033189694    -0.477422186319     0.010050846108    14.003074004430
         N            0.750885510306     1.033853213681     0.011771146108    14.003074004430
         N            2.877183510306     0.234068913681    -0.072910453892    14.003074004430
         C           -0.283754189694    -1.547172186319     0.002763846108    12.000000000000
         C            1.066144810306    -1.381213186319    -0.000500153892    12.000000000000
         C           -0.644279189694     0.859819813681     0.019065846108    12.000000000000
         C           -2.572127189694    -0.701833186319     0.004059846108    12.000000000000
         C            1.527262810306    -0.026401186319     0.003337846108    12.000000000000
         H           -0.762625189694    -2.523126186319    -0.006413153892     1.007825032230
         H            1.744966810306    -2.226173186319    -0.027848153892     1.007825032230
         H           -2.873889189694    -1.261652186319     0.892751846108     1.007825032230
         H           -2.868783189694    -1.248396186319    -0.894520153892     1.007825032230
         H           -3.036704189694     0.280993813681     0.010492846108     1.007825032230
         H            3.492325810306    -0.477429186319     0.350316846108     1.007825032230
         H            3.134985810306     1.174415813681     0.121128846108     1.007825032230

  Basis Set: AUG-CC-PVTZ
    Blend: AUG-CC-PVTZ
  Basis Set: (AUG-CC-PVTZ AUX)
    Blend: AUG-CC-PVTZ-JKFIT
	 Reference Energy          =    -431.7990226755812273 [Eh]
	 Singles Energy            =      -0.0000000000000000 [Eh]
	 Same-Spin Energy          =      -0.4503108334305781 [Eh]
	 Opposite-Spin Energy      =      -1.3725627268288223 [Eh]
	 Correlation Energy        =      -1.8228735602594004 [Eh]
	 Total Energy              =    -433.6218962358406088 [Eh]

	 ================> DF-SCS-MP2 Energies <==================
	-----------------------------------------------------------
	 SCS Same-Spin Scale       =       0.3333333333333333 [-]
	 SCS Opposite-Spin Scale   =       1.2000000000000000 [-]
	 SCS Same-Spin Energy      =      -0.1501036111435260 [Eh]
	 SCS Opposite-Spin Energy  =      -1.6470752721945867 [Eh]
	 SCS Correlation Energy    =      -1.7971788833381128 [Eh]
	 SCS Total Energy          =    -433.5962015589193470 [Eh]
	-----------------------------------------------------------

  Dipole Moment: [D]
     X:     1.5993      Y:    -5.6604      Z:     0.8309     Total:     5.9404

*** Psi4 exiting successfully. Buy a developer a beer!
