                               Psi4 1.3.2 release

  ==> Input File <==

--------------------------------------------------------------------------
#psi4
#
memory 32 gb

molecule  {
0 1
  O       -1.4243350     1.8531120    -0.0084660
  N       -1.1176450    -0.4263010     0.0065070
  N        0.7429240     1.0712790     0.0095610
  N        2.8919430     0.2615640    -0.0759850
  C       -0.2747615    -1.4842693    -0.0004457
  C        1.0765330    -1.3300920    -0.0040440
  C       -0.6338910     0.9109410     0.0155220
  C       -2.5617390    -0.6507120     0.0005160
  C        1.5376510     0.0247200    -0.0002060
  H       -0.7522370    -2.4720050    -0.0099570
  H        1.7627064    -2.1690970    -0.0312699
  H       -2.8635010    -1.2105310     0.8892080
  H       -2.8583950    -1.1972750    -0.8980640
  H       -3.0263160     0.3321150     0.0069490
  H        3.5027140    -0.4263080     0.3467730
  H        3.1453740     1.2255370     0.1175850
units angstrom
no_reorient  #important for SAPT in psi4, default
symmetry c1  #important for SAPT in psi4, default
}

set PROPERTIES_ORIGIN ["COM"]
properties('MP2/aug-cc-pvtz', properties = ['dipole'])
--------------------------------------------------------------------------

    Molecular point group: c1
  Charge       = 0
  Multiplicity = 1
  Basis Set: AUG-CC-PVTZ
    Blend: AUG-CC-PVTZ
  Basis Set: (AUG-CC-PVTZ AUX)
    Blend: AUG-CC-PVTZ-JKFIT

    Orbital Energies [Eh]
    ---------------------

    Doubly Occupied:

       1A    -20.503905     2A    -15.626346     3A    -15.591070
       4A    -15.543156     5A    -11.372444     6A    -11.348494
       7A    -11.327282     8A    -11.271326     9A    -11.244969
      10A     -1.383582    11A     -1.297262    12A     -1.268856
      13A     -1.170640    14A     -1.072325    15A     -0.966652
      16A     -0.899177    17A     -0.853991    18A     -0.759494
      19A     -0.723026    20A     -0.686312    21A     -0.673237
      22A     -0.656936    23A     -0.621946    24A     -0.599355
      25A     -0.592979    26A     -0.580040    27A     -0.560707
      28A     -0.521969    29A     -0.477677    30A     -0.440870
      31A     -0.419526    32A     -0.387858    33A     -0.338508

  @DF-RHF Final Energy:  -431.80114561990587

   => Energetics <=

    Nuclear Repulsion Energy =            441.1587042097963831
    One-Electron Energy =               -1462.3558656181219249
    Two-Electron Energy =                 589.3960157884197315
    Total Energy =                       -431.8011456199058102
  Basis Set: (AUG-CC-PVTZ AUX)
    Blend: AUG-CC-PVTZ-RI
    Molecular point group: c1

    Geometry (in Angstrom), charge = 0, multiplicity = 1:

       Center              X                  Y                   Z               Mass
    ------------   -----------------  -----------------  -----------------  -----------------
         O           -1.433083341388     1.804991269409    -0.005157100746    15.994914619570
         N           -1.126393341388    -0.474421730591     0.009815899254    14.003074004430
         N            0.734175658612     1.023158269409     0.012869899254    14.003074004430
         N            2.883194658612     0.213443269409    -0.072676100746    14.003074004430
         C           -0.283509841388    -1.532390030591     0.002863199254    12.000000000000
         C            1.067784658612    -1.378212730591    -0.000735100746    12.000000000000
         C           -0.642639341388     0.862820269409     0.018830899254    12.000000000000
         C           -2.570487341388    -0.698832730591     0.003824899254    12.000000000000
         C            1.528902658612    -0.023400730591     0.003102899254    12.000000000000
         H           -0.760985341388    -2.520125730591    -0.006648100746     1.007825032230
         H            1.753958058612    -2.217217730591    -0.027961000746     1.007825032230
         H           -2.872249341388    -1.258651730591     0.892516899254     1.007825032230
         H           -2.867143341388    -1.245395730591    -0.894755100746     1.007825032230
         H           -3.035064341388     0.283994269409     0.010257899254     1.007825032230
         H            3.493965658612    -0.474428730591     0.350081899254     1.007825032230
         H            3.136625658612     1.177416269409     0.120893899254     1.007825032230

  Basis Set: AUG-CC-PVTZ
    Blend: AUG-CC-PVTZ
  Basis Set: (AUG-CC-PVTZ AUX)
    Blend: AUG-CC-PVTZ-JKFIT
	 Reference Energy          =    -431.8011456199058671 [Eh]
	 Singles Energy            =      -0.0000000000000000 [Eh]
	 Same-Spin Energy          =      -0.4504052826562661 [Eh]
	 Opposite-Spin Energy      =      -1.3720116146793000 [Eh]
	 Correlation Energy        =      -1.8224168973355661 [Eh]
	 Total Energy              =    -433.6235625172414530 [Eh]

	 ================> DF-SCS-MP2 Energies <==================
	-----------------------------------------------------------
	 SCS Same-Spin Scale       =       0.3333333333333333 [-]
	 SCS Opposite-Spin Scale   =       1.2000000000000000 [-]
	 SCS Same-Spin Energy      =      -0.1501350942187554 [Eh]
	 SCS Opposite-Spin Energy  =      -1.6464139376151599 [Eh]
	 SCS Correlation Energy    =      -1.7965490318339152 [Eh]
	 SCS Total Energy          =    -433.5976946517398005 [Eh]
	-----------------------------------------------------------

  Dipole Moment: [D]
     X:     1.6641      Y:    -5.6171      Z:     0.8324     Total:     5.9173

*** Psi4 exiting successfully. Buy a developer a beer!
