                               Psi4 1.4a3.dev225

  ==> Input File <==

--------------------------------------------------------------------------
#psi4
#
memory 32 gb

molecule  {
0 1
  O       -1.4602810    -1.8042760    -0.0008590
  N       -1.1067000     0.4494610     0.0014260
  N        0.7338450    -1.0777760     0.0056990
  N        2.8872480    -0.2944040    -0.0665390
  C       -0.2576190     1.5082170    -0.0002850
  C        1.0914800     1.3228940    -0.0047970
  C       -0.6316600    -0.8954310    -0.0014820
  C       -2.5563510     0.6193970     0.0049040
  C        1.5404980    -0.0347530    -0.0000590
  H       -0.7147670     2.4940890    -0.0022110
  H        1.7746080     2.1637920    -0.0246520
  H       -2.7876797     1.7059566     0.0041382
  H       -2.9802500     0.1433220     0.8903410
  H       -2.9840040     0.1411790    -0.8774920
  H        3.5206970     0.4000120     0.3068300
  H        3.1306380    -1.2574880     0.1361150
units angstrom
no_reorient  #important for SAPT in psi4, default
symmetry c1  #important for SAPT in psi4, default
}

set PROPERTIES_ORIGIN ["COM"]
properties('MP2/aug-cc-pvtz', properties = ['dipole'])
--------------------------------------------------------------------------

    Molecular point group: c1
  Charge       = 0
  Multiplicity = 1
  Basis Set: AUG-CC-PVTZ
    Blend: AUG-CC-PVTZ
  Basis Set: (AUG-CC-PVTZ AUX)
    Blend: AUG-CC-PVTZ-JKFIT

    Orbital Energies [Eh]
    ---------------------

    Doubly Occupied:

       1A    -20.503118     2A    -15.626369     3A    -15.591656
       4A    -15.542601     5A    -11.369395     6A    -11.349610
       7A    -11.328218     8A    -11.275985     9A    -11.243447
      10A     -1.383300    11A     -1.295559    12A     -1.267891
      13A     -1.171676    14A     -1.072448    15A     -0.963729
      16A     -0.898537    17A     -0.855148    18A     -0.759473
      19A     -0.724482    20A     -0.685969    21A     -0.674307
      22A     -0.655460    23A     -0.622571    24A     -0.601776
      25A     -0.588768    26A     -0.576299    27A     -0.564188
      28A     -0.517167    29A     -0.480357    30A     -0.442710
      31A     -0.418487    32A     -0.385161    33A     -0.337635

  @DF-RHF Final Energy:  -431.80275702232302

   => Energetics <=

    Nuclear Repulsion Energy =            441.4923809856913977
    One-Electron Energy =               -1463.0432796320071702
    Two-Electron Energy =                 589.7481416239927512
    Total Energy =                       -431.8027570223230214
  Basis Set: (AUG-CC-PVTZ AUX)
    Blend: AUG-CC-PVTZ-RI
    Molecular point group: c1

    Geometry (in Angstrom), charge = 0, multiplicity = 1:

       Center              X                  Y                   Z               Mass
    ------------   -----------------  -----------------  -----------------  -----------------
         O           -1.468592568217    -1.758696851411     0.002578486251    15.994914619570
         N           -1.115011568217     0.495040148589     0.004863486251    14.003074004430
         N            0.725533431783    -1.032196851411     0.009136486251    14.003074004430
         N            2.878936431783    -0.248824851411    -0.063101513749    14.003074004430
         C           -0.265930568217     1.553796148589     0.003152486251    12.000000000000
         C            1.083168431783     1.368473148589    -0.001359513749    12.000000000000
         C           -0.639971568217    -0.849851851411     0.001955486251    12.000000000000
         C           -2.564662568217     0.664976148589     0.008341486251    12.000000000000
         C            1.532186431783     0.010826148589     0.003378486251    12.000000000000
         H           -0.723078568217     2.539668148589     0.001226486251     1.007825032230
         H            1.766296431783     2.209371148589    -0.021214513749     1.007825032230
         H           -2.795991268217     1.751535748589     0.007575686251     1.007825032230
         H           -2.988561568217     0.188901148589     0.893778486251     1.007825032230
         H           -2.992315568217     0.186758148589    -0.874054513749     1.007825032230
         H            3.512385431783     0.445591148589     0.310267486251     1.007825032230
         H            3.122326431783    -1.211908851411     0.139552486251     1.007825032230

  Basis Set: AUG-CC-PVTZ
    Blend: AUG-CC-PVTZ
  Basis Set: (AUG-CC-PVTZ AUX)
    Blend: AUG-CC-PVTZ-JKFIT
	 Reference Energy          =    -431.8027570223230214 [Eh]
	 Singles Energy            =      -0.0000000000000000 [Eh]
	 Same-Spin Energy          =      -0.4504187158014212 [Eh]
	 Opposite-Spin Energy      =      -1.3720359546651193 [Eh]
	 Correlation Energy        =      -1.8224546704665405 [Eh]
	 Total Energy              =    -433.6252116927895486 [Eh]

	 ================> DF-SCS-MP2 Energies <==================
	-----------------------------------------------------------
	 SCS Same-Spin Scale       =       0.3333333333333333 [-]
	 SCS Opposite-Spin Scale   =       1.2000000000000000 [-]
	 SCS Same-Spin Energy      =      -0.1501395719338071 [Eh]
	 SCS Opposite-Spin Energy  =      -1.6464431455981432 [Eh]
	 SCS Correlation Energy    =      -1.7965827175319502 [Eh]
	 SCS Total Energy          =    -433.5993397398549973 [Eh]
	-----------------------------------------------------------

  Dipole Moment: [D]
     X:     1.8113      Y:     5.5995      Z:     0.7691     Total:     5.9352

*** Psi4 exiting successfully. Buy a developer a beer!
