                               Psi4 1.3.2 release

  ==> Input File <==

--------------------------------------------------------------------------
#psi4
#
memory 32 gb

molecule  {
0 1
  O       -1.4243350     1.8531120    -0.0084660
  N       -1.1176450    -0.4263010     0.0065070
  N        0.7429240     1.0712790     0.0095610
  N        2.8919430     0.2615640    -0.0759850
  C       -0.2733660    -1.4960510    -0.0007800
  C        1.0765330    -1.3300920    -0.0040440
  C       -0.5998737     1.0049751     0.0161559
  C       -2.5617390    -0.6507120     0.0005160
  C        1.5376510     0.0247200    -0.0002060
  H       -0.7522370    -2.4720050    -0.0099570
  H        1.7553550    -2.1750520    -0.0313920
  H       -2.8635010    -1.2105310     0.8892080
  H       -2.8583950    -1.1972750    -0.8980640
  H       -3.0263160     0.3321150     0.0069490
  H        3.5027140    -0.4263080     0.3467730
  H        3.1453740     1.2255370     0.1175850
units angstrom
no_reorient  #important for SAPT in psi4, default
symmetry c1  #important for SAPT in psi4, default
}

set PROPERTIES_ORIGIN ["COM"]
properties('MP2/aug-cc-pvtz', properties = ['dipole'])
--------------------------------------------------------------------------

    Molecular point group: c1
  Charge       = 0
  Multiplicity = 1
  Basis Set: AUG-CC-PVTZ
    Blend: AUG-CC-PVTZ
  Basis Set: (AUG-CC-PVTZ AUX)
    Blend: AUG-CC-PVTZ-JKFIT

    Orbital Energies [Eh]
    ---------------------

    Doubly Occupied:

       1A    -20.517711     2A    -15.610339     3A    -15.592607
       4A    -15.540080     5A    -11.376124     6A    -11.353789
       7A    -11.321551     8A    -11.263542     9A    -11.236699
      10A     -1.407737    11A     -1.299969    12A     -1.256042
      13A     -1.178266    14A     -1.066107    15A     -0.954379
      16A     -0.876829    17A     -0.863203    18A     -0.754837
      19A     -0.720548    20A     -0.681688    21A     -0.672006
      22A     -0.645425    23A     -0.635275    24A     -0.603334
      25A     -0.590302    26A     -0.584051    27A     -0.552876
      28A     -0.530978    29A     -0.477136    30A     -0.454980
      31A     -0.411441    32A     -0.390506    33A     -0.333444

  @DF-RHF Final Energy:  -431.79549106181344

   => Energetics <=

    Nuclear Repulsion Energy =            440.4426739261455737
    One-Electron Energy =               -1460.9687246624062027
    Two-Electron Energy =                 588.7305596744472496
    Total Energy =                       -431.7954910618134363
  Basis Set: (AUG-CC-PVTZ AUX)
    Blend: AUG-CC-PVTZ-RI
    Molecular point group: c1

    Geometry (in Angstrom), charge = 0, multiplicity = 1:

       Center              X                  Y                   Z               Mass
    ------------   -----------------  -----------------  -----------------  -----------------
         O           -1.436422125237     1.797146748875    -0.005184864818    15.994914619570
         N           -1.129732125237    -0.482266251125     0.009788135182    14.003074004430
         N            0.730836874763     1.015313748875     0.012842135182    14.003074004430
         N            2.879855874763     0.205598748875    -0.072703864818    14.003074004430
         C           -0.285453125237    -1.552016251125     0.002501135182    12.000000000000
         C            1.064445874763    -1.386057251125    -0.000762864818    12.000000000000
         C           -0.611960825237     0.949009848875     0.019437035182    12.000000000000
         C           -2.573826125237    -0.706677251125     0.003797135182    12.000000000000
         C            1.525563874763    -0.031245251125     0.003075135182    12.000000000000
         H           -0.764324125237    -2.527970251125    -0.006675864818     1.007825032230
         H            1.743267874763    -2.231017251125    -0.028110864818     1.007825032230
         H           -2.875588125237    -1.266496251125     0.892489135182     1.007825032230
         H           -2.870482125237    -1.253240251125    -0.894782864818     1.007825032230
         H           -3.038403125237     0.276149748875     0.010230135182     1.007825032230
         H            3.490626874763    -0.482273251125     0.350054135182     1.007825032230
         H            3.133286874763     1.169571748875     0.120866135182     1.007825032230

  Basis Set: AUG-CC-PVTZ
    Blend: AUG-CC-PVTZ
  Basis Set: (AUG-CC-PVTZ AUX)
    Blend: AUG-CC-PVTZ-JKFIT
	 Reference Energy          =    -431.7954910618134363 [Eh]
	 Singles Energy            =      -0.0000000000000000 [Eh]
	 Same-Spin Energy          =      -0.4502951136384901 [Eh]
	 Opposite-Spin Energy      =      -1.3710305135002785 [Eh]
	 Correlation Energy        =      -1.8213256271387686 [Eh]
	 Total Energy              =    -433.6168166889522126 [Eh]

	 ================> DF-SCS-MP2 Energies <==================
	-----------------------------------------------------------
	 SCS Same-Spin Scale       =       0.3333333333333333 [-]
	 SCS Opposite-Spin Scale   =       1.2000000000000000 [-]
	 SCS Same-Spin Energy      =      -0.1500983712128300 [Eh]
	 SCS Opposite-Spin Energy  =      -1.6452366162003342 [Eh]
	 SCS Correlation Energy    =      -1.7953349874131643 [Eh]
	 SCS Total Energy          =    -433.5908260492266209 [Eh]
	-----------------------------------------------------------

  Dipole Moment: [D]
     X:     1.6920      Y:    -4.9319      Z:     0.8287     Total:     5.2795

*** Psi4 exiting successfully. Buy a developer a beer!
