                               Psi4 1.4a3.dev225

  ==> Input File <==

--------------------------------------------------------------------------
#psi4
#
memory 32 gb

molecule  {
0 1
  O       -1.4602810    -1.8042760    -0.0008590
  N       -1.1067000     0.4494610     0.0014260
  N        0.7338450    -1.0777760     0.0056990
  N        2.8872480    -0.2944040    -0.0665390
  C       -0.2576190     1.5082170    -0.0002850
  C        1.0914800     1.3228940    -0.0047970
  C       -0.6316600    -0.8954310    -0.0014820
  C       -2.5563510     0.6193970     0.0049040
  C        1.5404980    -0.0347530    -0.0000590
  H       -0.7358006     2.5394495    -0.0022996
  H        1.7746080     2.1637920    -0.0246520
  H       -2.7835150     1.6863950     0.0041520
  H       -2.9802500     0.1433220     0.8903410
  H       -2.9840040     0.1411790    -0.8774920
  H        3.5206970     0.4000120     0.3068300
  H        3.1306380    -1.2574880     0.1361150
units angstrom
no_reorient  #important for SAPT in psi4, default
symmetry c1  #important for SAPT in psi4, default
}

set PROPERTIES_ORIGIN ["COM"]
properties('MP2/aug-cc-pvtz', properties = ['dipole'])
--------------------------------------------------------------------------

    Molecular point group: c1
  Charge       = 0
  Multiplicity = 1
  Basis Set: AUG-CC-PVTZ
    Blend: AUG-CC-PVTZ
  Basis Set: (AUG-CC-PVTZ AUX)
    Blend: AUG-CC-PVTZ-JKFIT

    Orbital Energies [Eh]
    ---------------------

    Doubly Occupied:

       1A    -20.503179     2A    -15.626581     3A    -15.591735
       4A    -15.542604     5A    -11.369532     6A    -11.349773
       7A    -11.333494     8A    -11.273486     9A    -11.243653
      10A     -1.383345    11A     -1.295541    12A     -1.267827
      13A     -1.171720    14A     -1.071673    15A     -0.965210
      16A     -0.894555    17A     -0.855352    18A     -0.759606
      19A     -0.720392    20A     -0.686331    21A     -0.671263
      22A     -0.655385    23A     -0.621524    24A     -0.598838
      25A     -0.589267    26A     -0.576448    27A     -0.566078
      28A     -0.517174    29A     -0.480407    30A     -0.442753
      31A     -0.418327    32A     -0.385217    33A     -0.337693

  @DF-RHF Final Energy:  -431.80073070026737

   => Energetics <=

    Nuclear Repulsion Energy =            441.3236598473887966
    One-Electron Energy =               -1462.7168578420214544
    Two-Electron Energy =                 589.5924672943652922
    Total Energy =                       -431.8007307002673087
  Basis Set: (AUG-CC-PVTZ AUX)
    Blend: AUG-CC-PVTZ-RI
    Molecular point group: c1

    Geometry (in Angstrom), charge = 0, multiplicity = 1:

       Center              X                  Y                   Z               Mass
    ------------   -----------------  -----------------  -----------------  -----------------
         O           -1.468456625089    -1.758904759643     0.002579089050    15.994914619570
         N           -1.114875625089     0.494832240357     0.004864089050    14.003074004430
         N            0.725669374911    -1.032404759643     0.009137089050    14.003074004430
         N            2.879072374911    -0.249032759643    -0.063100910950    14.003074004430
         C           -0.265794625089     1.553588240357     0.003153089050    12.000000000000
         C            1.083304374911     1.368265240357    -0.001358910950    12.000000000000
         C           -0.639835625089    -0.850059759643     0.001956089050    12.000000000000
         C           -2.564526625089     0.664768240357     0.008342089050    12.000000000000
         C            1.532322374911     0.010618240357     0.003379089050    12.000000000000
         H           -0.743976225089     2.584820740357     0.001138489050     1.007825032230
         H            1.766432374911     2.209163240357    -0.021213910950     1.007825032230
         H           -2.791690625089     1.731766240357     0.007590089050     1.007825032230
         H           -2.988425625089     0.188693240357     0.893779089050     1.007825032230
         H           -2.992179625089     0.186550240357    -0.874053910950     1.007825032230
         H            3.512521374911     0.445383240357     0.310268089050     1.007825032230
         H            3.122462374911    -1.212116759643     0.139553089050     1.007825032230

  Basis Set: AUG-CC-PVTZ
    Blend: AUG-CC-PVTZ
  Basis Set: (AUG-CC-PVTZ AUX)
    Blend: AUG-CC-PVTZ-JKFIT
	 Reference Energy          =    -431.8007307002673656 [Eh]
	 Singles Energy            =      -0.0000000000000000 [Eh]
	 Same-Spin Energy          =      -0.4505774038225833 [Eh]
	 Opposite-Spin Energy      =      -1.3723534605801491 [Eh]
	 Correlation Energy        =      -1.8229308644027324 [Eh]
	 Total Energy              =    -433.6236615646701011 [Eh]

	 ================> DF-SCS-MP2 Energies <==================
	-----------------------------------------------------------
	 SCS Same-Spin Scale       =       0.3333333333333333 [-]
	 SCS Opposite-Spin Scale   =       1.2000000000000000 [-]
	 SCS Same-Spin Energy      =      -0.1501924679408611 [Eh]
	 SCS Opposite-Spin Energy  =      -1.6468241526961789 [Eh]
	 SCS Correlation Energy    =      -1.7970166206370399 [Eh]
	 SCS Total Energy          =    -433.5977473209044319 [Eh]
	-----------------------------------------------------------

  Dipole Moment: [D]
     X:     1.8067      Y:     5.5975      Z:     0.7691     Total:     5.9319

*** Psi4 exiting successfully. Buy a developer a beer!
