                               Psi4 1.3.2 release

  ==> Input File <==

--------------------------------------------------------------------------
#psi4
#
memory 32 gb

molecule  {
0 1
  O       -1.4243350     1.8531120    -0.0084660
  N       -1.1176450    -0.4263010     0.0065070
  N        0.7429240     1.0712790     0.0095610
  N        2.8919430     0.2615640    -0.0759850
  C       -0.2733660    -1.4960510    -0.0007800
  C        1.0765330    -1.3300920    -0.0040440
  C       -0.6338910     0.9109410     0.0155220
  C       -2.5617390    -0.6507120     0.0005160
  C        1.5376510     0.0247200    -0.0002060
  H       -0.7522370    -2.4720050    -0.0099570
  H        1.7553550    -2.1750520    -0.0313920
  H       -2.8358876    -1.1593035     0.8078862
  H       -2.8583950    -1.1972750    -0.8980640
  H       -3.0263160     0.3321150     0.0069490
  H        3.5027140    -0.4263080     0.3467730
  H        3.1453740     1.2255370     0.1175850
units angstrom
no_reorient  #important for SAPT in psi4, default
symmetry c1  #important for SAPT in psi4, default
}

set PROPERTIES_ORIGIN ["COM"]
properties('MP2/aug-cc-pvtz', properties = ['dipole'])
--------------------------------------------------------------------------

    Molecular point group: c1
  Charge       = 0
  Multiplicity = 1
  Basis Set: AUG-CC-PVTZ
    Blend: AUG-CC-PVTZ
  Basis Set: (AUG-CC-PVTZ AUX)
    Blend: AUG-CC-PVTZ-JKFIT

    Orbital Energies [Eh]
    ---------------------

    Doubly Occupied:

       1A    -20.503064     2A    -15.624546     3A    -15.591175
       4A    -15.543166     5A    -11.371670     6A    -11.348857
       7A    -11.327073     8A    -11.258247     9A    -11.245558
      10A     -1.382107    11A     -1.295659    12A     -1.267317
      13A     -1.170508    14A     -1.073236    15A     -0.974096
      16A     -0.899532    17A     -0.855022    18A     -0.758766
      19A     -0.724570    20A     -0.688206    21A     -0.673798
      22A     -0.662110    23A     -0.621719    24A     -0.601978
      25A     -0.594049    26A     -0.586039    27A     -0.559185
      28A     -0.522940    29A     -0.477426    30A     -0.440460
      31A     -0.419314    32A     -0.387715    33A     -0.338730

  @DF-RHF Final Energy:  -431.79494437639454

   => Energetics <=

    Nuclear Repulsion Energy =            441.4121243842402009
    One-Electron Energy =               -1462.8384622957307784
    Two-Electron Energy =                 589.6313935350959810
    Total Energy =                       -431.7949443763945965
  Basis Set: (AUG-CC-PVTZ AUX)
    Blend: AUG-CC-PVTZ-RI
    Molecular point group: c1

    Geometry (in Angstrom), charge = 0, multiplicity = 1:

       Center              X                  Y                   Z               Mass
    ------------   -----------------  -----------------  -----------------  -----------------
         O           -1.433380533729     1.805756937683    -0.004468682785    15.994914619570
         N           -1.126690533729    -0.473656062317     0.010504317215    14.003074004430
         N            0.733878466271     1.023923937683     0.013558317215    14.003074004430
         N            2.882897466271     0.214208937683    -0.071987682785    14.003074004430
         C           -0.282411533729    -1.543406062317     0.003217317215    12.000000000000
         C            1.067487466271    -1.377447062317    -0.000046682785    12.000000000000
         C           -0.642936533729     0.863585937683     0.019519317215    12.000000000000
         C           -2.570784533729    -0.698067062317     0.004513317215    12.000000000000
         C            1.528605466271    -0.022635062317     0.003791317215    12.000000000000
         H           -0.761282533729    -2.519360062317    -0.005959682785     1.007825032230
         H            1.746309466271    -2.222407062317    -0.027394682785     1.007825032230
         H           -2.844933133729    -1.206658562317     0.811883517215     1.007825032230
         H           -2.867440533729    -1.244630062317    -0.894066682785     1.007825032230
         H           -3.035361533729     0.284759937683     0.010946317215     1.007825032230
         H            3.493668466271    -0.473663062317     0.350770317215     1.007825032230
         H            3.136328466271     1.178181937683     0.121582317215     1.007825032230

  Basis Set: AUG-CC-PVTZ
    Blend: AUG-CC-PVTZ
  Basis Set: (AUG-CC-PVTZ AUX)
    Blend: AUG-CC-PVTZ-JKFIT
	 Reference Energy          =    -431.7949443763945396 [Eh]
	 Singles Energy            =      -0.0000000000000000 [Eh]
	 Same-Spin Energy          =      -0.4504230298704295 [Eh]
	 Opposite-Spin Energy      =      -1.3717238154575191 [Eh]
	 Correlation Energy        =      -1.8221468453279486 [Eh]
	 Total Energy              =    -433.6170912217224895 [Eh]

	 ================> DF-SCS-MP2 Energies <==================
	-----------------------------------------------------------
	 SCS Same-Spin Scale       =       0.3333333333333333 [-]
	 SCS Opposite-Spin Scale   =       1.2000000000000000 [-]
	 SCS Same-Spin Energy      =      -0.1501410099568098 [Eh]
	 SCS Opposite-Spin Energy  =      -1.6460685785490228 [Eh]
	 SCS Correlation Energy    =      -1.7962095885058327 [Eh]
	 SCS Total Energy          =    -433.5911539649003998 [Eh]
	-----------------------------------------------------------

  Dipole Moment: [D]
     X:     1.6569      Y:    -5.6566      Z:     0.8578     Total:     5.9564

*** Psi4 exiting successfully. Buy a developer a beer!
