                               Psi4 1.3.2 release

  ==> Input File <==

--------------------------------------------------------------------------
#psi4
#
memory 32 gb

molecule  {
0 1
  O       -1.4406530     1.8391671    -0.0088623
  N       -1.1409005    -0.4176535     0.0058577
  N        0.7429240     1.0712790     0.0095610
  N        2.8919430     0.2615640    -0.0759850
  C       -0.2733660    -1.4960510    -0.0007800
  C        1.0765330    -1.3300920    -0.0040440
  C       -0.6338910     0.9109410     0.0155220
  C       -2.5617390    -0.6507120     0.0005160
  C        1.5376510     0.0247200    -0.0002060
  H       -0.7522370    -2.4720050    -0.0099570
  H        1.7553550    -2.1750520    -0.0313920
  H       -2.8635010    -1.2105310     0.8892080
  H       -2.8583950    -1.1972750    -0.8980640
  H       -3.0263160     0.3321150     0.0069490
  H        3.5027140    -0.4263080     0.3467730
  H        3.1453740     1.2255370     0.1175850
units angstrom
no_reorient  #important for SAPT in psi4, default
symmetry c1  #important for SAPT in psi4, default
}

set PROPERTIES_ORIGIN ["COM"]
properties('MP2/aug-cc-pvtz', properties = ['dipole'])
--------------------------------------------------------------------------

    Molecular point group: c1
  Charge       = 0
  Multiplicity = 1
  Basis Set: AUG-CC-PVTZ
    Blend: AUG-CC-PVTZ
  Basis Set: (AUG-CC-PVTZ AUX)
    Blend: AUG-CC-PVTZ-JKFIT

    Orbital Energies [Eh]
    ---------------------

    Doubly Occupied:

       1A    -20.502148     2A    -15.623254     3A    -15.593287
       4A    -15.545586     5A    -11.371875     6A    -11.351433
       7A    -11.328706     8A    -11.266734     9A    -11.248447
      10A     -1.382304    11A     -1.294441    12A     -1.266264
      13A     -1.172663    14A     -1.074132    15A     -0.965008
      16A     -0.897429    17A     -0.852984    18A     -0.759138
      19A     -0.722858    20A     -0.688001    21A     -0.675367
      22A     -0.655133    23A     -0.622145    24A     -0.603914
      25A     -0.594216    26A     -0.579774    27A     -0.554113
      28A     -0.521799    29A     -0.472133    30A     -0.441679
      31A     -0.420056    32A     -0.389032    33A     -0.340219

  @DF-RHF Final Energy:  -431.79977302511384

   => Energetics <=

    Nuclear Repulsion Energy =            440.8225231033039222
    One-Electron Energy =               -1461.6920502386931275
    Two-Electron Energy =                 589.0697541102754258
    Total Energy =                       -431.7997730251138364
  Basis Set: (AUG-CC-PVTZ AUX)
    Blend: AUG-CC-PVTZ-RI
    Molecular point group: c1

    Geometry (in Angstrom), charge = 0, multiplicity = 1:

       Center              X                  Y                   Z               Mass
    ------------   -----------------  -----------------  -----------------  -----------------
         O           -1.444784985619     1.793040132962    -0.005396949392    15.994914619570
         N           -1.145032485619    -0.463780467038     0.009323050608    14.003074004430
         N            0.738792014381     1.025152032962     0.013026350608    14.003074004430
         N            2.887811014381     0.215437032962    -0.072519649392    14.003074004430
         C           -0.277497985619    -1.542177967038     0.002685350608    12.000000000000
         C            1.072401014381    -1.376218967038    -0.000578649392    12.000000000000
         C           -0.638022985619     0.864814032962     0.018987350608    12.000000000000
         C           -2.565870985619    -0.696838967038     0.003981350608    12.000000000000
         C            1.533519014381    -0.021406967038     0.003259350608    12.000000000000
         H           -0.756368985619    -2.518131967038    -0.006491649392     1.007825032230
         H            1.751223014381    -2.221178967038    -0.027926649392     1.007825032230
         H           -2.867632985619    -1.256657967038     0.892673350608     1.007825032230
         H           -2.862526985619    -1.243401967038    -0.894598649392     1.007825032230
         H           -3.030447985619     0.285988032962     0.010414350608     1.007825032230
         H            3.498582014381    -0.472434967038     0.350238350608     1.007825032230
         H            3.141242014381     1.179410032962     0.121050350608     1.007825032230

  Basis Set: AUG-CC-PVTZ
    Blend: AUG-CC-PVTZ
  Basis Set: (AUG-CC-PVTZ AUX)
    Blend: AUG-CC-PVTZ-JKFIT
	 Reference Energy          =    -431.7997730251138364 [Eh]
	 Singles Energy            =      -0.0000000000000000 [Eh]
	 Same-Spin Energy          =      -0.4503529430138067 [Eh]
	 Opposite-Spin Energy      =      -1.3722422620773722 [Eh]
	 Correlation Energy        =      -1.8225952050911789 [Eh]
	 Total Energy              =    -433.6223682302050406 [Eh]

	 ================> DF-SCS-MP2 Energies <==================
	-----------------------------------------------------------
	 SCS Same-Spin Scale       =       0.3333333333333333 [-]
	 SCS Opposite-Spin Scale   =       1.2000000000000000 [-]
	 SCS Same-Spin Energy      =      -0.1501176476712689 [Eh]
	 SCS Opposite-Spin Energy  =      -1.6466907144928467 [Eh]
	 SCS Correlation Energy    =      -1.7968083621641155 [Eh]
	 SCS Total Energy          =    -433.5965813872779790 [Eh]
	-----------------------------------------------------------

  Dipole Moment: [D]
     X:     1.8802      Y:    -5.6122      Z:     0.8332     Total:     5.9771

*** Psi4 exiting successfully. Buy a developer a beer!
