                               Psi4 1.3.2 release

  ==> Input File <==

--------------------------------------------------------------------------
#psi4
#
memory 32 gb

molecule  {
0 1
  O       -1.4243350     1.8531120    -0.0084660
  N       -1.1176450    -0.4263010     0.0065070
  N        0.7429240     1.0712790     0.0095610
  N        2.8919430     0.2615640    -0.0759850
  C       -0.2733660    -1.4960510    -0.0007800
  C        1.0765330    -1.3300920    -0.0040440
  C       -0.6338910     0.9109410     0.0155220
  C       -2.5617390    -0.6507120     0.0005160
  C        1.5376510     0.0247200    -0.0002060
  H       -0.7081886    -2.3822329    -0.0091129
  H        1.7553550    -2.1750520    -0.0313920
  H       -2.8635010    -1.2105310     0.8892080
  H       -2.8583950    -1.1972750    -0.8980640
  H       -3.0263160     0.3321150     0.0069490
  H        3.5027140    -0.4263080     0.3467730
  H        3.1453740     1.2255370     0.1175850
units angstrom
no_reorient  #important for SAPT in psi4, default
symmetry c1  #important for SAPT in psi4, default
}

set PROPERTIES_ORIGIN ["COM"]
properties('MP2/aug-cc-pvtz', properties = ['dipole'])
--------------------------------------------------------------------------

    Molecular point group: c1
  Charge       = 0
  Multiplicity = 1
  Basis Set: AUG-CC-PVTZ
    Blend: AUG-CC-PVTZ
  Basis Set: (AUG-CC-PVTZ AUX)
    Blend: AUG-CC-PVTZ-JKFIT

    Orbital Energies [Eh]
    ---------------------

    Doubly Occupied:

       1A    -20.503258     2A    -15.624737     3A    -15.591337
       4A    -15.543500     5A    -11.371768     6A    -11.348911
       7A    -11.316109     8A    -11.270546     9A    -11.245717
      10A     -1.382332    11A     -1.296097    12A     -1.267739
      13A     -1.170634    14A     -1.075260    15A     -0.965154
      16A     -0.910303    17A     -0.853698    18A     -0.759149
      19A     -0.734636    20A     -0.685579    21A     -0.679853
      22A     -0.655382    23A     -0.623846    24A     -0.607457
      25A     -0.592574    26A     -0.579735    27A     -0.558969
      28A     -0.521681    29A     -0.476119    30A     -0.440708
      31A     -0.419961    32A     -0.387609    33A     -0.338785

  @DF-RHF Final Energy:  -431.79522966683544

   => Energetics <=

    Nuclear Repulsion Energy =            441.4841300565626625
    One-Electron Energy =               -1462.9604345387288049
    Two-Electron Energy =                 589.6810748153307031
    Total Energy =                       -431.7952296668354393
  Basis Set: (AUG-CC-PVTZ AUX)
    Blend: AUG-CC-PVTZ-RI
    Molecular point group: c1

    Geometry (in Angstrom), charge = 0, multiplicity = 1:

       Center              X                  Y                   Z               Mass
    ------------   -----------------  -----------------  -----------------  -----------------
         O           -1.433512980143     1.805446314376    -0.005130841519    15.994914619570
         N           -1.126822980143    -0.473966685624     0.009842158481    14.003074004430
         N            0.733746019857     1.023613314376     0.012896158481    14.003074004430
         N            2.882765019857     0.213898314376    -0.072649841519    14.003074004430
         C           -0.282543980143    -1.543716685624     0.002555158481    12.000000000000
         C            1.067355019857    -1.377757685624    -0.000708841519    12.000000000000
         C           -0.643068980143     0.863275314376     0.018857158481    12.000000000000
         C           -2.570916980143    -0.698377685624     0.003851158481    12.000000000000
         C            1.528473019857    -0.022945685624     0.003129158481    12.000000000000
         H           -0.717366580143    -2.429898585624    -0.005777741519     1.007825032230
         H            1.746177019857    -2.222717685624    -0.028056841519     1.007825032230
         H           -2.872678980143    -1.258196685624     0.892543158481     1.007825032230
         H           -2.867572980143    -1.244940685624    -0.894728841519     1.007825032230
         H           -3.035493980143     0.284449314376     0.010284158481     1.007825032230
         H            3.493536019857    -0.473973685624     0.350108158481     1.007825032230
         H            3.136196019857     1.177871314376     0.120920158481     1.007825032230

  Basis Set: AUG-CC-PVTZ
    Blend: AUG-CC-PVTZ
  Basis Set: (AUG-CC-PVTZ AUX)
    Blend: AUG-CC-PVTZ-JKFIT
	 Reference Energy          =    -431.7952296668354393 [Eh]
	 Singles Energy            =      -0.0000000000000000 [Eh]
	 Same-Spin Energy          =      -0.4501626230282666 [Eh]
	 Opposite-Spin Energy      =      -1.3716207814942436 [Eh]
	 Correlation Energy        =      -1.8217834045225101 [Eh]
	 Total Energy              =    -433.6170130713579738 [Eh]

	 ================> DF-SCS-MP2 Energies <==================
	-----------------------------------------------------------
	 SCS Same-Spin Scale       =       0.3333333333333333 [-]
	 SCS Opposite-Spin Scale   =       1.2000000000000000 [-]
	 SCS Same-Spin Energy      =      -0.1500542076760888 [Eh]
	 SCS Opposite-Spin Energy  =      -1.6459449377930924 [Eh]
	 SCS Correlation Energy    =      -1.7959991454691813 [Eh]
	 SCS Total Energy          =    -433.5912288123046210 [Eh]
	-----------------------------------------------------------

  Dipole Moment: [D]
     X:     1.7046      Y:    -5.6410      Z:     0.8327     Total:     5.9514

*** Psi4 exiting successfully. Buy a developer a beer!
