                               Psi4 1.3.2 release

  ==> Input File <==

--------------------------------------------------------------------------
#psi4
#
memory 32 gb

molecule  {
0 1
  O       -1.4243350     1.8531120    -0.0084660
  N       -1.1176450    -0.4263010     0.0065070
  N        0.6893494     1.0282974     0.0135426
  N        2.9025771     0.1902816    -0.0744391
  C       -0.2733660    -1.4960510    -0.0007800
  C        1.0765330    -1.3300920    -0.0040440
  C       -0.6338910     0.9109410     0.0155220
  C       -2.5617390    -0.6507120     0.0005160
  C        1.5376510     0.0247200    -0.0002060
  H       -0.7522370    -2.4720050    -0.0099570
  H        1.7553550    -2.1750520    -0.0313920
  H       -2.8635010    -1.2105310     0.8892080
  H       -2.8583950    -1.1972750    -0.8980640
  H       -3.0263160     0.3321150     0.0069490
  H        3.5027140    -0.4263080     0.3467730
  H        3.1453740     1.2255370     0.1175850
units angstrom
no_reorient  #important for SAPT in psi4, default
symmetry c1  #important for SAPT in psi4, default
}

set PROPERTIES_ORIGIN ["COM"]
properties('MP2/aug-cc-pvtz', properties = ['dipole'])
--------------------------------------------------------------------------

    Molecular point group: c1
  Charge       = 0
  Multiplicity = 1
  Basis Set: AUG-CC-PVTZ
    Blend: AUG-CC-PVTZ
  Basis Set: (AUG-CC-PVTZ AUX)
    Blend: AUG-CC-PVTZ-JKFIT

    Orbital Energies [Eh]
    ---------------------

    Doubly Occupied:

       1A    -20.497612     2A    -15.621912     3A    -15.598317
       4A    -15.539238     5A    -11.366628     6A    -11.356176
       7A    -11.324715     8A    -11.267720     9A    -11.242492
      10A     -1.383818    11A     -1.296493    12A     -1.266370
      13A     -1.185866    14A     -1.071406    15A     -0.966457
      16A     -0.895500    17A     -0.868781    18A     -0.757223
      19A     -0.735066    20A     -0.697107    21A     -0.667038
      22A     -0.655378    23A     -0.616709    24A     -0.595671
      25A     -0.593829    26A     -0.583153    27A     -0.556506
      28A     -0.523219    29A     -0.474919    30A     -0.432502
      31A     -0.416978    32A     -0.392223    33A     -0.337645

  @DF-RHF Final Energy:  -431.79033783999694

   => Energetics <=

    Nuclear Repulsion Energy =            442.3673078290087233
    One-Electron Energy =               -1464.7459552869518120
    Two-Electron Energy =                 590.5883096179461518
    Total Energy =                       -431.7903378399969370
  Basis Set: (AUG-CC-PVTZ AUX)
    Blend: AUG-CC-PVTZ-RI
    Molecular point group: c1

    Geometry (in Angstrom), charge = 0, multiplicity = 1:

       Center              X                  Y                   Z               Mass
    ------------   -----------------  -----------------  -----------------  -----------------
         O           -1.428349876852     1.818964118046    -0.005742963321    15.994914619570
         N           -1.121659876852    -0.460448881954     0.009230036679    14.003074004430
         N            0.685334523148     0.994149518046     0.016265636679    14.003074004430
         N            2.898562223148     0.156133718046    -0.071716063321    14.003074004430
         C           -0.277380876852    -1.530198881954     0.001943036679    12.000000000000
         C            1.072518123148    -1.364239881954    -0.001320963321    12.000000000000
         C           -0.637905876852     0.876793118046     0.018245036679    12.000000000000
         C           -2.565753876852    -0.684859881954     0.003239036679    12.000000000000
         C            1.533636123148    -0.009427881954     0.002517036679    12.000000000000
         H           -0.756251876852    -2.506152881954    -0.007233963321     1.007825032230
         H            1.751340123148    -2.209199881954    -0.028668963321     1.007825032230
         H           -2.867515876852    -1.244678881954     0.891931036679     1.007825032230
         H           -2.862409876852    -1.231422881954    -0.895340963321     1.007825032230
         H           -3.030330876852     0.297967118046     0.009672036679     1.007825032230
         H            3.498699123148    -0.460455881954     0.349496036679     1.007825032230
         H            3.141359123148     1.191389118046     0.120308036679     1.007825032230

  Basis Set: AUG-CC-PVTZ
    Blend: AUG-CC-PVTZ
  Basis Set: (AUG-CC-PVTZ AUX)
    Blend: AUG-CC-PVTZ-JKFIT
	 Reference Energy          =    -431.7903378399969370 [Eh]
	 Singles Energy            =      -0.0000000000000000 [Eh]
	 Same-Spin Energy          =      -0.4510479011086378 [Eh]
	 Opposite-Spin Energy      =      -1.3720232517097184 [Eh]
	 Correlation Energy        =      -1.8230711528183563 [Eh]
	 Total Energy              =    -433.6134089928152662 [Eh]

	 ================> DF-SCS-MP2 Energies <==================
	-----------------------------------------------------------
	 SCS Same-Spin Scale       =       0.3333333333333333 [-]
	 SCS Opposite-Spin Scale   =       1.2000000000000000 [-]
	 SCS Same-Spin Energy      =      -0.1503493003695459 [Eh]
	 SCS Opposite-Spin Energy  =      -1.6464279020516621 [Eh]
	 SCS Correlation Energy    =      -1.7967772024212081 [Eh]
	 SCS Total Energy          =    -433.5871150424181337 [Eh]
	-----------------------------------------------------------

  Dipole Moment: [D]
     X:     1.9955      Y:    -5.5447      Z:     0.8357     Total:     5.9518

*** Psi4 exiting successfully. Buy a developer a beer!
