                               Psi4 1.3.2 release

  ==> Input File <==

--------------------------------------------------------------------------
#psi4
#
memory 32 gb

molecule  {
0 1
  O       -1.4243350     1.8531120    -0.0084660
  N       -1.1176450    -0.4263010     0.0065070
  N        0.7429240     1.0712790     0.0095610
  N        2.8919430     0.2615640    -0.0759850
  C       -0.2733660    -1.4960510    -0.0007800
  C        1.0765330    -1.3300920    -0.0040440
  C       -0.6338910     0.9109410     0.0155220
  C       -2.5617390    -0.6507120     0.0005160
  C        1.5376510     0.0247200    -0.0002060
  H       -0.7522370    -2.4720050    -0.0099570
  H        1.6301350    -2.0191851    -0.0263472
  H       -2.8635010    -1.2105310     0.8892080
  H       -2.8583950    -1.1972750    -0.8980640
  H       -3.0263160     0.3321150     0.0069490
  H        3.5027140    -0.4263080     0.3467730
  H        3.1453740     1.2255370     0.1175850
units angstrom
no_reorient  #important for SAPT in psi4, default
symmetry c1  #important for SAPT in psi4, default
}

set PROPERTIES_ORIGIN ["COM"]
properties('MP2/aug-cc-pvtz', properties = ['dipole'])
--------------------------------------------------------------------------

    Molecular point group: c1
  Charge       = 0
  Multiplicity = 1
  Basis Set: AUG-CC-PVTZ
    Blend: AUG-CC-PVTZ
  Basis Set: (AUG-CC-PVTZ AUX)
    Blend: AUG-CC-PVTZ-JKFIT

    Orbital Energies [Eh]
    ---------------------

    Doubly Occupied:

       1A    -20.503293     2A    -15.624923     3A    -15.591712
       4A    -15.542435     5A    -11.371783     6A    -11.347798
       7A    -11.326601     8A    -11.270168     9A    -11.222834
      10A     -1.382150    11A     -1.295826    12A     -1.267165
      13A     -1.170245    14A     -1.082645    15A     -0.967674
      16A     -0.903842    17A     -0.859019    18A     -0.758922
      19A     -0.741881    20A     -0.700775    21A     -0.678524
      22A     -0.655064    23A     -0.631012    24A     -0.602893
      25A     -0.596412    26A     -0.579538    27A     -0.560229
      28A     -0.521751    29A     -0.475834    30A     -0.440816
      31A     -0.419567    32A     -0.387470    33A     -0.338917

  @DF-RHF Final Energy:  -431.76586479871872

   => Energetics <=

    Nuclear Repulsion Energy =            442.1193586408792271
    One-Electron Energy =               -1464.1310038446172257
    Two-Electron Energy =                 590.2457804050193317
    Total Energy =                       -431.7658647987186669
  Basis Set: (AUG-CC-PVTZ AUX)
    Blend: AUG-CC-PVTZ-RI
    Molecular point group: c1

    Geometry (in Angstrom), charge = 0, multiplicity = 1:

       Center              X                  Y                   Z               Mass
    ------------   -----------------  -----------------  -----------------  -----------------
         O           -1.432148879591     1.804913669457    -0.005164694130    15.994914619570
         N           -1.125458879591    -0.474499330543     0.009808305870    14.003074004430
         N            0.735110120409     1.023080669457     0.012862305870    14.003074004430
         N            2.884129120409     0.213365669457    -0.072683694130    14.003074004430
         C           -0.281179879591    -1.544249330543     0.002521305870    12.000000000000
         C            1.068719120409    -1.378290330543    -0.000742694130    12.000000000000
         C           -0.641704879591     0.862742669457     0.018823305870    12.000000000000
         C           -2.569552879591    -0.698910330543     0.003817305870    12.000000000000
         C            1.529837120409    -0.023478330543     0.003095305870    12.000000000000
         H           -0.760050879591    -2.520203330543    -0.006655694130     1.007825032230
         H            1.622321120409    -2.067383430543    -0.023045894130     1.007825032230
         H           -2.871314879591    -1.258729330543     0.892509305870     1.007825032230
         H           -2.866208879591    -1.245473330543    -0.894762694130     1.007825032230
         H           -3.034129879591     0.283916669457     0.010250305870     1.007825032230
         H            3.494900120409    -0.474506330543     0.350074305870     1.007825032230
         H            3.137560120409     1.177338669457     0.120886305870     1.007825032230

  Basis Set: AUG-CC-PVTZ
    Blend: AUG-CC-PVTZ
  Basis Set: (AUG-CC-PVTZ AUX)
    Blend: AUG-CC-PVTZ-JKFIT
	 Reference Energy          =    -431.7658647987187237 [Eh]
	 Singles Energy            =      -0.0000000000000000 [Eh]
	 Same-Spin Energy          =      -0.4501537047395540 [Eh]
	 Opposite-Spin Energy      =      -1.3716887506591302 [Eh]
	 Correlation Energy        =      -1.8218424553986843 [Eh]
	 Total Energy              =    -433.5877072541173902 [Eh]

	 ================> DF-SCS-MP2 Energies <==================
	-----------------------------------------------------------
	 SCS Same-Spin Scale       =       0.3333333333333333 [-]
	 SCS Opposite-Spin Scale   =       1.2000000000000000 [-]
	 SCS Same-Spin Energy      =      -0.1500512349131847 [Eh]
	 SCS Opposite-Spin Energy  =      -1.6460265007909562 [Eh]
	 SCS Correlation Energy    =      -1.7960777357041409 [Eh]
	 SCS Total Energy          =    -433.5619425344228830 [Eh]
	-----------------------------------------------------------

  Dipole Moment: [D]
     X:     1.6947      Y:    -5.6413      Z:     0.8366     Total:     5.9495

*** Psi4 exiting successfully. Buy a developer a beer!
