                               Psi4 1.3.2 release

  ==> Input File <==

--------------------------------------------------------------------------
#psi4
#
memory 32 gb

molecule  {
0 1
  O       -1.4243350     1.8531120    -0.0084660
  N       -1.1269482    -0.4337090     0.0064259
  N        0.7429240     1.0712790     0.0095610
  N        2.8919430     0.2615640    -0.0759850
  C       -0.2733660    -1.4960510    -0.0007800
  C        1.0765330    -1.3300920    -0.0040440
  C       -0.6338910     0.9109410     0.0155220
  C       -2.5617390    -0.6507120     0.0005160
  C        1.5376510     0.0247200    -0.0002060
  H       -0.7607358    -2.4677889    -0.0099388
  H        1.7553550    -2.1750520    -0.0313920
  H       -2.8635010    -1.2105310     0.8892080
  H       -2.8583950    -1.1972750    -0.8980640
  H       -3.0263160     0.3321150     0.0069490
  H        3.5027140    -0.4263080     0.3467730
  H        3.1453740     1.2255370     0.1175850
units angstrom
no_reorient  #important for SAPT in psi4, default
symmetry c1  #important for SAPT in psi4, default
}

set PROPERTIES_ORIGIN ["COM"]
properties('MP2/aug-cc-pvtz', properties = ['dipole'])
--------------------------------------------------------------------------

    Molecular point group: c1
  Charge       = 0
  Multiplicity = 1
  Basis Set: AUG-CC-PVTZ
    Blend: AUG-CC-PVTZ
  Basis Set: (AUG-CC-PVTZ AUX)
    Blend: AUG-CC-PVTZ-JKFIT

    Orbital Energies [Eh]
    ---------------------

    Doubly Occupied:

       1A    -20.504686     2A    -15.625065     3A    -15.591839
       4A    -15.544083     5A    -11.373338     6A    -11.349701
       7A    -11.327241     8A    -11.269460     9A    -11.245896
      10A     -1.382286    11A     -1.296182    12A     -1.268166
      13A     -1.171331    14A     -1.072838    15A     -0.965302
      16A     -0.897843    17A     -0.853900    18A     -0.758809
      19A     -0.723227    20A     -0.686760    21A     -0.673960
      22A     -0.655740    23A     -0.622372    24A     -0.601914
      25A     -0.593352    26A     -0.579846    27A     -0.559187
      28A     -0.521535    29A     -0.476314    30A     -0.441417
      31A     -0.420016    32A     -0.388099    33A     -0.338690

  @DF-RHF Final Energy:  -431.80066871506898

   => Energetics <=

    Nuclear Repulsion Energy =            440.7867917437380925
    One-Electron Energy =               -1461.6141309266579356
    Two-Electron Energy =                 589.0266704678507494
    Total Energy =                       -431.8006687150690368
  Basis Set: (AUG-CC-PVTZ AUX)
    Blend: AUG-CC-PVTZ-RI
    Molecular point group: c1

    Geometry (in Angstrom), charge = 0, multiplicity = 1:

       Center              X                  Y                   Z               Mass
    ------------   -----------------  -----------------  -----------------  -----------------
         O           -1.432047816414     1.806965280501    -0.005115104840    15.994914619570
         N           -1.134661016414    -0.479855719499     0.009776795160    14.003074004430
         N            0.735211183586     1.025132280501     0.012911895160    14.003074004430
         N            2.884230183586     0.215417280501    -0.072634104840    14.003074004430
         C           -0.281078816414    -1.542197719499     0.002570895160    12.000000000000
         C            1.068820183586    -1.376238719499    -0.000693104840    12.000000000000
         C           -0.641603816414     0.864794280501     0.018872895160    12.000000000000
         C           -2.569451816414    -0.696858719499     0.003866895160    12.000000000000
         C            1.529938183586    -0.021426719499     0.003144895160    12.000000000000
         H           -0.768448616414    -2.513935619499    -0.006587904840     1.007825032230
         H            1.747642183586    -2.221198719499    -0.028041104840     1.007825032230
         H           -2.871213816414    -1.256677719499     0.892558895160     1.007825032230
         H           -2.866107816414    -1.243421719499    -0.894713104840     1.007825032230
         H           -3.034028816414     0.285968280501     0.010299895160     1.007825032230
         H            3.495001183586    -0.472454719499     0.350123895160     1.007825032230
         H            3.137661183586     1.179390280501     0.120935895160     1.007825032230

  Basis Set: AUG-CC-PVTZ
    Blend: AUG-CC-PVTZ
  Basis Set: (AUG-CC-PVTZ AUX)
    Blend: AUG-CC-PVTZ-JKFIT
	 Reference Energy          =    -431.8006687150689800 [Eh]
	 Singles Energy            =      -0.0000000000000000 [Eh]
	 Same-Spin Energy          =      -0.4504548763123045 [Eh]
	 Opposite-Spin Energy      =      -1.3722725882551938 [Eh]
	 Correlation Energy        =      -1.8227274645674982 [Eh]
	 Total Energy              =    -433.6233961796364724 [Eh]

	 ================> DF-SCS-MP2 Energies <==================
	-----------------------------------------------------------
	 SCS Same-Spin Scale       =       0.3333333333333333 [-]
	 SCS Opposite-Spin Scale   =       1.2000000000000000 [-]
	 SCS Same-Spin Energy      =      -0.1501516254374348 [Eh]
	 SCS Opposite-Spin Energy  =      -1.6467271059062325 [Eh]
	 SCS Correlation Energy    =      -1.7968787313436674 [Eh]
	 SCS Total Energy          =    -433.5975474464126478 [Eh]
	-----------------------------------------------------------

  Dipole Moment: [D]
     X:     1.7162      Y:    -5.5854      Z:     0.8321     Total:     5.9020

*** Psi4 exiting successfully. Buy a developer a beer!
