                               Psi4 1.4a3.dev225

  ==> Input File <==

--------------------------------------------------------------------------
#psi4
#
memory 32 gb

molecule  {
0 1
  O       -1.4602810    -1.8042760    -0.0008590
  N       -1.1067000     0.4494610     0.0014260
  N        0.7338450    -1.0777760     0.0056990
  N        2.8872480    -0.2944040    -0.0665390
  C       -0.2576190     1.5082170    -0.0002850
  C        1.0914800     1.3228940    -0.0047970
  C       -0.6316600    -0.8954310    -0.0014820
  C       -2.5563510     0.6193970     0.0049040
  C        1.5404980    -0.0347530    -0.0000590
  H       -0.7147670     2.4940890    -0.0022110
  H        1.7746080     2.1637920    -0.0246520
  H       -2.7835150     1.6863950     0.0041520
  H       -2.9802500     0.1433220     0.8903410
  H       -2.9840040     0.1411790    -0.8774920
  H        3.5520133     0.4343424     0.3252885
  H        3.1306380    -1.2574880     0.1361150
units angstrom
no_reorient  #important for SAPT in psi4, default
symmetry c1  #important for SAPT in psi4, default
}

set PROPERTIES_ORIGIN ["COM"]
properties('MP2/aug-cc-pvtz', properties = ['dipole'])
--------------------------------------------------------------------------

    Molecular point group: c1
  Charge       = 0
  Multiplicity = 1
  Basis Set: AUG-CC-PVTZ
    Blend: AUG-CC-PVTZ
  Basis Set: (AUG-CC-PVTZ AUX)
    Blend: AUG-CC-PVTZ-JKFIT

    Orbital Energies [Eh]
    ---------------------

    Doubly Occupied:

       1A    -20.502848     2A    -15.625963     3A    -15.596173
       4A    -15.542425     5A    -11.369129     6A    -11.349428
       7A    -11.327965     8A    -11.273441     9A    -11.243190
      10A     -1.383001    11A     -1.294528    12A     -1.265885
      13A     -1.167800    14A     -1.072182    15A     -0.964255
      16A     -0.898505    17A     -0.852292    18A     -0.757592
      19A     -0.723177    20A     -0.684083    21A     -0.666960
      22A     -0.654968    23A     -0.622284    24A     -0.601204
      25A     -0.589571    26A     -0.576122    27A     -0.566058
      28A     -0.516589    29A     -0.480062    30A     -0.442502
      31A     -0.418216    32A     -0.384434    33A     -0.337360

  @DF-RHF Final Energy:  -431.79963839615880

   => Energetics <=

    Nuclear Repulsion Energy =            441.3206815544994583
    One-Electron Energy =               -1462.7402583915973082
    Two-Electron Energy =                 589.6199384409389950
    Total Energy =                       -431.7996383961587981
  Basis Set: (AUG-CC-PVTZ AUX)
    Blend: AUG-CC-PVTZ-RI
    Molecular point group: c1

    Geometry (in Angstrom), charge = 0, multiplicity = 1:

       Center              X                  Y                   Z               Mass
    ------------   -----------------  -----------------  -----------------  -----------------
         O           -1.468878502578    -1.758815870249     0.002429621640    15.994914619570
         N           -1.115297502578     0.494921129751     0.004714621640    14.003074004430
         N            0.725247497422    -1.032315870249     0.008987621640    14.003074004430
         N            2.878650497422    -0.248943870249    -0.063250378360    14.003074004430
         C           -0.266216502578     1.553677129751     0.003003621640    12.000000000000
         C            1.082882497422     1.368354129751    -0.001508378360    12.000000000000
         C           -0.640257502578    -0.849970870249     0.001806621640    12.000000000000
         C           -2.564948502578     0.664857129751     0.008192621640    12.000000000000
         C            1.531900497422     0.010707129751     0.003229621640    12.000000000000
         H           -0.723364502578     2.539549129751     0.001077621640     1.007825032230
         H            1.766010497422     2.209252129751    -0.021363378360     1.007825032230
         H           -2.792112502578     1.731855129751     0.007440621640     1.007825032230
         H           -2.988847502578     0.188782129751     0.893629621640     1.007825032230
         H           -2.992601502578     0.186639129751    -0.874203378360     1.007825032230
         H            3.543415797422     0.479802529751     0.328577121640     1.007825032230
         H            3.122040497422    -1.212027870249     0.139403621640     1.007825032230

  Basis Set: AUG-CC-PVTZ
    Blend: AUG-CC-PVTZ
  Basis Set: (AUG-CC-PVTZ AUX)
    Blend: AUG-CC-PVTZ-JKFIT
	 Reference Energy          =    -431.7996383961587981 [Eh]
	 Singles Energy            =      -0.0000000000000000 [Eh]
	 Same-Spin Energy          =      -0.4507058182680433 [Eh]
	 Opposite-Spin Energy      =      -1.3727508660147933 [Eh]
	 Correlation Energy        =      -1.8234566842828366 [Eh]
	 Total Energy              =    -433.6230950804416580 [Eh]

	 ================> DF-SCS-MP2 Energies <==================
	-----------------------------------------------------------
	 SCS Same-Spin Scale       =       0.3333333333333333 [-]
	 SCS Opposite-Spin Scale   =       1.2000000000000000 [-]
	 SCS Same-Spin Energy      =      -0.1502352727560144 [Eh]
	 SCS Opposite-Spin Energy  =      -1.6473010392177521 [Eh]
	 SCS Correlation Energy    =      -1.7975363119737664 [Eh]
	 SCS Total Energy          =    -433.5971747081325702 [Eh]
	-----------------------------------------------------------

  Dipole Moment: [D]
     X:     1.8397      Y:     5.6314      Z:     0.7815     Total:     5.9756

*** Psi4 exiting successfully. Buy a developer a beer!
