                               Psi4 1.3.2 release

  ==> Input File <==

--------------------------------------------------------------------------
#psi4
#
memory 32 gb

molecule  {
0 1
  O       -1.4243350     1.8531120    -0.0084660
  N       -1.1176450    -0.4263010     0.0065070
  N        0.7429240     1.0712790     0.0095610
  N        2.8919430     0.2615640    -0.0759850
  C       -0.2760565    -1.4724668    -0.0006822
  C        1.0765330    -1.3300920    -0.0040440
  C       -0.6338910     0.9109410     0.0155220
  C       -2.5617390    -0.6507120     0.0005160
  C        1.5139361     0.0325610    -0.0001076
  H       -0.7522370    -2.4720050    -0.0099570
  H        1.7553550    -2.1750520    -0.0313920
  H       -2.8635010    -1.2105310     0.8892080
  H       -2.8583950    -1.1972750    -0.8980640
  H       -3.0263160     0.3321150     0.0069490
  H        3.5027140    -0.4263080     0.3467730
  H        3.1453740     1.2255370     0.1175850
units angstrom
no_reorient  #important for SAPT in psi4, default
symmetry c1  #important for SAPT in psi4, default
}

set PROPERTIES_ORIGIN ["COM"]
properties('MP2/aug-cc-pvtz', properties = ['dipole'])
--------------------------------------------------------------------------

    Molecular point group: c1
  Charge       = 0
  Multiplicity = 1
  Basis Set: AUG-CC-PVTZ
    Blend: AUG-CC-PVTZ
  Basis Set: (AUG-CC-PVTZ AUX)
    Blend: AUG-CC-PVTZ-JKFIT

    Orbital Energies [Eh]
    ---------------------

    Doubly Occupied:

       1A    -20.506873     2A    -15.628228     3A    -15.586232
       4A    -15.545025     5A    -11.375071     6A    -11.346717
       7A    -11.326817     8A    -11.273066     9A    -11.244173
      10A     -1.387410    11A     -1.300336    12A     -1.267904
      13A     -1.171514    14A     -1.073104    15A     -0.968755
      16A     -0.899640    17A     -0.855198    18A     -0.758932
      19A     -0.721347    20A     -0.683855    21A     -0.670442
      22A     -0.659803    23A     -0.623042    24A     -0.596375
      25A     -0.595170    26A     -0.581666    27A     -0.562403
      28A     -0.519431    29A     -0.480056    30A     -0.444956
      31A     -0.421772    32A     -0.390648    33A     -0.339070

  @DF-RHF Final Energy:  -431.80042038358386

   => Energetics <=

    Nuclear Repulsion Energy =            441.6608344532389197
    One-Electron Energy =               -1463.3124471897283456
    Two-Electron Energy =                 589.8511923529055139
    Total Energy =                       -431.8004203835838553
  Basis Set: (AUG-CC-PVTZ AUX)
    Blend: AUG-CC-PVTZ-RI
    Molecular point group: c1

    Geometry (in Angstrom), charge = 0, multiplicity = 1:

       Center              X                  Y                   Z               Mass
    ------------   -----------------  -----------------  -----------------  -----------------
         O           -1.430624278532     1.803154371913    -0.005142865412    15.994914619570
         N           -1.123934278532    -0.476258628087     0.009830134588    14.003074004430
         N            0.736634721468     1.021321371913     0.012884134588    14.003074004430
         N            2.885653721468     0.211606371913    -0.072661865412    14.003074004430
         C           -0.282345778532    -1.522424428087     0.002640934588    12.000000000000
         C            1.070243721468    -1.380049628087    -0.000720865412    12.000000000000
         C           -0.640180278532     0.860983371913     0.018845134588    12.000000000000
         C           -2.568028278532    -0.700669628087     0.003839134588    12.000000000000
         C            1.507646821468    -0.017396628087     0.003215534588    12.000000000000
         H           -0.758526278532    -2.521962628087    -0.006633865412     1.007825032230
         H            1.749065721468    -2.225009628087    -0.028068865412     1.007825032230
         H           -2.869790278532    -1.260488628087     0.892531134588     1.007825032230
         H           -2.864684278532    -1.247232628087    -0.894740865412     1.007825032230
         H           -3.032605278532     0.282157371913     0.010272134588     1.007825032230
         H            3.496424721468    -0.476265628087     0.350096134588     1.007825032230
         H            3.139084721468     1.175579371913     0.120908134588     1.007825032230

  Basis Set: AUG-CC-PVTZ
    Blend: AUG-CC-PVTZ
  Basis Set: (AUG-CC-PVTZ AUX)
    Blend: AUG-CC-PVTZ-JKFIT
	 Reference Energy          =    -431.8004203835838553 [Eh]
	 Singles Energy            =      -0.0000000000000000 [Eh]
	 Same-Spin Energy          =      -0.4502102556614529 [Eh]
	 Opposite-Spin Energy      =      -1.3717163894047213 [Eh]
	 Correlation Energy        =      -1.8219266450661742 [Eh]
	 Total Energy              =    -433.6223470286500401 [Eh]

	 ================> DF-SCS-MP2 Energies <==================
	-----------------------------------------------------------
	 SCS Same-Spin Scale       =       0.3333333333333333 [-]
	 SCS Opposite-Spin Scale   =       1.2000000000000000 [-]
	 SCS Same-Spin Energy      =      -0.1500700852204843 [Eh]
	 SCS Opposite-Spin Energy  =      -1.6460596672856656 [Eh]
	 SCS Correlation Energy    =      -1.7961297525061499 [Eh]
	 SCS Total Energy          =    -433.5965501360900021 [Eh]
	-----------------------------------------------------------

  Dipole Moment: [D]
     X:     1.4043      Y:    -5.5684      Z:     0.8395     Total:     5.8038

*** Psi4 exiting successfully. Buy a developer a beer!
