                               Psi4 1.3.2 release

  ==> Input File <==

--------------------------------------------------------------------------
#psi4
#
memory 32 gb

molecule  {
0 1
  O       -1.4243350     1.8531120    -0.0084660
  N       -1.1176450    -0.4263010     0.0065070
  N        0.7429240     1.0712790     0.0095610
  N        2.9023648     0.1902701    -0.0782690
  C       -0.2733660    -1.4960510    -0.0007800
  C        1.1479285    -1.3523064    -0.0088461
  C       -0.6338910     0.9109410     0.0155220
  C       -2.5617390    -0.6507120     0.0005160
  C        1.5376510     0.0247200    -0.0002060
  H       -0.7522370    -2.4720050    -0.0099570
  H        1.7553550    -2.1750520    -0.0313920
  H       -2.8635010    -1.2105310     0.8892080
  H       -2.8583950    -1.1972750    -0.8980640
  H       -3.0263160     0.3321150     0.0069490
  H        3.5027140    -0.4263080     0.3467730
  H        3.1453740     1.2255370     0.1175850
units angstrom
no_reorient  #important for SAPT in psi4, default
symmetry c1  #important for SAPT in psi4, default
}

set PROPERTIES_ORIGIN ["COM"]
properties('MP2/aug-cc-pvtz', properties = ['dipole'])
--------------------------------------------------------------------------

    Molecular point group: c1
  Charge       = 0
  Multiplicity = 1
  Basis Set: AUG-CC-PVTZ
    Blend: AUG-CC-PVTZ
  Basis Set: (AUG-CC-PVTZ AUX)
    Blend: AUG-CC-PVTZ-JKFIT

    Orbital Energies [Eh]
    ---------------------

    Doubly Occupied:

       1A    -20.506465     2A    -15.632311     3A    -15.588122
       4A    -15.545722     5A    -11.375479     6A    -11.348902
       7A    -11.337771     8A    -11.273494     9A    -11.244719
      10A     -1.384931    11A     -1.295506    12A     -1.267767
      13A     -1.173195    14A     -1.061129    15A     -0.968481
      16A     -0.902300    17A     -0.856262    18A     -0.751159
      19A     -0.725879    20A     -0.699398    21A     -0.673193
      22A     -0.657157    23A     -0.625539    24A     -0.600438
      25A     -0.582760    26A     -0.580585    27A     -0.556990
      28A     -0.522842    29A     -0.472638    30A     -0.443623
      31A     -0.422109    32A     -0.389178    33A     -0.333534

  @DF-RHF Final Energy:  -431.78166519692633

   => Energetics <=

    Nuclear Repulsion Energy =            439.7442205852912025
    One-Electron Energy =               -1459.4526185428474037
    Two-Electron Energy =                 587.9267327606297613
    Total Energy =                       -431.7816651969263830
  Basis Set: (AUG-CC-PVTZ AUX)
    Blend: AUG-CC-PVTZ-RI
    Molecular point group: c1

    Geometry (in Angstrom), charge = 0, multiplicity = 1:

       Center              X                  Y                   Z               Mass
    ------------   -----------------  -----------------  -----------------  -----------------
         O           -1.441175689999     1.816284255529    -0.004407511012    15.994914619570
         N           -1.134485689999    -0.463128744471     0.010565488988    14.003074004430
         N            0.726083310001     1.034451255529     0.013619488988    14.003074004430
         N            2.885524110001     0.153442355529    -0.074210511012    14.003074004430
         C           -0.290206689999    -1.532878744471     0.003278488988    12.000000000000
         C            1.131087810001    -1.389134144471    -0.004787611012    12.000000000000
         C           -0.650731689999     0.874113255529     0.019580488988    12.000000000000
         C           -2.578579689999    -0.687539744471     0.004574488988    12.000000000000
         C            1.520810310001    -0.012107744471     0.003852488988    12.000000000000
         H           -0.769077689999    -2.508832744471    -0.005898511012     1.007825032230
         H            1.738514310001    -2.211879744471    -0.027333511012     1.007825032230
         H           -2.880341689999    -1.247358744471     0.893266488988     1.007825032230
         H           -2.875235689999    -1.234102744471    -0.894005511012     1.007825032230
         H           -3.043156689999     0.295287255529     0.011007488988     1.007825032230
         H            3.485873310001    -0.463135744471     0.350831488988     1.007825032230
         H            3.128533310001     1.188709255529     0.121643488988     1.007825032230

  Basis Set: AUG-CC-PVTZ
    Blend: AUG-CC-PVTZ
  Basis Set: (AUG-CC-PVTZ AUX)
    Blend: AUG-CC-PVTZ-JKFIT
	 Reference Energy          =    -431.7816651969263262 [Eh]
	 Singles Energy            =      -0.0000000000000000 [Eh]
	 Same-Spin Energy          =      -0.4512706286884064 [Eh]
	 Opposite-Spin Energy      =      -1.3741548721716088 [Eh]
	 Correlation Energy        =      -1.8254255008600153 [Eh]
	 Total Energy              =    -433.6070906977863615 [Eh]

	 ================> DF-SCS-MP2 Energies <==================
	-----------------------------------------------------------
	 SCS Same-Spin Scale       =       0.3333333333333333 [-]
	 SCS Opposite-Spin Scale   =       1.2000000000000000 [-]
	 SCS Same-Spin Energy      =      -0.1504235428961355 [Eh]
	 SCS Opposite-Spin Energy  =      -1.6489858466059306 [Eh]
	 SCS Correlation Energy    =      -1.7994093895020660 [Eh]
	 SCS Total Energy          =    -433.5810745864283717 [Eh]
	-----------------------------------------------------------

  Dipole Moment: [D]
     X:     1.4921      Y:    -5.5520      Z:     0.8490     Total:     5.8113

*** Psi4 exiting successfully. Buy a developer a beer!
