                               Psi4 1.3.2 release

  ==> Input File <==

--------------------------------------------------------------------------
#psi4
#
memory 32 gb

molecule  {
0 1
  O       -1.4243350     1.8531120    -0.0084660
  N       -1.1176450    -0.4263010     0.0065070
  N        0.7429240     1.0712790     0.0095610
  N        2.8919430     0.2615640    -0.0759850
  C       -0.2733660    -1.4960510    -0.0007800
  C        1.0765330    -1.3300920    -0.0040440
  C       -0.6338910     0.9109410     0.0155220
  C       -2.5617390    -0.6507120     0.0005160
  C        1.5376510     0.0247200    -0.0002060
  H       -0.7522370    -2.4720050    -0.0099570
  H        1.7553550    -2.1750520    -0.0313920
  H       -2.8597951    -1.2036910     0.8947240
  H       -2.8546580    -1.1903543    -0.9034566
  H       -3.0263160     0.3321150     0.0069490
  H        3.5027140    -0.4263080     0.3467730
  H        3.1453740     1.2255370     0.1175850
units angstrom
no_reorient  #important for SAPT in psi4, default
symmetry c1  #important for SAPT in psi4, default
}

set PROPERTIES_ORIGIN ["COM"]
properties('MP2/aug-cc-pvtz', properties = ['dipole'])
--------------------------------------------------------------------------

    Molecular point group: c1
  Charge       = 0
  Multiplicity = 1
  Basis Set: AUG-CC-PVTZ
    Blend: AUG-CC-PVTZ
  Basis Set: (AUG-CC-PVTZ AUX)
    Blend: AUG-CC-PVTZ-JKFIT

    Orbital Energies [Eh]
    ---------------------

    Doubly Occupied:

       1A    -20.503513     2A    -15.625204     3A    -15.591469
       4A    -15.543505     5A    -11.372142     6A    -11.349195
       7A    -11.327150     8A    -11.270447     9A    -11.245911
      10A     -1.382520    11A     -1.295946    12A     -1.267400
      13A     -1.170635    14A     -1.072670    15A     -0.965242
      16A     -0.899264    17A     -0.853605    18A     -0.758899
      19A     -0.723667    20A     -0.685415    21A     -0.674089
      22A     -0.656261    23A     -0.621950    24A     -0.601571
      25A     -0.591737    26A     -0.580347    27A     -0.558626
      28A     -0.522015    29A     -0.476400    30A     -0.440768
      31A     -0.419677    32A     -0.387783    33A     -0.338947

  @DF-RHF Final Energy:  -431.80098502710064

   => Energetics <=

    Nuclear Repulsion Energy =            440.9364191060369080
    One-Electron Energy =               -1461.9268674924353490
    Two-Electron Energy =                 589.1894633592977470
    Total Energy =                       -431.8009850271006371
  Basis Set: (AUG-CC-PVTZ AUX)
    Blend: AUG-CC-PVTZ-RI
    Molecular point group: c1

    Geometry (in Angstrom), charge = 0, multiplicity = 1:

       Center              X                  Y                   Z               Mass
    ------------   -----------------  -----------------  -----------------  -----------------
         O           -1.433217983660     1.806058875213    -0.005125033541    15.994914619570
         N           -1.126527983660    -0.473354124787     0.009847966459    14.003074004430
         N            0.734041016340     1.024225875213     0.012901966459    14.003074004430
         N            2.883060016340     0.214510875213    -0.072644033541    14.003074004430
         C           -0.282248983660    -1.543104124787     0.002560966459    12.000000000000
         C            1.067650016340    -1.377145124787    -0.000703033541    12.000000000000
         C           -0.642773983660     0.863887875213     0.018862966459    12.000000000000
         C           -2.570621983660    -0.697765124787     0.003856966459    12.000000000000
         C            1.528768016340    -0.022333124787     0.003134966459    12.000000000000
         H           -0.761119983660    -2.519058124787    -0.006616033541     1.007825032230
         H            1.746472016340    -2.222105124787    -0.028051033541     1.007825032230
         H           -2.868678083660    -1.250744124787     0.898064966459     1.007825032230
         H           -2.863540983660    -1.237407424787    -0.900115633541     1.007825032230
         H           -3.035198983660     0.285061875213     0.010289966459     1.007825032230
         H            3.493831016340    -0.473361124787     0.350113966459     1.007825032230
         H            3.136491016340     1.178483875213     0.120925966459     1.007825032230

  Basis Set: AUG-CC-PVTZ
    Blend: AUG-CC-PVTZ
  Basis Set: (AUG-CC-PVTZ AUX)
    Blend: AUG-CC-PVTZ-JKFIT
	 Reference Energy          =    -431.8009850271006371 [Eh]
	 Singles Energy            =      -0.0000000000000000 [Eh]
	 Same-Spin Energy          =      -0.4503993070706407 [Eh]
	 Opposite-Spin Energy      =      -1.3721863059168855 [Eh]
	 Correlation Energy        =      -1.8225856129875262 [Eh]
	 Total Energy              =    -433.6235706400881895 [Eh]

	 ================> DF-SCS-MP2 Energies <==================
	-----------------------------------------------------------
	 SCS Same-Spin Scale       =       0.3333333333333333 [-]
	 SCS Opposite-Spin Scale   =       1.2000000000000000 [-]
	 SCS Same-Spin Energy      =      -0.1501331023568802 [Eh]
	 SCS Opposite-Spin Energy  =      -1.6466235671002625 [Eh]
	 SCS Correlation Energy    =      -1.7967566694571426 [Eh]
	 SCS Total Energy          =    -433.5977416965577618 [Eh]
	-----------------------------------------------------------

  Dipole Moment: [D]
     X:     1.6988      Y:    -5.6279      Z:     0.8325     Total:     5.9374

*** Psi4 exiting successfully. Buy a developer a beer!
