                               Psi4 1.3.2 release

  ==> Input File <==

--------------------------------------------------------------------------
#psi4
#
memory 32 gb

molecule  {
0 1
  O       -1.4243350     1.8531120    -0.0084660
  N       -1.1176450    -0.4263010     0.0065070
  N        0.7429240     1.0712790     0.0095610
  N        2.8919430     0.2615640    -0.0759850
  C       -0.2640627    -1.4886428    -0.0007305
  C        1.0765330    -1.3300920    -0.0040440
  C       -0.6222397     0.9066687     0.0154924
  C       -2.5617390    -0.6507120     0.0005160
  C        1.5376510     0.0247200    -0.0002060
  H       -0.7522370    -2.4720050    -0.0099570
  H        1.7553550    -2.1750520    -0.0313920
  H       -2.8635010    -1.2105310     0.8892080
  H       -2.8583950    -1.1972750    -0.8980640
  H       -3.0263160     0.3321150     0.0069490
  H        3.5027140    -0.4263080     0.3467730
  H        3.1453740     1.2255370     0.1175850
units angstrom
no_reorient  #important for SAPT in psi4, default
symmetry c1  #important for SAPT in psi4, default
}

set PROPERTIES_ORIGIN ["COM"]
properties('MP2/aug-cc-pvtz', properties = ['dipole'])
--------------------------------------------------------------------------

    Molecular point group: c1
  Charge       = 0
  Multiplicity = 1
  Basis Set: AUG-CC-PVTZ
    Blend: AUG-CC-PVTZ
  Basis Set: (AUG-CC-PVTZ AUX)
    Blend: AUG-CC-PVTZ-JKFIT

    Orbital Energies [Eh]
    ---------------------

    Doubly Occupied:

       1A    -20.500268     2A    -15.625435     3A    -15.593015
       4A    -15.544601     5A    -11.371534     6A    -11.351103
       7A    -11.326879     8A    -11.270539     9A    -11.245851
      10A     -1.378078    11A     -1.294105    12A     -1.267731
      13A     -1.173853    14A     -1.075567    15A     -0.966004
      16A     -0.897816    17A     -0.856492    18A     -0.760574
      19A     -0.723719    20A     -0.686697    21A     -0.673504
      22A     -0.655393    23A     -0.619688    24A     -0.601812
      25A     -0.591570    26A     -0.580521    27A     -0.558513
      28A     -0.520351    29A     -0.475760    30A     -0.438700
      31A     -0.420276    32A     -0.388894    33A     -0.340215

  @DF-RHF Final Energy:  -431.80050645929975

   => Energetics <=

    Nuclear Repulsion Energy =            441.1317448081128418
    One-Electron Energy =               -1462.3143838464386590
    Two-Electron Energy =                 589.3821325790260062
    Total Energy =                       -431.8005064592997542
  Basis Set: (AUG-CC-PVTZ AUX)
    Blend: AUG-CC-PVTZ-RI
    Molecular point group: c1

    Geometry (in Angstrom), charge = 0, multiplicity = 1:

       Center              X                  Y                   Z               Mass
    ------------   -----------------  -----------------  -----------------  -----------------
         O           -1.435168696771     1.805868865387    -0.005125948585    15.994914619570
         N           -1.128478696771    -0.473544134613     0.009847051415    14.003074004430
         N            0.732090303229     1.024035865387     0.012901051415    14.003074004430
         N            2.881109303229     0.214320865387    -0.072644948585    14.003074004430
         C           -0.274896396771    -1.535885934613     0.002609551415    12.000000000000
         C            1.065699303229    -1.377335134613    -0.000703948585    12.000000000000
         C           -0.633073396771     0.859425565387     0.018832451415    12.000000000000
         C           -2.572572696771    -0.697955134613     0.003856051415    12.000000000000
         C            1.526817303229    -0.022523134613     0.003134051415    12.000000000000
         H           -0.763070696771    -2.519248134613    -0.006616948585     1.007825032230
         H            1.744521303229    -2.222295134613    -0.028051948585     1.007825032230
         H           -2.874334696771    -1.257774134613     0.892548051415     1.007825032230
         H           -2.869228696771    -1.244518134613    -0.894723948585     1.007825032230
         H           -3.037149696771     0.284871865387     0.010289051415     1.007825032230
         H            3.491880303229    -0.473551134613     0.350113051415     1.007825032230
         H            3.134540303229     1.178293865387     0.120925051415     1.007825032230

  Basis Set: AUG-CC-PVTZ
    Blend: AUG-CC-PVTZ
  Basis Set: (AUG-CC-PVTZ AUX)
    Blend: AUG-CC-PVTZ-JKFIT
	 Reference Energy          =    -431.8005064592997542 [Eh]
	 Singles Energy            =      -0.0000000000000000 [Eh]
	 Same-Spin Energy          =      -0.4504697131755550 [Eh]
	 Opposite-Spin Energy      =      -1.3721766783525327 [Eh]
	 Correlation Energy        =      -1.8226463915280877 [Eh]
	 Total Energy              =    -433.6231528508278643 [Eh]

	 ================> DF-SCS-MP2 Energies <==================
	-----------------------------------------------------------
	 SCS Same-Spin Scale       =       0.3333333333333333 [-]
	 SCS Opposite-Spin Scale   =       1.2000000000000000 [-]
	 SCS Same-Spin Energy      =      -0.1501565710585183 [Eh]
	 SCS Opposite-Spin Energy  =      -1.6466120140230391 [Eh]
	 SCS Correlation Energy    =      -1.7967685850815576 [Eh]
	 SCS Total Energy          =    -433.5972750443813197 [Eh]
	-----------------------------------------------------------

  Dipole Moment: [D]
     X:     1.8204      Y:    -5.7001      Z:     0.8320     Total:     6.0413

*** Psi4 exiting successfully. Buy a developer a beer!
