                               Psi4 1.3.2 release

  ==> Input File <==

--------------------------------------------------------------------------
#psi4
#
memory 32 gb

molecule  {
0 1
  O       -1.4243350     1.8531120    -0.0084660
  N       -1.1176450    -0.4263010     0.0065070
  N        0.7429240     1.0712790     0.0095610
  N        2.8919430     0.2615640    -0.0759850
  C       -0.2733660    -1.4960510    -0.0007800
  C        1.0765330    -1.3300920    -0.0040440
  C       -0.6338910     0.9109410     0.0155220
  C       -2.5617390    -0.6507120     0.0005160
  C        1.7343624     0.0591217    -0.0112129
  H       -0.7522370    -2.4720050    -0.0099570
  H        1.7553550    -2.1750520    -0.0313920
  H       -2.8635010    -1.2105310     0.8892080
  H       -2.8583950    -1.1972750    -0.8980640
  H       -3.0263160     0.3321150     0.0069490
  H        3.5027140    -0.4263080     0.3467730
  H        3.1453740     1.2255370     0.1175850
units angstrom
no_reorient  #important for SAPT in psi4, default
symmetry c1  #important for SAPT in psi4, default
}

set PROPERTIES_ORIGIN ["COM"]
properties('MP2/aug-cc-pvtz', properties = ['dipole'])
--------------------------------------------------------------------------

    Molecular point group: c1
  Charge       = 0
  Multiplicity = 1
  Basis Set: AUG-CC-PVTZ
    Blend: AUG-CC-PVTZ
  Basis Set: (AUG-CC-PVTZ AUX)
    Blend: AUG-CC-PVTZ-JKFIT

    Orbital Energies [Eh]
    ---------------------

    Doubly Occupied:

       1A    -20.488296     2A    -15.630047     3A    -15.607479
       4A    -15.524724     5A    -11.359407     6A    -11.358047
       7A    -11.316727     8A    -11.259237     9A    -11.247357
      10A     -1.377174    11A     -1.359259    12A     -1.267785
      13A     -1.146355    14A     -1.050384    15A     -0.952766
      16A     -0.888571    17A     -0.868568    18A     -0.789690
      19A     -0.755150    20A     -0.689149    21A     -0.673275
      22A     -0.643972    23A     -0.612213    24A     -0.608008
      25A     -0.594729    26A     -0.561981    27A     -0.548236
      28A     -0.536966    29A     -0.465646    30A     -0.417996
      31A     -0.386487    32A     -0.364830    33A     -0.327222

  @DF-RHF Final Energy:  -431.73392070197298

   => Energetics <=

    Nuclear Repulsion Energy =            439.4805331922518690
    One-Electron Energy =               -1459.0734378398215085
    Two-Electron Energy =                 587.8589839455967194
    Total Energy =                       -431.7339207019729201
  Basis Set: (AUG-CC-PVTZ AUX)
    Blend: AUG-CC-PVTZ-RI
    Molecular point group: c1

    Geometry (in Angstrom), charge = 0, multiplicity = 1:

       Center              X                  Y                   Z               Mass
    ------------   -----------------  -----------------  -----------------  -----------------
         O           -1.452033401322     1.802868762520    -0.004067874449    15.994914619570
         N           -1.145343401322    -0.476544237480     0.010905125551    14.003074004430
         N            0.715225598678     1.021035762520     0.013959125551    14.003074004430
         N            2.864244598678     0.211320762520    -0.071586874449    14.003074004430
         C           -0.301064401322    -1.546294237480     0.003618125551    12.000000000000
         C            1.048834598678    -1.380335237480     0.000354125551    12.000000000000
         C           -0.661589401322     0.860697762520     0.019920125551    12.000000000000
         C           -2.589437401322    -0.700955237480     0.004914125551    12.000000000000
         C            1.706663998678     0.008878462520    -0.006814774449    12.000000000000
         H           -0.779935401322    -2.522248237480    -0.005558874449     1.007825032230
         H            1.727656598678    -2.225295237480    -0.026993874449     1.007825032230
         H           -2.891199401322    -1.260774237480     0.893606125551     1.007825032230
         H           -2.886093401322    -1.247518237480    -0.893665874449     1.007825032230
         H           -3.054014401322     0.281871762520     0.011347125551     1.007825032230
         H            3.475015598678    -0.476551237480     0.351171125551     1.007825032230
         H            3.117675598678     1.175293762520     0.121983125551     1.007825032230

  Basis Set: AUG-CC-PVTZ
    Blend: AUG-CC-PVTZ
  Basis Set: (AUG-CC-PVTZ AUX)
    Blend: AUG-CC-PVTZ-JKFIT
	 Reference Energy          =    -431.7339207019729770 [Eh]
	 Singles Energy            =      -0.0000000000000000 [Eh]
	 Same-Spin Energy          =      -0.4511461901057884 [Eh]
	 Opposite-Spin Energy      =      -1.3731612829538651 [Eh]
	 Correlation Energy        =      -1.8243074730596536 [Eh]
	 Total Energy              =    -433.5582281750326388 [Eh]

	 ================> DF-SCS-MP2 Energies <==================
	-----------------------------------------------------------
	 SCS Same-Spin Scale       =       0.3333333333333333 [-]
	 SCS Opposite-Spin Scale   =       1.2000000000000000 [-]
	 SCS Same-Spin Energy      =      -0.1503820633685961 [Eh]
	 SCS Opposite-Spin Energy  =      -1.6477935395446381 [Eh]
	 SCS Correlation Energy    =      -1.7981756029132343 [Eh]
	 SCS Total Energy          =    -433.5320963048862382 [Eh]
	-----------------------------------------------------------

  Dipole Moment: [D]
     X:     3.7836      Y:    -5.4892      Z:     0.7590     Total:     6.7099

*** Psi4 exiting successfully. Buy a developer a beer!
