                               Psi4 1.4a3.dev225

  ==> Input File <==

--------------------------------------------------------------------------
#psi4
#
memory 32 gb

molecule  {
0 1
  O       -1.4602810    -1.8042760    -0.0008590
  N       -1.1067000     0.4494610     0.0014260
  N        0.7338450    -1.0777760     0.0056990
  N        2.8872480    -0.2944040    -0.0665390
  C       -0.2576190     1.5082170    -0.0002850
  C        1.1112938     1.3201722    -0.0048633
  C       -0.6316600    -0.8954310    -0.0014820
  C       -2.5563510     0.6193970     0.0049040
  C        1.5404980    -0.0347530    -0.0000590
  H       -0.7147670     2.4940890    -0.0022110
  H        1.7746080     2.1637920    -0.0246520
  H       -2.7835150     1.6863950     0.0041520
  H       -2.9802500     0.1433220     0.8903410
  H       -2.9840040     0.1411790    -0.8774920
  H        3.5206970     0.4000120     0.3068300
  H        3.1306380    -1.2574880     0.1361150
units angstrom
no_reorient  #important for SAPT in psi4, default
symmetry c1  #important for SAPT in psi4, default
}

set PROPERTIES_ORIGIN ["COM"]
properties('MP2/aug-cc-pvtz', properties = ['dipole'])
--------------------------------------------------------------------------

    Molecular point group: c1
  Charge       = 0
  Multiplicity = 1
  Basis Set: AUG-CC-PVTZ
    Blend: AUG-CC-PVTZ
  Basis Set: (AUG-CC-PVTZ AUX)
    Blend: AUG-CC-PVTZ-JKFIT

    Orbital Energies [Eh]
    ---------------------

    Doubly Occupied:

       1A    -20.503173     2A    -15.628656     3A    -15.589812
       4A    -15.541972     5A    -11.369494     6A    -11.347953
       7A    -11.332328     8A    -11.274637     9A    -11.243401
      10A     -1.383563    11A     -1.295389    12A     -1.268097
      13A     -1.170990    14A     -1.069891    15A     -0.966481
      16A     -0.900619    17A     -0.854409    18A     -0.758692
      19A     -0.724371    20A     -0.686672    21A     -0.674558
      22A     -0.655820    23A     -0.624942    24A     -0.599492
      25A     -0.591929    26A     -0.576647    27A     -0.566013
      28A     -0.517088    29A     -0.479159    30A     -0.442935
      31A     -0.418855    32A     -0.384772    33A     -0.336008

  @DF-RHF Final Energy:  -431.80207782168247

   => Energetics <=

    Nuclear Repulsion Energy =            441.4078921902180923
    One-Electron Energy =               -1462.8623060750874174
    Two-Electron Energy =                 589.6523360631869082
    Total Energy =                       -431.8020778216824738
  Basis Set: (AUG-CC-PVTZ AUX)
    Blend: AUG-CC-PVTZ-RI
    Molecular point group: c1

    Geometry (in Angstrom), charge = 0, multiplicity = 1:

       Center              X                  Y                   Z               Mass
    ------------   -----------------  -----------------  -----------------  -----------------
         O           -1.470527359471    -1.758278038634     0.002584736841    15.994914619570
         N           -1.116946359471     0.495458961366     0.004869736841    14.003074004430
         N            0.723598640529    -1.031778038634     0.009142736841    14.003074004430
         N            2.877001640529    -0.248406038634    -0.063095263159    14.003074004430
         C           -0.267865359471     1.554214961366     0.003158736841    12.000000000000
         C            1.101047440529     1.366170161366    -0.001419563159    12.000000000000
         C           -0.641906359471    -0.849433038634     0.001961736841    12.000000000000
         C           -2.566597359471     0.665394961366     0.008347736841    12.000000000000
         C            1.530251640529     0.011244961366     0.003384736841    12.000000000000
         H           -0.725013359471     2.540086961366     0.001232736841     1.007825032230
         H            1.764361640529     2.209789961366    -0.021208263159     1.007825032230
         H           -2.793761359471     1.732392961366     0.007595736841     1.007825032230
         H           -2.990496359471     0.189319961366     0.893784736841     1.007825032230
         H           -2.994250359471     0.187176961366    -0.874048263159     1.007825032230
         H            3.510450640529     0.446009961366     0.310273736841     1.007825032230
         H            3.120391640529    -1.211490038634     0.139558736841     1.007825032230

  Basis Set: AUG-CC-PVTZ
    Blend: AUG-CC-PVTZ
  Basis Set: (AUG-CC-PVTZ AUX)
    Blend: AUG-CC-PVTZ-JKFIT
	 Reference Energy          =    -431.8020778216824738 [Eh]
	 Singles Energy            =      -0.0000000000000000 [Eh]
	 Same-Spin Energy          =      -0.4506716244024854 [Eh]
	 Opposite-Spin Energy      =      -1.3722429299075578 [Eh]
	 Correlation Energy        =      -1.8229145543100431 [Eh]
	 Total Energy              =    -433.6249923759925196 [Eh]

	 ================> DF-SCS-MP2 Energies <==================
	-----------------------------------------------------------
	 SCS Same-Spin Scale       =       0.3333333333333333 [-]
	 SCS Opposite-Spin Scale   =       1.2000000000000000 [-]
	 SCS Same-Spin Energy      =      -0.1502238748008285 [Eh]
	 SCS Opposite-Spin Energy  =      -1.6466915158890694 [Eh]
	 SCS Correlation Energy    =      -1.7969153906898978 [Eh]
	 SCS Total Energy          =    -433.5989932123723634 [Eh]
	-----------------------------------------------------------

  Dipole Moment: [D]
     X:     1.7295      Y:     5.6307      Z:     0.7688     Total:     5.9403

*** Psi4 exiting successfully. Buy a developer a beer!
