                               Psi4 1.3.2 release

  ==> Input File <==

--------------------------------------------------------------------------
#psi4
#
memory 32 gb

molecule  {
0 1
  O       -1.4243350     1.8531120    -0.0084660
  N       -1.1167760    -0.4325515     0.0175897
  N        0.7429240     1.0712790     0.0095610
  N        2.8919430     0.2615640    -0.0759850
  C       -0.2733660    -1.4960510    -0.0007800
  C        1.0765330    -1.3300920    -0.0040440
  C       -0.6338910     0.9109410     0.0155220
  C       -2.5617390    -0.6507120     0.0005160
  C        1.5376510     0.0247200    -0.0002060
  H       -0.7522370    -2.4720050    -0.0099570
  H        1.7553550    -2.1750520    -0.0313920
  H       -2.8544153    -1.2107621     0.8920964
  H       -2.8583950    -1.1972750    -0.8980640
  H       -3.0263160     0.3321150     0.0069490
  H        3.5027140    -0.4263080     0.3467730
  H        3.1453740     1.2255370     0.1175850
units angstrom
no_reorient  #important for SAPT in psi4, default
symmetry c1  #important for SAPT in psi4, default
}

set PROPERTIES_ORIGIN ["COM"]
properties('MP2/aug-cc-pvtz', properties = ['dipole'])
--------------------------------------------------------------------------

    Molecular point group: c1
  Charge       = 0
  Multiplicity = 1
  Basis Set: AUG-CC-PVTZ
    Blend: AUG-CC-PVTZ
  Basis Set: (AUG-CC-PVTZ AUX)
    Blend: AUG-CC-PVTZ-JKFIT

    Orbital Energies [Eh]
    ---------------------

    Doubly Occupied:

       1A    -20.504573     2A    -15.625454     3A    -15.591291
       4A    -15.543479     5A    -11.373010     6A    -11.349037
       7A    -11.326715     8A    -11.270699     9A    -11.245148
      10A     -1.382612    11A     -1.296589    12A     -1.267930
      13A     -1.170673    14A     -1.072363    15A     -0.965239
      16A     -0.898837    17A     -0.853955    18A     -0.758858
      19A     -0.723730    20A     -0.685500    21A     -0.673749
      22A     -0.655857    23A     -0.622139    24A     -0.601117
      25A     -0.592496    26A     -0.579837    27A     -0.560294
      28A     -0.521727    29A     -0.477299    30A     -0.441219
      31A     -0.419719    32A     -0.387707    33A     -0.338449

  @DF-RHF Final Energy:  -431.80093737553699

   => Energetics <=

    Nuclear Repulsion Energy =            440.9040103737826826
    One-Electron Energy =               -1461.8552899097992395
    Two-Electron Energy =                 589.1503421604795676
    Total Energy =                       -431.8009373755369324
  Basis Set: (AUG-CC-PVTZ AUX)
    Blend: AUG-CC-PVTZ-RI
    Molecular point group: c1

    Geometry (in Angstrom), charge = 0, multiplicity = 1:

       Center              X                  Y                   Z               Mass
    ------------   -----------------  -----------------  -----------------  -----------------
         O           -1.433328526172     1.806871512224    -0.006388266221    15.994914619570
         N           -1.125769526172    -0.478791987776     0.019667433779    14.003074004430
         N            0.733930473828     1.025038512224     0.011638733779    14.003074004430
         N            2.882949473828     0.215323512224    -0.073907266221    14.003074004430
         C           -0.282359526172    -1.542291487776     0.001297733779    12.000000000000
         C            1.067539473828    -1.376332487776    -0.001966266221    12.000000000000
         C           -0.642884526172     0.864700512224     0.017599733779    12.000000000000
         C           -2.570732526172    -0.696952487776     0.002593733779    12.000000000000
         C            1.528657473828    -0.021520487776     0.001871733779    12.000000000000
         H           -0.761230526172    -2.518245487776    -0.007879266221     1.007825032230
         H            1.746361473828    -2.221292487776    -0.029314266221     1.007825032230
         H           -2.863408826172    -1.257002587776     0.894174133779     1.007825032230
         H           -2.867388526172    -1.243515487776    -0.895986266221     1.007825032230
         H           -3.035309526172     0.285874512224     0.009026733779     1.007825032230
         H            3.493720473828    -0.472548487776     0.348850733779     1.007825032230
         H            3.136380473828     1.179296512224     0.119662733779     1.007825032230

  Basis Set: AUG-CC-PVTZ
    Blend: AUG-CC-PVTZ
  Basis Set: (AUG-CC-PVTZ AUX)
    Blend: AUG-CC-PVTZ-JKFIT
	 Reference Energy          =    -431.8009373755369893 [Eh]
	 Singles Energy            =      -0.0000000000000000 [Eh]
	 Same-Spin Energy          =      -0.4504473612862423 [Eh]
	 Opposite-Spin Energy      =      -1.3722099778866979 [Eh]
	 Correlation Energy        =      -1.8226573391729401 [Eh]
	 Total Energy              =    -433.6235947147099523 [Eh]

	 ================> DF-SCS-MP2 Energies <==================
	-----------------------------------------------------------
	 SCS Same-Spin Scale       =       0.3333333333333333 [-]
	 SCS Opposite-Spin Scale   =       1.2000000000000000 [-]
	 SCS Same-Spin Energy      =      -0.1501491204287474 [Eh]
	 SCS Opposite-Spin Energy  =      -1.6466519734640375 [Eh]
	 SCS Correlation Energy    =      -1.7968010938927850 [Eh]
	 SCS Total Energy          =    -433.5977384694297712 [Eh]
	-----------------------------------------------------------

  Dipole Moment: [D]
     X:     1.6763      Y:    -5.6053      Z:     0.8255     Total:     5.9086

*** Psi4 exiting successfully. Buy a developer a beer!
