                               Psi4 1.3.2 release

  ==> Input File <==

--------------------------------------------------------------------------
#psi4
#
memory 32 gb

molecule  {
0 1
  O       -1.4160854     1.8599771    -0.0082651
  N       -1.1059616    -0.4304722     0.0068327
  N        0.7429240     1.0712790     0.0095610
  N        2.8919430     0.2615640    -0.0759850
  C       -0.2733660    -1.4960510    -0.0007800
  C        1.0765330    -1.3300920    -0.0040440
  C       -0.6338910     0.9109410     0.0155220
  C       -2.5617390    -0.6507120     0.0005160
  C        1.5376510     0.0247200    -0.0002060
  H       -0.7522370    -2.4720050    -0.0099570
  H        1.7553550    -2.1750520    -0.0313920
  H       -2.8635010    -1.2105310     0.8892080
  H       -2.8583950    -1.1972750    -0.8980640
  H       -3.0263160     0.3321150     0.0069490
  H        3.5027140    -0.4263080     0.3467730
  H        3.1453740     1.2255370     0.1175850
units angstrom
no_reorient  #important for SAPT in psi4, default
symmetry c1  #important for SAPT in psi4, default
}

set PROPERTIES_ORIGIN ["COM"]
properties('MP2/aug-cc-pvtz', properties = ['dipole'])
--------------------------------------------------------------------------

    Molecular point group: c1
  Charge       = 0
  Multiplicity = 1
  Basis Set: AUG-CC-PVTZ
    Blend: AUG-CC-PVTZ
  Basis Set: (AUG-CC-PVTZ AUX)
    Blend: AUG-CC-PVTZ-JKFIT

    Orbital Energies [Eh]
    ---------------------

    Doubly Occupied:

       1A    -20.504283     2A    -15.626430     3A    -15.590631
       4A    -15.542562     5A    -11.372473     6A    -11.348163
       7A    -11.326427     8A    -11.272332     9A    -11.244716
      10A     -1.382807    11A     -1.297124    12A     -1.267824
      13A     -1.169726    14A     -1.071976    15A     -0.965424
      16A     -0.900454    17A     -0.853965    18A     -0.758889
      19A     -0.724319    20A     -0.684665    21A     -0.673443
      22A     -0.655760    23A     -0.621919    24A     -0.601002
      25A     -0.591133    26A     -0.579875    27A     -0.561355
      28A     -0.521912    29A     -0.478367    30A     -0.440522
      31A     -0.419456    32A     -0.387179    33A     -0.338329

  @DF-RHF Final Energy:  -431.80084216398410

   => Energetics <=

    Nuclear Repulsion Energy =            440.9751995648078946
    One-Electron Energy =               -1462.0012032861402531
    Two-Electron Energy =                 589.2251615573482013
    Total Energy =                       -431.8008421639841572
  Basis Set: (AUG-CC-PVTZ AUX)
    Blend: AUG-CC-PVTZ-RI
    Molecular point group: c1

    Geometry (in Angstrom), charge = 0, multiplicity = 1:

       Center              X                  Y                   Z               Mass
    ------------   -----------------  -----------------  -----------------  -----------------
         O           -1.427271730277     1.812623887137    -0.004985303223    15.994914619570
         N           -1.117147930277    -0.477825412863     0.010112496777    14.003074004430
         N            0.731737669723     1.023925787137     0.012840796777    14.003074004430
         N            2.880756669723     0.214210787137    -0.072705203223    14.003074004430
         C           -0.284552330277    -1.543404212863     0.002499796777    12.000000000000
         C            1.065346669723    -1.377445212863    -0.000764203223    12.000000000000
         C           -0.645077330277     0.863587787137     0.018801796777    12.000000000000
         C           -2.572925330277    -0.698065212863     0.003795796777    12.000000000000
         C            1.526464669723    -0.022633212863     0.003073796777    12.000000000000
         H           -0.763423330277    -2.519358212863    -0.006677203223     1.007825032230
         H            1.744168669723    -2.222405212863    -0.028112203223     1.007825032230
         H           -2.874687330277    -1.257884212863     0.892487796777     1.007825032230
         H           -2.869581330277    -1.244628212863    -0.894784203223     1.007825032230
         H           -3.037502330277     0.284761787137     0.010228796777     1.007825032230
         H            3.491527669723    -0.473661212863     0.350052796777     1.007825032230
         H            3.134187669723     1.178183787137     0.120864796777     1.007825032230

  Basis Set: AUG-CC-PVTZ
    Blend: AUG-CC-PVTZ
  Basis Set: (AUG-CC-PVTZ AUX)
    Blend: AUG-CC-PVTZ-JKFIT
	 Reference Energy          =    -431.8008421639841004 [Eh]
	 Singles Energy            =      -0.0000000000000000 [Eh]
	 Same-Spin Energy          =      -0.4504302011994034 [Eh]
	 Opposite-Spin Energy      =      -1.3721805974455448 [Eh]
	 Correlation Energy        =      -1.8226107986449480 [Eh]
	 Total Energy              =    -433.6234529626290737 [Eh]

	 ================> DF-SCS-MP2 Energies <==================
	-----------------------------------------------------------
	 SCS Same-Spin Scale       =       0.3333333333333333 [-]
	 SCS Opposite-Spin Scale   =       1.2000000000000000 [-]
	 SCS Same-Spin Energy      =      -0.1501434003998011 [Eh]
	 SCS Opposite-Spin Energy  =      -1.6466167169346537 [Eh]
	 SCS Correlation Energy    =      -1.7967601173344550 [Eh]
	 SCS Total Energy          =    -433.5976022813185295 [Eh]
	-----------------------------------------------------------

  Dipole Moment: [D]
     X:     1.6147      Y:    -5.6426      Z:     0.8320     Total:     5.9277

*** Psi4 exiting successfully. Buy a developer a beer!
