                               Psi4 1.3.2 release

  ==> Input File <==

--------------------------------------------------------------------------
#psi4
#
memory 32 gb

molecule  {
0 1
  O       -1.4243350     1.8531120    -0.0084660
  N       -1.1176450    -0.4263010     0.0065070
  N        0.7429240     1.0712790     0.0095610
  N        2.8919430     0.2615640    -0.0759850
  C       -0.2733660    -1.4960510    -0.0007800
  C        1.0765330    -1.3300920    -0.0040440
  C       -0.6338910     0.9109410     0.0155220
  C       -2.5617390    -0.6507120     0.0005160
  C        1.5376510     0.0247200    -0.0002060
  H       -0.8403339    -2.6515491    -0.0116453
  H        1.7553550    -2.1750520    -0.0313920
  H       -2.8635010    -1.2105310     0.8892080
  H       -2.8583950    -1.1972750    -0.8980640
  H       -3.0263160     0.3321150     0.0069490
  H        3.5027140    -0.4263080     0.3467730
  H        3.1453740     1.2255370     0.1175850
units angstrom
no_reorient  #important for SAPT in psi4, default
symmetry c1  #important for SAPT in psi4, default
}

set PROPERTIES_ORIGIN ["COM"]
properties('MP2/aug-cc-pvtz', properties = ['dipole'])
--------------------------------------------------------------------------

    Molecular point group: c1
  Charge       = 0
  Multiplicity = 1
  Basis Set: AUG-CC-PVTZ
    Blend: AUG-CC-PVTZ
  Basis Set: (AUG-CC-PVTZ AUX)
    Blend: AUG-CC-PVTZ-JKFIT

    Orbital Energies [Eh]
    ---------------------

    Doubly Occupied:

       1A    -20.504539     2A    -15.627243     3A    -15.592217
       4A    -15.544125     5A    -11.373605     6A    -11.350422
       7A    -11.346831     8A    -11.270306     9A    -11.247229
      10A     -1.383493    11A     -1.296524    12A     -1.267644
      13A     -1.171228    14A     -1.070584    15A     -0.965684
      16A     -0.886627    17A     -0.854025    18A     -0.759547
      19A     -0.711859    20A     -0.686299    21A     -0.662855
      22A     -0.655927    23A     -0.620461    24A     -0.594086
      25A     -0.580587    26A     -0.576045    27A     -0.559293
      28A     -0.522563    29A     -0.477095    30A     -0.441493
      31A     -0.419354    32A     -0.388524    33A     -0.339778

  @DF-RHF Final Energy:  -431.77837880391212

   => Energetics <=

    Nuclear Repulsion Energy =            439.9557676940380020
    One-Electron Energy =               -1459.9721094410347177
    Two-Electron Energy =                 588.2379629430845398
    Total Energy =                       -431.7783788039121191
  Basis Set: (AUG-CC-PVTZ AUX)
    Blend: AUG-CC-PVTZ-RI
    Molecular point group: c1

    Geometry (in Angstrom), charge = 0, multiplicity = 1:

       Center              X                  Y                   Z               Mass
    ------------   -----------------  -----------------  -----------------  -----------------
         O           -1.432448047311     1.807616680357    -0.005110433409    15.994914619570
         N           -1.125758047311    -0.471796319643     0.009862566591    14.003074004430
         N            0.734810952689     1.025783680357     0.012916566591    14.003074004430
         N            2.883829952689     0.216068680357    -0.072629433409    14.003074004430
         C           -0.281479047311    -1.541546319643     0.002575566591    12.000000000000
         C            1.068419952689    -1.375587319643    -0.000688433409    12.000000000000
         C           -0.642004047311     0.865445680357     0.018877566591    12.000000000000
         C           -2.569852047311    -0.696207319643     0.003871566591    12.000000000000
         C            1.529537952689    -0.020775319643     0.003149566591    12.000000000000
         H           -0.848446947311    -2.697044419643    -0.008289733409     1.007825032230
         H            1.747241952689    -2.220547319643    -0.028036433409     1.007825032230
         H           -2.871614047311    -1.256026319643     0.892563566591     1.007825032230
         H           -2.866508047311    -1.242770319643    -0.894708433409     1.007825032230
         H           -3.034429047311     0.286619680357     0.010304566591     1.007825032230
         H            3.494600952689    -0.471803319643     0.350128566591     1.007825032230
         H            3.137260952689     1.180041680357     0.120940566591     1.007825032230

  Basis Set: AUG-CC-PVTZ
    Blend: AUG-CC-PVTZ
  Basis Set: (AUG-CC-PVTZ AUX)
    Blend: AUG-CC-PVTZ-JKFIT
	 Reference Energy          =    -431.7783788039121191 [Eh]
	 Singles Energy            =      -0.0000000000000000 [Eh]
	 Same-Spin Energy          =      -0.4511224276771695 [Eh]
	 Opposite-Spin Energy      =      -1.3744933013831289 [Eh]
	 Correlation Energy        =      -1.8256157290602983 [Eh]
	 Total Energy              =    -433.6039945329724219 [Eh]

	 ================> DF-SCS-MP2 Energies <==================
	-----------------------------------------------------------
	 SCS Same-Spin Scale       =       0.3333333333333333 [-]
	 SCS Opposite-Spin Scale   =       1.2000000000000000 [-]
	 SCS Same-Spin Energy      =      -0.1503741425590565 [Eh]
	 SCS Opposite-Spin Energy  =      -1.6493919616597545 [Eh]
	 SCS Correlation Energy    =      -1.7997661042188111 [Eh]
	 SCS Total Energy          =    -433.5781449081309233 [Eh]
	-----------------------------------------------------------

  Dipole Moment: [D]
     X:     1.7178      Y:    -5.5750      Z:     0.8322     Total:     5.8927

*** Psi4 exiting successfully. Buy a developer a beer!
