                               Psi4 1.3.2 release

  ==> Input File <==

--------------------------------------------------------------------------
#psi4
#
memory 32 gb

molecule  {
0 1
  O       -1.4243350     1.8531120    -0.0084660
  N       -1.1176450    -0.4263010     0.0065070
  N        0.7429240     1.0712790     0.0095610
  N        2.8919430     0.2615640    -0.0759850
  C       -0.2733660    -1.4960510    -0.0007800
  C        1.0750338    -1.3183191    -0.0039056
  C       -0.6338910     0.9109410     0.0155220
  C       -2.5617390    -0.6507120     0.0005160
  C        1.5376510     0.0247200    -0.0002060
  H       -0.7607358    -2.4677896    -0.0098772
  H        1.7553550    -2.1750520    -0.0313920
  H       -2.8635010    -1.2105310     0.8892080
  H       -2.8583950    -1.1972750    -0.8980640
  H       -3.0263160     0.3321150     0.0069490
  H        3.5027140    -0.4263080     0.3467730
  H        3.1453740     1.2255370     0.1175850
units angstrom
no_reorient  #important for SAPT in psi4, default
symmetry c1  #important for SAPT in psi4, default
}

set PROPERTIES_ORIGIN ["COM"]
properties('MP2/aug-cc-pvtz', properties = ['dipole'])
--------------------------------------------------------------------------

    Molecular point group: c1
  Charge       = 0
  Multiplicity = 1
  Basis Set: AUG-CC-PVTZ
    Blend: AUG-CC-PVTZ
  Basis Set: (AUG-CC-PVTZ AUX)
    Blend: AUG-CC-PVTZ-JKFIT

    Orbital Energies [Eh]
    ---------------------

    Doubly Occupied:

       1A    -20.503195     2A    -15.625587     3A    -15.591215
       4A    -15.543199     5A    -11.371959     6A    -11.348169
       7A    -11.327853     8A    -11.270623     9A    -11.245945
      10A     -1.382526    11A     -1.296372    12A     -1.267628
      13A     -1.170587    14A     -1.073103    15A     -0.965772
      16A     -0.900716    17A     -0.853276    18A     -0.759433
      19A     -0.723953    20A     -0.684828    21A     -0.673188
      22A     -0.655720    23A     -0.622540    24A     -0.602887
      25A     -0.591389    26A     -0.580084    27A     -0.558730
      28A     -0.521983    29A     -0.476303    30A     -0.440542
      31A     -0.419758    32A     -0.387917    33A     -0.338781

  @DF-RHF Final Energy:  -431.80056859550024

   => Energetics <=

    Nuclear Repulsion Energy =            441.1393345377769037
    One-Electron Energy =               -1462.3282790394207495
    Two-Electron Energy =                 589.3883759061436649
    Total Energy =                       -431.8005685955001809
  Basis Set: (AUG-CC-PVTZ AUX)
    Blend: AUG-CC-PVTZ-RI
    Molecular point group: c1

    Geometry (in Angstrom), charge = 0, multiplicity = 1:

       Center              X                  Y                   Z               Mass
    ------------   -----------------  -----------------  -----------------  -----------------
         O           -1.432945657251     1.805006132903    -0.005137962318    15.994914619570
         N           -1.126255657251    -0.474406867097     0.009835037682    14.003074004430
         N            0.734313342749     1.023173132903     0.012889037682    14.003074004430
         N            2.883332342749     0.213458132903    -0.072656962318    14.003074004430
         C           -0.281976657251    -1.544156867097     0.002548037682    12.000000000000
         C            1.066423142749    -1.366424967097    -0.000577562318    12.000000000000
         C           -0.642501657251     0.862835132903     0.018850037682    12.000000000000
         C           -2.570349657251    -0.698817867097     0.003844037682    12.000000000000
         C            1.529040342749    -0.023385867097     0.003122037682    12.000000000000
         H           -0.769346457251    -2.515895467097    -0.006549162318     1.007825032230
         H            1.746744342749    -2.223157867097    -0.028063962318     1.007825032230
         H           -2.872111657251    -1.258636867097     0.892536037682     1.007825032230
         H           -2.867005657251    -1.245380867097    -0.894735962318     1.007825032230
         H           -3.034926657251     0.284009132903     0.010277037682     1.007825032230
         H            3.494103342749    -0.474413867097     0.350101037682     1.007825032230
         H            3.136763342749     1.177431132903     0.120913037682     1.007825032230

  Basis Set: AUG-CC-PVTZ
    Blend: AUG-CC-PVTZ
  Basis Set: (AUG-CC-PVTZ AUX)
    Blend: AUG-CC-PVTZ-JKFIT
	 Reference Energy          =    -431.8005685955002377 [Eh]
	 Singles Energy            =      -0.0000000000000000 [Eh]
	 Same-Spin Energy          =      -0.4505753598786619 [Eh]
	 Opposite-Spin Energy      =      -1.3723238196642020 [Eh]
	 Correlation Energy        =      -1.8228991795428640 [Eh]
	 Total Energy              =    -433.6234677750430819 [Eh]

	 ================> DF-SCS-MP2 Energies <==================
	-----------------------------------------------------------
	 SCS Same-Spin Scale       =       0.3333333333333333 [-]
	 SCS Opposite-Spin Scale   =       1.2000000000000000 [-]
	 SCS Same-Spin Energy      =      -0.1501917866262206 [Eh]
	 SCS Opposite-Spin Energy  =      -1.6467885835970424 [Eh]
	 SCS Correlation Energy    =      -1.7969803702232630 [Eh]
	 SCS Total Energy          =    -433.5975489657234903 [Eh]
	-----------------------------------------------------------

  Dipole Moment: [D]
     X:     1.6797      Y:    -5.6547      Z:     0.8333     Total:     5.9574

*** Psi4 exiting successfully. Buy a developer a beer!
