                               Psi4 1.3.2 release

  ==> Input File <==

--------------------------------------------------------------------------
#psi4
#
memory 32 gb

molecule  {
0 1
  O       -1.3739264     1.8931733    -0.0095904
  N       -1.1176450    -0.4263010     0.0065070
  N        0.7326404     1.1430912     0.0076705
  N        2.8919430     0.2615640    -0.0759850
  C       -0.2733660    -1.4960510    -0.0007800
  C        1.0765330    -1.3300920    -0.0040440
  C       -0.6338910     0.9109410     0.0155220
  C       -2.5617390    -0.6507120     0.0005160
  C        1.5376510     0.0247200    -0.0002060
  H       -0.7522370    -2.4720050    -0.0099570
  H        1.7553550    -2.1750520    -0.0313920
  H       -2.8635010    -1.2105310     0.8892080
  H       -2.8583950    -1.1972750    -0.8980640
  H       -3.0263160     0.3321150     0.0069490
  H        3.5027140    -0.4263080     0.3467730
  H        3.1453740     1.2255370     0.1175850
units angstrom
no_reorient  #important for SAPT in psi4, default
symmetry c1  #important for SAPT in psi4, default
}

set PROPERTIES_ORIGIN ["COM"]
properties('MP2/aug-cc-pvtz', properties = ['dipole'])
--------------------------------------------------------------------------

    Molecular point group: c1
  Charge       = 0
  Multiplicity = 1
  Basis Set: AUG-CC-PVTZ
    Blend: AUG-CC-PVTZ
  Basis Set: (AUG-CC-PVTZ AUX)
    Blend: AUG-CC-PVTZ-JKFIT

    Orbital Energies [Eh]
    ---------------------

    Doubly Occupied:

       1A    -20.495470     2A    -15.629724     3A    -15.595403
       4A    -15.547071     5A    -11.365177     6A    -11.355875
       7A    -11.332162     8A    -11.273620     9A    -11.250042
      10A     -1.377221    11A     -1.291165    12A     -1.265634
      13A     -1.158531    14A     -1.075833    15A     -0.965033
      16A     -0.903212    17A     -0.846164    18A     -0.757196
      19A     -0.723770    20A     -0.685661    21A     -0.672186
      22A     -0.656056    23A     -0.621003    24A     -0.603054
      25A     -0.585448    26A     -0.575349    27A     -0.561009
      28A     -0.520218    29A     -0.477031    30A     -0.436924
      31A     -0.420443    32A     -0.380384    33A     -0.338583

  @DF-RHF Final Energy:  -431.79110010601607

   => Energetics <=

    Nuclear Repulsion Energy =            439.2110644917979130
    One-Electron Energy =               -1458.5210190881755352
    Two-Electron Energy =                 587.5188544903614911
    Total Energy =                       -431.7911001060160743
  Basis Set: (AUG-CC-PVTZ AUX)
    Blend: AUG-CC-PVTZ-RI
    Molecular point group: c1

    Geometry (in Angstrom), charge = 0, multiplicity = 1:

       Center              X                  Y                   Z               Mass
    ------------   -----------------  -----------------  -----------------  -----------------
         O           -1.388045140877     1.833066325456    -0.005892946679    15.994914619570
         N           -1.131763740877    -0.486407974544     0.010204453321    14.003074004430
         N            0.718521659123     1.082984225456     0.011367953321    14.003074004430
         N            2.877824259123     0.201457025456    -0.072287546679    14.003074004430
         C           -0.287484740877    -1.556157974544     0.002917453321    12.000000000000
         C            1.062414259123    -1.390198974544    -0.000346546679    12.000000000000
         C           -0.648009740877     0.850834025456     0.019219453321    12.000000000000
         C           -2.575857740877    -0.710818974544     0.004213453321    12.000000000000
         C            1.523532259123    -0.035386974544     0.003491453321    12.000000000000
         H           -0.766355740877    -2.532111974544    -0.006259546679     1.007825032230
         H            1.741236259123    -2.235158974544    -0.027694546679     1.007825032230
         H           -2.877619740877    -1.270637974544     0.892905453321     1.007825032230
         H           -2.872513740877    -1.257381974544    -0.894366546679     1.007825032230
         H           -3.040434740877     0.272008025456     0.010646453321     1.007825032230
         H            3.488595259123    -0.486414974544     0.350470453321     1.007825032230
         H            3.131255259123     1.165430025456     0.121282453321     1.007825032230

  Basis Set: AUG-CC-PVTZ
    Blend: AUG-CC-PVTZ
  Basis Set: (AUG-CC-PVTZ AUX)
    Blend: AUG-CC-PVTZ-JKFIT
	 Reference Energy          =    -431.7911001060160743 [Eh]
	 Singles Energy            =      -0.0000000000000000 [Eh]
	 Same-Spin Energy          =      -0.4509422814541658 [Eh]
	 Opposite-Spin Energy      =      -1.3740178343821445 [Eh]
	 Correlation Energy        =      -1.8249601158363102 [Eh]
	 Total Energy              =    -433.6160602218523650 [Eh]

	 ================> DF-SCS-MP2 Energies <==================
	-----------------------------------------------------------
	 SCS Same-Spin Scale       =       0.3333333333333333 [-]
	 SCS Opposite-Spin Scale   =       1.2000000000000000 [-]
	 SCS Same-Spin Energy      =      -0.1503140938180553 [Eh]
	 SCS Opposite-Spin Energy  =      -1.6488214012585733 [Eh]
	 SCS Correlation Energy    =      -1.7991354950766287 [Eh]
	 SCS Total Energy          =    -433.5902356010927292 [Eh]
	-----------------------------------------------------------

  Dipole Moment: [D]
     X:     1.7464      Y:    -5.9427      Z:     0.8284     Total:     6.2492

*** Psi4 exiting successfully. Buy a developer a beer!
