                               Psi4 1.4a3.dev225

  ==> Input File <==

--------------------------------------------------------------------------
#psi4
#
memory 32 gb

molecule  {
0 1
  O       -1.4602810    -1.8042760    -0.0008590
  N       -1.1067000     0.4494610     0.0014260
  N        0.7338450    -1.0777760     0.0056990
  N        2.8872480    -0.2944040    -0.0665390
  C       -0.2451065     1.5238194    -0.0003102
  C        1.0914800     1.3228940    -0.0047970
  C       -0.6316600    -0.8954310    -0.0014820
  C       -2.5563510     0.6193970     0.0049040
  C        1.5404980    -0.0347530    -0.0000590
  H       -0.7147670     2.4940890    -0.0022110
  H        1.7746080     2.1637920    -0.0246520
  H       -2.7835150     1.6863950     0.0041520
  H       -2.9802500     0.1433220     0.8903410
  H       -2.9840040     0.1411790    -0.8774920
  H        3.5206970     0.4000120     0.3068300
  H        3.1306380    -1.2574880     0.1361150
units angstrom
no_reorient  #important for SAPT in psi4, default
symmetry c1  #important for SAPT in psi4, default
}

set PROPERTIES_ORIGIN ["COM"]
properties('MP2/aug-cc-pvtz', properties = ['dipole'])
--------------------------------------------------------------------------

    Molecular point group: c1
  Charge       = 0
  Multiplicity = 1
  Basis Set: AUG-CC-PVTZ
    Blend: AUG-CC-PVTZ
  Basis Set: (AUG-CC-PVTZ AUX)
    Blend: AUG-CC-PVTZ-JKFIT

    Orbital Energies [Eh]
    ---------------------

    Doubly Occupied:

       1A    -20.502141     2A    -15.623632     3A    -15.592838
       4A    -15.543225     5A    -11.368377     6A    -11.350945
       7A    -11.327482     8A    -11.271925     9A    -11.244744
      10A     -1.381128    11A     -1.293956    12A     -1.264255
      13A     -1.171761    14A     -1.075407    15A     -0.962658
      16A     -0.897928    17A     -0.854943    18A     -0.759165
      19A     -0.725300    20A     -0.685383    21A     -0.674849
      22A     -0.652507    23A     -0.622636    24A     -0.605357
      25A     -0.588721    26A     -0.576263    27A     -0.564228
      28A     -0.516742    29A     -0.478123    30A     -0.442520
      31A     -0.418171    32A     -0.385039    33A     -0.339670

  @DF-RHF Final Energy:  -431.80255704272588

   => Energetics <=

    Nuclear Repulsion Energy =            441.2963566161217841
    One-Electron Energy =               -1462.6737919725060237
    Two-Electron Energy =                 589.5748783136583597
    Total Energy =                       -431.8025570427258799
  Basis Set: (AUG-CC-PVTZ AUX)
    Blend: AUG-CC-PVTZ-RI
    Molecular point group: c1

    Geometry (in Angstrom), charge = 0, multiplicity = 1:

       Center              X                  Y                   Z               Mass
    ------------   -----------------  -----------------  -----------------  -----------------
         O           -1.469826764858    -1.760036333159     0.002580793100    15.994914619570
         N           -1.116245764858     0.493700666841     0.004865793100    14.003074004430
         N            0.724299235142    -1.033536333159     0.009138793100    14.003074004430
         N            2.877702235142    -0.250164333159    -0.063099206900    14.003074004430
         C           -0.254652264858     1.568059066841     0.003129593100    12.000000000000
         C            1.081934235142     1.367133666841    -0.001357206900    12.000000000000
         C           -0.641205764858    -0.851191333159     0.001957793100    12.000000000000
         C           -2.565896764858     0.663636666841     0.008343793100    12.000000000000
         C            1.530952235142     0.009486666841     0.003380793100    12.000000000000
         H           -0.724312764858     2.538328666841     0.001228793100     1.007825032230
         H            1.765062235142     2.208031666841    -0.021212206900     1.007825032230
         H           -2.793060764858     1.730634666841     0.007591793100     1.007825032230
         H           -2.989795764858     0.187561666841     0.893780793100     1.007825032230
         H           -2.993549764858     0.185418666841    -0.874052206900     1.007825032230
         H            3.511151235142     0.444251666841     0.310269793100     1.007825032230
         H            3.121092235142    -1.213248333159     0.139554793100     1.007825032230

  Basis Set: AUG-CC-PVTZ
    Blend: AUG-CC-PVTZ
  Basis Set: (AUG-CC-PVTZ AUX)
    Blend: AUG-CC-PVTZ-JKFIT
	 Reference Energy          =    -431.8025570427258799 [Eh]
	 Singles Energy            =      -0.0000000000000000 [Eh]
	 Same-Spin Energy          =      -0.4502856912712662 [Eh]
	 Opposite-Spin Energy      =      -1.3720487473366370 [Eh]
	 Correlation Energy        =      -1.8223344386079030 [Eh]
	 Total Energy              =    -433.6248914813338047 [Eh]

	 ================> DF-SCS-MP2 Energies <==================
	-----------------------------------------------------------
	 SCS Same-Spin Scale       =       0.3333333333333333 [-]
	 SCS Opposite-Spin Scale   =       1.2000000000000000 [-]
	 SCS Same-Spin Energy      =      -0.1500952304237554 [Eh]
	 SCS Opposite-Spin Energy  =      -1.6464584968039644 [Eh]
	 SCS Correlation Energy    =      -1.7965537272277197 [Eh]
	 SCS Total Energy          =    -433.5991107699535974 [Eh]
	-----------------------------------------------------------

  Dipole Moment: [D]
     X:     1.9072      Y:     5.6298      Z:     0.7694     Total:     5.9936

*** Psi4 exiting successfully. Buy a developer a beer!
