                               Psi4 1.3.2 release

  ==> Input File <==

--------------------------------------------------------------------------
#psi4
#
memory 32 gb

molecule  {
0 1
  O       -1.4243350     1.8531120    -0.0084660
  N       -1.1176450    -0.4263010     0.0065070
  N        0.7429240     1.0712790     0.0095610
  N        2.8919430     0.2615640    -0.0759850
  C       -0.2365459    -1.4659364    -0.0004081
  C        1.0765330    -1.3300920    -0.0040440
  C       -0.6338910     0.9109410     0.0155220
  C       -2.5686927    -0.6001788     0.0009509
  C        1.5376510     0.0247200    -0.0002060
  H       -0.7522370    -2.4720050    -0.0099570
  H        1.7553550    -2.1750520    -0.0313920
  H       -2.8635010    -1.2105310     0.8892080
  H       -2.8583950    -1.1972750    -0.8980640
  H       -3.0263160     0.3321150     0.0069490
  H        3.5027140    -0.4263080     0.3467730
  H        3.1453740     1.2255370     0.1175850
units angstrom
no_reorient  #important for SAPT in psi4, default
symmetry c1  #important for SAPT in psi4, default
}

set PROPERTIES_ORIGIN ["COM"]
properties('MP2/aug-cc-pvtz', properties = ['dipole'])
--------------------------------------------------------------------------

    Molecular point group: c1
  Charge       = 0
  Multiplicity = 1
  Basis Set: AUG-CC-PVTZ
    Blend: AUG-CC-PVTZ
  Basis Set: (AUG-CC-PVTZ AUX)
    Blend: AUG-CC-PVTZ-JKFIT

    Orbital Energies [Eh]
    ---------------------

    Doubly Occupied:

       1A    -20.502823     2A    -15.623295     3A    -15.592641
       4A    -15.543588     5A    -11.370222     6A    -11.350133
       7A    -11.324563     8A    -11.271995     9A    -11.243295
      10A     -1.382680    11A     -1.296901    12A     -1.266537
      13A     -1.171046    14A     -1.082934    15A     -0.966723
      16A     -0.892137    17A     -0.856373    18A     -0.762085
      19A     -0.722390    20A     -0.686796    21A     -0.670424
      22A     -0.651345    23A     -0.623110    24A     -0.598970
      25A     -0.590222    26A     -0.576760    27A     -0.572042
      28A     -0.519911    29A     -0.477613    30A     -0.441259
      31A     -0.417953    32A     -0.387831    33A     -0.343464

  @DF-RHF Final Energy:  -431.79587652067039

   => Energetics <=

    Nuclear Repulsion Energy =            441.7828499262017203
    One-Electron Energy =               -1463.5973325277880122
    Two-Electron Energy =                 590.0186060809159017
    Total Energy =                       -431.7958765206703902
  Basis Set: (AUG-CC-PVTZ AUX)
    Blend: AUG-CC-PVTZ-RI
    Molecular point group: c1

    Geometry (in Angstrom), charge = 0, multiplicity = 1:

       Center              X                  Y                   Z               Mass
    ------------   -----------------  -----------------  -----------------  -----------------
         O           -1.436023826553     1.798431228307    -0.005201455399    15.994914619570
         N           -1.129333826553    -0.480981771693     0.009771544601    14.003074004430
         N            0.731235173447     1.016598228307     0.012825544601    14.003074004430
         N            2.880254173447     0.206883228307    -0.072720455399    14.003074004430
         C           -0.248234726553    -1.520617171693     0.002856444601    12.000000000000
         C            1.064844173447    -1.384772771693    -0.000779455399    12.000000000000
         C           -0.645579826553     0.856260228307     0.018786544601    12.000000000000
         C           -2.580381526553    -0.654859571693     0.004215444601    12.000000000000
         C            1.525962173447    -0.029960771693     0.003058544601    12.000000000000
         H           -0.763925826553    -2.526685771693    -0.006692455399     1.007825032230
         H            1.743666173447    -2.229732771693    -0.028127455399     1.007825032230
         H           -2.875189826553    -1.265211771693     0.892472544601     1.007825032230
         H           -2.870083826553    -1.251955771693    -0.894799455399     1.007825032230
         H           -3.038004826553     0.277434228307     0.010213544601     1.007825032230
         H            3.491025173447    -0.480988771693     0.350037544601     1.007825032230
         H            3.133685173447     1.170856228307     0.120849544601     1.007825032230

  Basis Set: AUG-CC-PVTZ
    Blend: AUG-CC-PVTZ
  Basis Set: (AUG-CC-PVTZ AUX)
    Blend: AUG-CC-PVTZ-JKFIT
	 Reference Energy          =    -431.7958765206703902 [Eh]
	 Singles Energy            =      -0.0000000000000000 [Eh]
	 Same-Spin Energy          =      -0.4499398852992994 [Eh]
	 Opposite-Spin Energy      =      -1.3715210109439890 [Eh]
	 Correlation Energy        =      -1.8214608962432886 [Eh]
	 Total Energy              =    -433.6173374169136991 [Eh]

	 ================> DF-SCS-MP2 Energies <==================
	-----------------------------------------------------------
	 SCS Same-Spin Scale       =       0.3333333333333333 [-]
	 SCS Opposite-Spin Scale   =       1.2000000000000000 [-]
	 SCS Same-Spin Energy      =      -0.1499799617664331 [Eh]
	 SCS Opposite-Spin Energy  =      -1.6458252131327868 [Eh]
	 SCS Correlation Energy    =      -1.7958051748992201 [Eh]
	 SCS Total Energy          =    -433.5916816955696049 [Eh]
	-----------------------------------------------------------

  Dipole Moment: [D]
     X:     1.7809      Y:    -5.6006      Z:     0.8329     Total:     5.9357

*** Psi4 exiting successfully. Buy a developer a beer!
