                               Psi4 1.3.2 release

  ==> Input File <==

--------------------------------------------------------------------------
#psi4
#
memory 32 gb

molecule  {
0 1
  O       -1.4243350     1.8531120    -0.0084660
  N       -1.1176450    -0.4263010     0.0065070
  N        0.7429240     1.0712790     0.0095610
  N        2.8919430     0.2615640    -0.0759850
  C       -0.2185357    -1.4504018    -0.0002190
  C        1.0765330    -1.3300920    -0.0040440
  C       -0.6338910     0.9109410     0.0155220
  C       -2.5715070    -0.5748289     0.0011709
  C        1.5376510     0.0247200    -0.0002060
  H       -0.7522370    -2.4720050    -0.0099570
  H        1.7553550    -2.1750520    -0.0313920
  H       -2.8635010    -1.2105310     0.8892080
  H       -2.8583950    -1.1972750    -0.8980640
  H       -3.0263160     0.3321150     0.0069490
  H        3.5027140    -0.4263080     0.3467730
  H        3.1453740     1.2255370     0.1175850
units angstrom
no_reorient  #important for SAPT in psi4, default
symmetry c1  #important for SAPT in psi4, default
}

set PROPERTIES_ORIGIN ["COM"]
properties('MP2/aug-cc-pvtz', properties = ['dipole'])
--------------------------------------------------------------------------

    Molecular point group: c1
  Charge       = 0
  Multiplicity = 1
  Basis Set: AUG-CC-PVTZ
    Blend: AUG-CC-PVTZ
  Basis Set: (AUG-CC-PVTZ AUX)
    Blend: AUG-CC-PVTZ-JKFIT

    Orbital Energies [Eh]
    ---------------------

    Doubly Occupied:

       1A    -20.502567     2A    -15.622538     3A    -15.593234
       4A    -15.543670     5A    -11.369323     6A    -11.350636
       7A    -11.323482     8A    -11.273138     9A    -11.242010
      10A     -1.382902    11A     -1.297564    12A     -1.266208
      13A     -1.171333    14A     -1.088330    15A     -0.967888
      16A     -0.888704    17A     -0.857909    18A     -0.763644
      19A     -0.722766    20A     -0.687846    21A     -0.669150
      22A     -0.649915    23A     -0.625745    24A     -0.598326
      25A     -0.589069    26A     -0.577173    27A     -0.571364
      28A     -0.518792    29A     -0.478453    30A     -0.441482
      31A     -0.417025    32A     -0.387835    33A     -0.345642

  @DF-RHF Final Energy:  -431.78772114250796

   => Energetics <=

    Nuclear Repulsion Energy =            442.2431316268153410
    One-Electron Energy =               -1464.4903812692873544
    Two-Electron Energy =                 590.4595284999641081
    Total Energy =                       -431.7877211425079622
  Basis Set: (AUG-CC-PVTZ AUX)
    Blend: AUG-CC-PVTZ-RI
    Molecular point group: c1

    Geometry (in Angstrom), charge = 0, multiplicity = 1:

       Center              X                  Y                   Z               Mass
    ------------   -----------------  -----------------  -----------------  -----------------
         O           -1.437481945749     1.794508165226    -0.005240710498    15.994914619570
         N           -1.130791945749    -0.484904834774     0.009732289502    14.003074004430
         N            0.729777054251     1.012675165226     0.012786289502    14.003074004430
         N            2.878796054251     0.202960165226    -0.072759710498    14.003074004430
         C           -0.231682645749    -1.509005634774     0.003006289502    12.000000000000
         C            1.063386054251    -1.388695834774    -0.000818710498    12.000000000000
         C           -0.647037945749     0.852337165226     0.018747289502    12.000000000000
         C           -2.584653945749    -0.633432734774     0.004396189502    12.000000000000
         C            1.524504054251    -0.033883834774     0.003019289502    12.000000000000
         H           -0.765383945749    -2.530608834774    -0.006731710498     1.007825032230
         H            1.742208054251    -2.233655834774    -0.028166710498     1.007825032230
         H           -2.876647945749    -1.269134834774     0.892433289502     1.007825032230
         H           -2.871541945749    -1.255878834774    -0.894838710498     1.007825032230
         H           -3.039462945749     0.273511165226     0.010174289502     1.007825032230
         H            3.489567054251    -0.484911834774     0.349998289502     1.007825032230
         H            3.132227054251     1.166933165226     0.120810289502     1.007825032230

  Basis Set: AUG-CC-PVTZ
    Blend: AUG-CC-PVTZ
  Basis Set: (AUG-CC-PVTZ AUX)
    Blend: AUG-CC-PVTZ-JKFIT
	 Reference Energy          =    -431.7877211425079622 [Eh]
	 Singles Energy            =      -0.0000000000000000 [Eh]
	 Same-Spin Energy          =      -0.4498477342003562 [Eh]
	 Opposite-Spin Energy      =      -1.3715217929293146 [Eh]
	 Correlation Energy        =      -1.8213695271296708 [Eh]
	 Total Energy              =    -433.6090906696376237 [Eh]

	 ================> DF-SCS-MP2 Energies <==================
	-----------------------------------------------------------
	 SCS Same-Spin Scale       =       0.3333333333333333 [-]
	 SCS Opposite-Spin Scale   =       1.2000000000000000 [-]
	 SCS Same-Spin Energy      =      -0.1499492447334521 [Eh]
	 SCS Opposite-Spin Energy  =      -1.6458261515151775 [Eh]
	 SCS Correlation Energy    =      -1.7957753962486296 [Eh]
	 SCS Total Energy          =    -433.5834965387566058 [Eh]
	-----------------------------------------------------------

  Dipole Moment: [D]
     X:     1.8280      Y:    -5.5774      Z:     0.8332     Total:     5.9282

*** Psi4 exiting successfully. Buy a developer a beer!
