                               Psi4 1.3.2 release

  ==> Input File <==

--------------------------------------------------------------------------
#psi4
#
memory 32 gb

molecule  {
0 1
  O       -1.4243350     1.8531120    -0.0084660
  N       -1.1082775    -0.4189740     0.0065120
  N        0.7429240     1.0712790     0.0095610
  N        2.8919430     0.2615640    -0.0759850
  C       -0.2733660    -1.4960510    -0.0007800
  C        1.0750335    -1.3183185    -0.0039869
  C       -0.6338910     0.9109410     0.0155220
  C       -2.5617390    -0.6507120     0.0005160
  C        1.5376510     0.0247200    -0.0002060
  H       -0.7522370    -2.4720050    -0.0099570
  H        1.7553550    -2.1750520    -0.0313920
  H       -2.8635010    -1.2105310     0.8892080
  H       -2.8583950    -1.1972750    -0.8980640
  H       -3.0263160     0.3321150     0.0069490
  H        3.5027140    -0.4263080     0.3467730
  H        3.1453740     1.2255370     0.1175850
units angstrom
no_reorient  #important for SAPT in psi4, default
symmetry c1  #important for SAPT in psi4, default
}

set PROPERTIES_ORIGIN ["COM"]
properties('MP2/aug-cc-pvtz', properties = ['dipole'])
--------------------------------------------------------------------------

    Molecular point group: c1
  Charge       = 0
  Multiplicity = 1
  Basis Set: AUG-CC-PVTZ
    Blend: AUG-CC-PVTZ
  Basis Set: (AUG-CC-PVTZ AUX)
    Blend: AUG-CC-PVTZ-JKFIT

    Orbital Energies [Eh]
    ---------------------

    Doubly Occupied:

       1A    -20.502085     2A    -15.625891     3A    -15.590896
       4A    -15.542700     5A    -11.370846     6A    -11.347726
       7A    -11.327841     8A    -11.271629     9A    -11.246038
      10A     -1.382871    11A     -1.296213    12A     -1.266940
      13A     -1.169937    14A     -1.073030    15A     -0.965761
      16A     -0.902218    17A     -0.853086    18A     -0.759635
      19A     -0.724549    20A     -0.683847    21A     -0.673232
      22A     -0.655534    23A     -0.622251    24A     -0.602836
      25A     -0.590469    26A     -0.580064    27A     -0.558343
      28A     -0.522359    29A     -0.476224    30A     -0.439998
      31A     -0.419447    32A     -0.387633    33A     -0.339075

  @DF-RHF Final Energy:  -431.80055326357473

   => Energetics <=

    Nuclear Repulsion Energy =            441.2732765989630934
    One-Electron Energy =               -1462.6052521654851262
    Two-Electron Energy =                 589.5314223029472487
    Total Energy =                       -431.8005532635747841
  Basis Set: (AUG-CC-PVTZ AUX)
    Blend: AUG-CC-PVTZ-RI
    Molecular point group: c1

    Geometry (in Angstrom), charge = 0, multiplicity = 1:

       Center              X                  Y                   Z               Mass
    ------------   -----------------  -----------------  -----------------  -----------------
         O           -1.434063014639     1.804219628877    -0.005130077961    15.994914619570
         N           -1.118005514639    -0.467866371123     0.009847922039    14.003074004430
         N            0.733195985361     1.022386628877     0.012896922039    14.003074004430
         N            2.882214985361     0.212671628877    -0.072649077961    14.003074004430
         C           -0.283094014639    -1.544943371123     0.002555922039    12.000000000000
         C            1.065305485361    -1.367210871123    -0.000650977961    12.000000000000
         C           -0.643619014639     0.862048628877     0.018857922039    12.000000000000
         C           -2.571467014639    -0.699604371123     0.003851922039    12.000000000000
         C            1.527922985361    -0.024172371123     0.003129922039    12.000000000000
         H           -0.761965014639    -2.520897371123    -0.006621077961     1.007825032230
         H            1.745626985361    -2.223944371123    -0.028056077961     1.007825032230
         H           -2.873229014639    -1.259423371123     0.892543922039     1.007825032230
         H           -2.868123014639    -1.246167371123    -0.894728077961     1.007825032230
         H           -3.036044014639     0.283222628877     0.010284922039     1.007825032230
         H            3.492985985361    -0.475200371123     0.350108922039     1.007825032230
         H            3.135645985361     1.176644628877     0.120920922039     1.007825032230

  Basis Set: AUG-CC-PVTZ
    Blend: AUG-CC-PVTZ
  Basis Set: (AUG-CC-PVTZ AUX)
    Blend: AUG-CC-PVTZ-JKFIT
	 Reference Energy          =    -431.8005532635747272 [Eh]
	 Singles Energy            =      -0.0000000000000000 [Eh]
	 Same-Spin Energy          =      -0.4505244354088387 [Eh]
	 Opposite-Spin Energy      =      -1.3722505397197187 [Eh]
	 Correlation Energy        =      -1.8227749751285574 [Eh]
	 Total Energy              =    -433.6233282387032659 [Eh]

	 ================> DF-SCS-MP2 Energies <==================
	-----------------------------------------------------------
	 SCS Same-Spin Scale       =       0.3333333333333333 [-]
	 SCS Opposite-Spin Scale   =       1.2000000000000000 [-]
	 SCS Same-Spin Energy      =      -0.1501748118029462 [Eh]
	 SCS Opposite-Spin Energy  =      -1.6467006476636623 [Eh]
	 SCS Correlation Energy    =      -1.7968754594666085 [Eh]
	 SCS Total Energy          =    -433.5974287230413324 [Eh]
	-----------------------------------------------------------

  Dipole Moment: [D]
     X:     1.6670      Y:    -5.7015      Z:     0.8337     Total:     5.9985

*** Psi4 exiting successfully. Buy a developer a beer!
