                               Psi4 1.3.2 release

  ==> Input File <==

--------------------------------------------------------------------------
#psi4
#
memory 32 gb

molecule  {
0 1
  O       -1.4243350     1.8531120    -0.0084660
  N       -1.1176450    -0.4263010     0.0065070
  N        0.7429240     1.0712790     0.0095610
  N        2.8919430     0.2615640    -0.0759850
  C       -0.2747627    -1.4842648    -0.0007310
  C        1.0765330    -1.3300920    -0.0040440
  C       -0.6338910     0.9109410     0.0155220
  C       -2.5617390    -0.6507120     0.0005160
  C        1.5258106     0.0286922    -0.0001567
  H       -0.7522370    -2.4720050    -0.0099570
  H        1.7553550    -2.1750520    -0.0313920
  H       -2.8635010    -1.2105310     0.8892080
  H       -2.8583950    -1.1972750    -0.8980640
  H       -3.0263160     0.3321150     0.0069490
  H        3.5027140    -0.4263080     0.3467730
  H        3.1453740     1.2255370     0.1175850
units angstrom
no_reorient  #important for SAPT in psi4, default
symmetry c1  #important for SAPT in psi4, default
}

set PROPERTIES_ORIGIN ["COM"]
properties('MP2/aug-cc-pvtz', properties = ['dipole'])
--------------------------------------------------------------------------

    Molecular point group: c1
  Charge       = 0
  Multiplicity = 1
  Basis Set: AUG-CC-PVTZ
    Blend: AUG-CC-PVTZ
  Basis Set: (AUG-CC-PVTZ AUX)
    Blend: AUG-CC-PVTZ-JKFIT

    Orbital Energies [Eh]
    ---------------------

    Doubly Occupied:

       1A    -20.505218     2A    -15.626813     3A    -15.588876
       4A    -15.544302     5A    -11.373654     6A    -11.347982
       7A    -11.327000     8A    -11.271764     9A    -11.245047
      10A     -1.384958    11A     -1.297917    12A     -1.267593
      13A     -1.171341    14A     -1.072878    15A     -0.967001
      16A     -0.899386    17A     -0.854488    18A     -0.758918
      19A     -0.722333    20A     -0.684947    21A     -0.672422
      22A     -0.657639    23A     -0.622328    24A     -0.598665
      25A     -0.594294    26A     -0.580674    27A     -0.560847
      28A     -0.520642    29A     -0.478131    30A     -0.442923
      31A     -0.420814    32A     -0.389298    33A     -0.339036

  @DF-RHF Final Energy:  -431.80116377075865

   => Energetics <=

    Nuclear Repulsion Energy =            441.2865643908183984
    One-Electron Energy =               -1462.5951988019255623
    Two-Electron Energy =                 589.5074706403485152
    Total Energy =                       -431.8011637707586488
  Basis Set: (AUG-CC-PVTZ AUX)
    Blend: AUG-CC-PVTZ-RI
    Molecular point group: c1

    Geometry (in Angstrom), charge = 0, multiplicity = 1:

       Center              X                  Y                   Z               Mass
    ------------   -----------------  -----------------  -----------------  -----------------
         O           -1.431887839822     1.804657676214    -0.005133471439    15.994914619570
         N           -1.125197839822    -0.474755323786     0.009839528561    14.003074004430
         N            0.735371160178     1.022824676214     0.012893528561    14.003074004430
         N            2.884390160178     0.213109676214    -0.072652471439    14.003074004430
         C           -0.282315539822    -1.532719123786     0.002601528561    12.000000000000
         C            1.068980160178    -1.378546323786    -0.000711471439    12.000000000000
         C           -0.641443839822     0.862486676214     0.018854528561    12.000000000000
         C           -2.569291839822    -0.699166323786     0.003848528561    12.000000000000
         C            1.518257760178    -0.019762123786     0.003175828561    12.000000000000
         H           -0.759789839822    -2.520459323786    -0.006624471439     1.007825032230
         H            1.747802160178    -2.223506323786    -0.028059471439     1.007825032230
         H           -2.871053839822    -1.258985323786     0.892540528561     1.007825032230
         H           -2.865947839822    -1.245729323786    -0.894731471439     1.007825032230
         H           -3.033868839822     0.283660676214     0.010281528561     1.007825032230
         H            3.495161160178    -0.474762323786     0.350105528561     1.007825032230
         H            3.137821160178     1.177082676214     0.120917528561     1.007825032230

  Basis Set: AUG-CC-PVTZ
    Blend: AUG-CC-PVTZ
  Basis Set: (AUG-CC-PVTZ AUX)
    Blend: AUG-CC-PVTZ-JKFIT
	 Reference Energy          =    -431.8011637707586488 [Eh]
	 Singles Energy            =      -0.0000000000000000 [Eh]
	 Same-Spin Energy          =      -0.4502876092548564 [Eh]
	 Opposite-Spin Energy      =      -1.3719161603253143 [Eh]
	 Correlation Energy        =      -1.8222037695801707 [Eh]
	 Total Energy              =    -433.6233675403388474 [Eh]

	 ================> DF-SCS-MP2 Energies <==================
	-----------------------------------------------------------
	 SCS Same-Spin Scale       =       0.3333333333333333 [-]
	 SCS Opposite-Spin Scale   =       1.2000000000000000 [-]
	 SCS Same-Spin Energy      =      -0.1500958697516188 [Eh]
	 SCS Opposite-Spin Energy  =      -1.6462993923903770 [Eh]
	 SCS Correlation Energy    =      -1.7963952621419959 [Eh]
	 SCS Total Energy          =    -433.5975590329006195 [Eh]
	-----------------------------------------------------------

  Dipole Moment: [D]
     X:     1.5540      Y:    -5.6012      Z:     0.8360     Total:     5.8726

*** Psi4 exiting successfully. Buy a developer a beer!
