                               Psi4 1.3.2 release

  ==> Input File <==

--------------------------------------------------------------------------
#psi4
#
memory 32 gb

molecule  {
0 1
  O       -1.4160804     1.8599713    -0.0086581
  N       -1.1176450    -0.4263010     0.0065070
  N        0.7414715     1.0832836     0.0092446
  N        2.8919430     0.2615640    -0.0759850
  C       -0.2733660    -1.4960510    -0.0007800
  C        1.0765330    -1.3300920    -0.0040440
  C       -0.6338910     0.9109410     0.0155220
  C       -2.5617390    -0.6507120     0.0005160
  C        1.5376510     0.0247200    -0.0002060
  H       -0.7522370    -2.4720050    -0.0099570
  H        1.7553550    -2.1750520    -0.0313920
  H       -2.8635010    -1.2105310     0.8892080
  H       -2.8583950    -1.1972750    -0.8980640
  H       -3.0263160     0.3321150     0.0069490
  H        3.5027140    -0.4263080     0.3467730
  H        3.1453740     1.2255370     0.1175850
units angstrom
no_reorient  #important for SAPT in psi4, default
symmetry c1  #important for SAPT in psi4, default
}

set PROPERTIES_ORIGIN ["COM"]
properties('MP2/aug-cc-pvtz', properties = ['dipole'])
--------------------------------------------------------------------------

    Molecular point group: c1
  Charge       = 0
  Multiplicity = 1
  Basis Set: AUG-CC-PVTZ
    Blend: AUG-CC-PVTZ
  Basis Set: (AUG-CC-PVTZ AUX)
    Blend: AUG-CC-PVTZ-JKFIT

    Orbital Energies [Eh]
    ---------------------

    Doubly Occupied:

       1A    -20.502230     2A    -15.626126     3A    -15.592196
       4A    -15.544177     5A    -11.370996     6A    -11.350476
       7A    -11.328071     8A    -11.271003     9A    -11.246700
      10A     -1.381604    11A     -1.294864    12A     -1.267257
      13A     -1.168845    14A     -1.073277    15A     -0.965164
      16A     -0.899983    17A     -0.852402    18A     -0.758741
      19A     -0.723707    20A     -0.685603    21A     -0.674101
      22A     -0.655556    23A     -0.621688    24A     -0.601867
      25A     -0.591449    26A     -0.579021    27A     -0.559499
      28A     -0.521572    29A     -0.476419    30A     -0.439910
      31A     -0.420410    32A     -0.386524    33A     -0.339059

  @DF-RHF Final Energy:  -431.80029605622104

   => Energetics <=

    Nuclear Repulsion Energy =            440.6215149845899646
    One-Electron Energy =               -1461.3026334658275118
    Two-Electron Energy =                 588.8808224250163903
    Total Energy =                       -431.8002960562211001
  Basis Set: (AUG-CC-PVTZ AUX)
    Blend: AUG-CC-PVTZ-RI
    Molecular point group: c1

    Geometry (in Angstrom), charge = 0, multiplicity = 1:

       Center              X                  Y                   Z               Mass
    ------------   -----------------  -----------------  -----------------  -----------------
         O           -1.425796519138     1.810807595181    -0.005256141795    15.994914619570
         N           -1.127361119138    -0.475464704819     0.009908958205    14.003074004430
         N            0.731755380862     1.034119895181     0.012646558205    14.003074004430
         N            2.882226880862     0.212400295181    -0.072583041795    14.003074004430
         C           -0.283082119138    -1.545214704819     0.002621958205    12.000000000000
         C            1.066816880862    -1.379255704819    -0.000642041795    12.000000000000
         C           -0.643607119138     0.861777295181     0.018923958205    12.000000000000
         C           -2.571455119138    -0.699875704819     0.003917958205    12.000000000000
         C            1.527934880862    -0.024443704819     0.003195958205    12.000000000000
         H           -0.761953119138    -2.521168704819    -0.006555041795     1.007825032230
         H            1.745638880862    -2.224215704819    -0.027990041795     1.007825032230
         H           -2.873217119138    -1.259694704819     0.892609958205     1.007825032230
         H           -2.868111119138    -1.246438704819    -0.894662041795     1.007825032230
         H           -3.036032119138     0.282951295181     0.010350958205     1.007825032230
         H            3.492997880862    -0.475471704819     0.350174958205     1.007825032230
         H            3.135657880862     1.176373295181     0.120986958205     1.007825032230

  Basis Set: AUG-CC-PVTZ
    Blend: AUG-CC-PVTZ
  Basis Set: (AUG-CC-PVTZ AUX)
    Blend: AUG-CC-PVTZ-JKFIT
	 Reference Energy          =    -431.8002960562210433 [Eh]
	 Singles Energy            =      -0.0000000000000000 [Eh]
	 Same-Spin Energy          =      -0.4504448482213450 [Eh]
	 Opposite-Spin Energy      =      -1.3724061513285413 [Eh]
	 Correlation Energy        =      -1.8228509995498863 [Eh]
	 Total Energy              =    -433.6231470557709144 [Eh]

	 ================> DF-SCS-MP2 Energies <==================
	-----------------------------------------------------------
	 SCS Same-Spin Scale       =       0.3333333333333333 [-]
	 SCS Opposite-Spin Scale   =       1.2000000000000000 [-]
	 SCS Same-Spin Energy      =      -0.1501482827404483 [Eh]
	 SCS Opposite-Spin Energy  =      -1.6468873815942495 [Eh]
	 SCS Correlation Energy    =      -1.7970356643346979 [Eh]
	 SCS Total Energy          =    -433.5973317205557578 [Eh]
	-----------------------------------------------------------

  Dipole Moment: [D]
     X:     1.7118      Y:    -5.6885      Z:     0.8318     Total:     5.9984

*** Psi4 exiting successfully. Buy a developer a beer!
