                               Psi4 1.4a3.dev225

  ==> Input File <==

--------------------------------------------------------------------------
#psi4
#
memory 32 gb

molecule  {
0 1
  O       -1.4602810    -1.8042760    -0.0008590
  N       -1.1067000     0.4494610     0.0014260
  N        0.7338450    -1.0777760     0.0056990
  N        2.8872480    -0.2944040    -0.0665390
  C       -0.2576190     1.5082170    -0.0002850
  C        1.0914800     1.3228940    -0.0047970
  C       -0.6181852    -0.8806516    -0.0014921
  C       -2.5563510     0.6193970     0.0049040
  C        1.5404980    -0.0347530    -0.0000590
  H       -0.7147670     2.4940890    -0.0022110
  H        1.7746080     2.1637920    -0.0246520
  H       -2.7835150     1.6863950     0.0041520
  H       -2.9802500     0.1433220     0.8903410
  H       -2.9840040     0.1411790    -0.8774920
  H        3.5206970     0.4000120     0.3068300
  H        3.1306380    -1.2574880     0.1361150
units angstrom
no_reorient  #important for SAPT in psi4, default
symmetry c1  #important for SAPT in psi4, default
}

set PROPERTIES_ORIGIN ["COM"]
properties('MP2/aug-cc-pvtz', properties = ['dipole'])
--------------------------------------------------------------------------

    Molecular point group: c1
  Charge       = 0
  Multiplicity = 1
  Basis Set: AUG-CC-PVTZ
    Blend: AUG-CC-PVTZ
  Basis Set: (AUG-CC-PVTZ AUX)
    Blend: AUG-CC-PVTZ-JKFIT

    Orbital Energies [Eh]
    ---------------------

    Doubly Occupied:

       1A    -20.497348     2A    -15.628431     3A    -15.593196
       4A    -15.544343     5A    -11.368329     6A    -11.351380
       7A    -11.329612     8A    -11.274245     9A    -11.245350
      10A     -1.376395    11A     -1.291235    12A     -1.269171
      13A     -1.175305    14A     -1.073962    15A     -0.967044
      16A     -0.901304    17A     -0.857509    18A     -0.761400
      19A     -0.725746    20A     -0.687723    21A     -0.675390
      22A     -0.656118    23A     -0.620808    24A     -0.602191
      25A     -0.588049    26A     -0.577423    27A     -0.564694
      28A     -0.514532    29A     -0.477716    30A     -0.439031
      31A     -0.419388    32A     -0.386068    33A     -0.338053

  @DF-RHF Final Energy:  -431.80164240756875

   => Energetics <=

    Nuclear Repulsion Energy =            441.6865726734321242
    One-Electron Energy =               -1463.4194516948684850
    Two-Electron Energy =                 589.9312366138676680
    Total Energy =                       -431.8016424075686928
  Basis Set: (AUG-CC-PVTZ AUX)
    Blend: AUG-CC-PVTZ-RI
    Molecular point group: c1

    Geometry (in Angstrom), charge = 0, multiplicity = 1:

       Center              X                  Y                   Z               Mass
    ------------   -----------------  -----------------  -----------------  -----------------
         O           -1.469919102140    -1.759957362378     0.002579344183    15.994914619570
         N           -1.116338102140     0.493779637622     0.004864344183    14.003074004430
         N            0.724206897860    -1.033457362378     0.009137344183    14.003074004430
         N            2.877609897860    -0.250085362378    -0.063100655817    14.003074004430
         C           -0.267257102140     1.552535637622     0.003153344183    12.000000000000
         C            1.081841897860     1.367212637622    -0.001358655817    12.000000000000
         C           -0.627823302140    -0.836332962378     0.001946244183    12.000000000000
         C           -2.565989102140     0.663715637622     0.008342344183    12.000000000000
         C            1.530859897860     0.009565637622     0.003379344183    12.000000000000
         H           -0.724405102140     2.538407637622     0.001227344183     1.007825032230
         H            1.764969897860     2.208110637622    -0.021213655817     1.007825032230
         H           -2.793153102140     1.730713637622     0.007590344183     1.007825032230
         H           -2.989888102140     0.187640637622     0.893779344183     1.007825032230
         H           -2.993642102140     0.185497637622    -0.874053655817     1.007825032230
         H            3.511058897860     0.444330637622     0.310268344183     1.007825032230
         H            3.120999897860    -1.213169362378     0.139553344183     1.007825032230

  Basis Set: AUG-CC-PVTZ
    Blend: AUG-CC-PVTZ
  Basis Set: (AUG-CC-PVTZ AUX)
    Blend: AUG-CC-PVTZ-JKFIT
	 Reference Energy          =    -431.8016424075687496 [Eh]
	 Singles Energy            =      -0.0000000000000000 [Eh]
	 Same-Spin Energy          =      -0.4507411674742644 [Eh]
	 Opposite-Spin Energy      =      -1.3724134432419142 [Eh]
	 Correlation Energy        =      -1.8231546107161787 [Eh]
	 Total Energy              =    -433.6247970182849372 [Eh]

	 ================> DF-SCS-MP2 Energies <==================
	-----------------------------------------------------------
	 SCS Same-Spin Scale       =       0.3333333333333333 [-]
	 SCS Opposite-Spin Scale   =       1.2000000000000000 [-]
	 SCS Same-Spin Energy      =      -0.1502470558247548 [Eh]
	 SCS Opposite-Spin Energy  =      -1.6468961318902970 [Eh]
	 SCS Correlation Energy    =      -1.7971431877150519 [Eh]
	 SCS Total Energy          =    -433.5987855952838004 [Eh]
	-----------------------------------------------------------

  Dipole Moment: [D]
     X:     1.9480      Y:     5.7671      Z:     0.7695     Total:     6.1357

*** Psi4 exiting successfully. Buy a developer a beer!
