                               Psi4 1.4a3.dev225

  ==> Input File <==

--------------------------------------------------------------------------
#psi4
#
memory 32 gb

molecule  {
0 1
  O       -1.4602810    -1.8042760    -0.0008590
  N       -1.1067000     0.4494610     0.0014260
  N        0.7338450    -1.0777760     0.0056990
  N        2.8872480    -0.2944040    -0.0665390
  C       -0.2576190     1.5082170    -0.0002850
  C        1.0914800     1.3228940    -0.0047970
  C       -0.6316600    -0.8954310    -0.0014820
  C       -2.5563510     0.6193970     0.0049040
  C        1.5895363    -0.0442075    -0.0024797
  H       -0.7147670     2.4940890    -0.0022110
  H        1.7746080     2.1637920    -0.0246520
  H       -2.7835150     1.6863950     0.0041520
  H       -2.9802500     0.1433220     0.8903410
  H       -2.9840040     0.1411790    -0.8774920
  H        3.5206970     0.4000120     0.3068300
  H        3.1306380    -1.2574880     0.1361150
units angstrom
no_reorient  #important for SAPT in psi4, default
symmetry c1  #important for SAPT in psi4, default
}

set PROPERTIES_ORIGIN ["COM"]
properties('MP2/aug-cc-pvtz', properties = ['dipole'])
--------------------------------------------------------------------------

    Molecular point group: c1
  Charge       = 0
  Multiplicity = 1
  Basis Set: AUG-CC-PVTZ
    Blend: AUG-CC-PVTZ
  Basis Set: (AUG-CC-PVTZ AUX)
    Blend: AUG-CC-PVTZ-JKFIT

    Orbital Energies [Eh]
    ---------------------

    Doubly Occupied:

       1A    -20.499423     2A    -15.621830     3A    -15.601138
       4A    -15.538159     5A    -11.366232     6A    -11.352116
       7A    -11.325451     8A    -11.270853     9A    -11.243431
      10A     -1.378792    11A     -1.300367    12A     -1.273672
      13A     -1.170621    14A     -1.066483    15A     -0.962125
      16A     -0.894444    17A     -0.856842    18A     -0.763937
      19A     -0.729721    20A     -0.692089    21A     -0.676000
      22A     -0.651833    23A     -0.619614    24A     -0.600585
      25A     -0.585852    26A     -0.577469    27A     -0.564781
      28A     -0.522823    29A     -0.477892    30A     -0.435472
      31A     -0.412735    32A     -0.380697    33A     -0.334454

  @DF-RHF Final Energy:  -431.79968522160254

   => Energetics <=

    Nuclear Repulsion Energy =            441.1355458362752415
    One-Electron Energy =               -1462.3745984697682161
    Two-Electron Energy =                 589.4393674118904300
    Total Energy =                       -431.7996852216025445
  Basis Set: (AUG-CC-PVTZ AUX)
    Blend: AUG-CC-PVTZ-RI
    Molecular point group: c1

    Geometry (in Angstrom), charge = 0, multiplicity = 1:

       Center              X                  Y                   Z               Mass
    ------------   -----------------  -----------------  -----------------  -----------------
         O           -1.473331589852    -1.757632003907     0.002810652768    15.994914619570
         N           -1.119750589852     0.496104996093     0.005095652768    14.003074004430
         N            0.720794410148    -1.031132003907     0.009368652768    14.003074004430
         N            2.874197410148    -0.247760003907    -0.062869347232    14.003074004430
         C           -0.270669589852     1.554860996093     0.003384652768    12.000000000000
         C            1.078429410148     1.369537996093    -0.001127347232    12.000000000000
         C           -0.644710589852    -0.848787003907     0.002187652768    12.000000000000
         C           -2.569401589852     0.666040996093     0.008573652768    12.000000000000
         C            1.576485710148     0.002436496093     0.001189952768    12.000000000000
         H           -0.727817589852     2.540732996093     0.001458652768     1.007825032230
         H            1.761557410148     2.210435996093    -0.020982347232     1.007825032230
         H           -2.796565589852     1.733038996093     0.007821652768     1.007825032230
         H           -2.993300589852     0.189965996093     0.894010652768     1.007825032230
         H           -2.997054589852     0.187822996093    -0.873822347232     1.007825032230
         H            3.507646410148     0.446655996093     0.310499652768     1.007825032230
         H            3.117587410148    -1.210844003907     0.139784652768     1.007825032230

  Basis Set: AUG-CC-PVTZ
    Blend: AUG-CC-PVTZ
  Basis Set: (AUG-CC-PVTZ AUX)
    Blend: AUG-CC-PVTZ-JKFIT
	 Reference Energy          =    -431.7996852216025445 [Eh]
	 Singles Energy            =      -0.0000000000000000 [Eh]
	 Same-Spin Energy          =      -0.4504547563390164 [Eh]
	 Opposite-Spin Energy      =      -1.3718502790968843 [Eh]
	 Correlation Energy        =      -1.8223050354359007 [Eh]
	 Total Energy              =    -433.6219902570384193 [Eh]

	 ================> DF-SCS-MP2 Energies <==================
	-----------------------------------------------------------
	 SCS Same-Spin Scale       =       0.3333333333333333 [-]
	 SCS Opposite-Spin Scale   =       1.2000000000000000 [-]
	 SCS Same-Spin Energy      =      -0.1501515854463388 [Eh]
	 SCS Opposite-Spin Energy  =      -1.6462203349162612 [Eh]
	 SCS Correlation Energy    =      -1.7963719203626001 [Eh]
	 SCS Total Energy          =    -433.5960571419651615 [Eh]
	-----------------------------------------------------------

  Dipole Moment: [D]
     X:     2.3104      Y:     5.5520      Z:     0.7548     Total:     6.0607

*** Psi4 exiting successfully. Buy a developer a beer!
