                               Psi4 1.3.2 release

  ==> Input File <==

--------------------------------------------------------------------------
#psi4
#
memory 32 gb

molecule  {
0 1
  O       -1.4243350     1.8531120    -0.0084660
  N       -1.1176450    -0.4263010     0.0065070
  N        0.7429240     1.0712790     0.0095610
  N        2.8919430     0.2615640    -0.0759850
  C       -0.2733660    -1.4960510    -0.0007800
  C        1.0765330    -1.3300920    -0.0040440
  C       -0.6338910     0.9109410     0.0155220
  C       -2.5617390    -0.6507120     0.0005160
  C        1.5376510     0.0247200    -0.0002060
  H       -0.7522370    -2.4720050    -0.0099570
  H        1.7553550    -2.1750520    -0.0313920
  H       -2.8635010    -1.2105310     0.8892080
  H       -2.8583950    -1.1972750    -0.8980640
  H       -3.0263160     0.3321150     0.0069490
  H        3.4423844    -0.3583626     0.3050146
  H        3.1453740     1.2255370     0.1175850
units angstrom
no_reorient  #important for SAPT in psi4, default
symmetry c1  #important for SAPT in psi4, default
}

set PROPERTIES_ORIGIN ["COM"]
properties('MP2/aug-cc-pvtz', properties = ['dipole'])
--------------------------------------------------------------------------

    Molecular point group: c1
  Charge       = 0
  Multiplicity = 1
  Basis Set: AUG-CC-PVTZ
    Blend: AUG-CC-PVTZ
  Basis Set: (AUG-CC-PVTZ AUX)
    Blend: AUG-CC-PVTZ-JKFIT

    Orbital Energies [Eh]
    ---------------------

    Doubly Occupied:

       1A    -20.503853     2A    -15.625861     3A    -15.581196
       4A    -15.543851     5A    -11.372470     6A    -11.349558
       7A    -11.327752     8A    -11.270750     9A    -11.246457
      10A     -1.382950    11A     -1.299067    12A     -1.272705
      13A     -1.179842    14A     -1.073463    15A     -0.967421
      16A     -0.899905    17A     -0.861104    18A     -0.763988
      19A     -0.727993    20A     -0.696145    21A     -0.679912
      22A     -0.655968    23A     -0.622437    24A     -0.603034
      25A     -0.593188    26A     -0.580493    27A     -0.559418
      28A     -0.522920    29A     -0.476711    30A     -0.441173
      31A     -0.420144    32A     -0.389252    33A     -0.339351

  @DF-RHF Final Energy:  -431.79418357638752

   => Energetics <=

    Nuclear Repulsion Energy =            441.5024186500731957
    One-Electron Energy =               -1462.9325444342753144
    Two-Electron Energy =                 589.6359422078146508
    Total Energy =                       -431.7941835763874678
  Basis Set: (AUG-CC-PVTZ AUX)
    Blend: AUG-CC-PVTZ-RI
    Molecular point group: c1

    Geometry (in Angstrom), charge = 0, multiplicity = 1:

       Center              X                  Y                   Z               Mass
    ------------   -----------------  -----------------  -----------------  -----------------
         O           -1.432671818489     1.805622211434    -0.004787516399    15.994914619570
         N           -1.125981818489    -0.473790788566     0.010185483601    14.003074004430
         N            0.734587181511     1.023789211434     0.013239483601    14.003074004430
         N            2.883606181511     0.214074211434    -0.072306516399    14.003074004430
         C           -0.281702818489    -1.543540788566     0.002898483601    12.000000000000
         C            1.068196181511    -1.377581788566    -0.000365516399    12.000000000000
         C           -0.642227818489     0.863451211434     0.019200483601    12.000000000000
         C           -2.570075818489    -0.698201788566     0.004194483601    12.000000000000
         C            1.529314181511    -0.022769788566     0.003472483601    12.000000000000
         H           -0.760573818489    -2.519494788566    -0.006278516399     1.007825032230
         H            1.747018181511    -2.222541788566    -0.027713516399     1.007825032230
         H           -2.871837818489    -1.258020788566     0.892886483601     1.007825032230
         H           -2.866731818489    -1.244764788566    -0.894385516399     1.007825032230
         H           -3.034652818489     0.284625211434     0.010627483601     1.007825032230
         H            3.434047581511    -0.405852388566     0.308693083601     1.007825032230
         H            3.137037181511     1.178047211434     0.121263483601     1.007825032230

  Basis Set: AUG-CC-PVTZ
    Blend: AUG-CC-PVTZ
  Basis Set: (AUG-CC-PVTZ AUX)
    Blend: AUG-CC-PVTZ-JKFIT
	 Reference Energy          =    -431.7941835763875247 [Eh]
	 Singles Energy            =      -0.0000000000000000 [Eh]
	 Same-Spin Energy          =      -0.4498459349198076 [Eh]
	 Opposite-Spin Energy      =      -1.3707104605452680 [Eh]
	 Correlation Energy        =      -1.8205563954650756 [Eh]
	 Total Energy              =    -433.6147399718526003 [Eh]

	 ================> DF-SCS-MP2 Energies <==================
	-----------------------------------------------------------
	 SCS Same-Spin Scale       =       0.3333333333333333 [-]
	 SCS Opposite-Spin Scale   =       1.2000000000000000 [-]
	 SCS Same-Spin Energy      =      -0.1499486449732692 [Eh]
	 SCS Opposite-Spin Energy  =      -1.6448525526543216 [Eh]
	 SCS Correlation Energy    =      -1.7948011976275908 [Eh]
	 SCS Total Energy          =    -433.5889847740151026 [Eh]
	-----------------------------------------------------------

  Dipole Moment: [D]
     X:     1.6299      Y:    -5.5883      Z:     0.8058     Total:     5.8766

*** Psi4 exiting successfully. Buy a developer a beer!
