                               Psi4 1.3.2 release

  ==> Input File <==

--------------------------------------------------------------------------
#psi4
#
memory 32 gb

molecule  {
0 1
  O       -1.4243350     1.8531120    -0.0084660
  N       -1.1176450    -0.4263010     0.0065070
  N        0.7429240     1.0712790     0.0095610
  N        2.8919430     0.2615640    -0.0759850
  C       -0.2733660    -1.4960510    -0.0007800
  C        1.0765330    -1.3300920    -0.0040440
  C       -0.6455791     0.9151117     0.0155068
  C       -2.5636426    -0.6381016     0.0005798
  C        1.5376510     0.0247200    -0.0002060
  H       -0.7522370    -2.4720050    -0.0099570
  H        1.7553550    -2.1750520    -0.0313920
  H       -2.8635010    -1.2105310     0.8892080
  H       -2.8583950    -1.1972750    -0.8980640
  H       -3.0263160     0.3321150     0.0069490
  H        3.5027140    -0.4263080     0.3467730
  H        3.1453740     1.2255370     0.1175850
units angstrom
no_reorient  #important for SAPT in psi4, default
symmetry c1  #important for SAPT in psi4, default
}

set PROPERTIES_ORIGIN ["COM"]
properties('MP2/aug-cc-pvtz', properties = ['dipole'])
--------------------------------------------------------------------------

    Molecular point group: c1
  Charge       = 0
  Multiplicity = 1
  Basis Set: AUG-CC-PVTZ
    Blend: AUG-CC-PVTZ
  Basis Set: (AUG-CC-PVTZ AUX)
    Blend: AUG-CC-PVTZ-JKFIT

    Orbital Energies [Eh]
    ---------------------

    Doubly Occupied:

       1A    -20.506637     2A    -15.624754     3A    -15.590307
       4A    -15.542505     5A    -11.372382     6A    -11.347622
       7A    -11.326827     8A    -11.270677     9A    -11.245440
      10A     -1.387765    11A     -1.297776    12A     -1.266682
      13A     -1.167581    14A     -1.072330    15A     -0.964797
      16A     -0.899100    17A     -0.851515    18A     -0.758200
      19A     -0.723278    20A     -0.684948    21A     -0.673732
      22A     -0.654467    23A     -0.624495    24A     -0.601443
      25A     -0.592296    26A     -0.578021    27A     -0.563882
      28A     -0.523189    29A     -0.476987    30A     -0.443639
      31A     -0.418114    32A     -0.386673    33A     -0.338818

  @DF-RHF Final Energy:  -431.80110381643652

   => Energetics <=

    Nuclear Repulsion Energy =            440.9183923536361362
    One-Electron Energy =               -1461.8852344274016559
    Two-Electron Energy =                 589.1657382573290533
    Total Energy =                       -431.8011038164364663
  Basis Set: (AUG-CC-PVTZ AUX)
    Blend: AUG-CC-PVTZ-RI
    Molecular point group: c1

    Geometry (in Angstrom), charge = 0, multiplicity = 1:

       Center              X                  Y                   Z               Mass
    ------------   -----------------  -----------------  -----------------  -----------------
         O           -1.431853814258     1.804559543263    -0.005128702487    15.994914619570
         N           -1.125163814258    -0.474853456737     0.009844297513    14.003074004430
         N            0.735405185742     1.022726543263     0.012898297513    14.003074004430
         N            2.884424185742     0.213011543263    -0.072647702487    14.003074004430
         C           -0.280884814258    -1.544603456737     0.002557297513    12.000000000000
         C            1.069014185742    -1.378644456737    -0.000706702487    12.000000000000
         C           -0.653097914258     0.866559243263     0.018844097513    12.000000000000
         C           -2.571161414258    -0.686654056737     0.003917097513    12.000000000000
         C            1.530132185742    -0.023832456737     0.003131297513    12.000000000000
         H           -0.759755814258    -2.520557456737    -0.006619702487     1.007825032230
         H            1.747836185742    -2.223604456737    -0.028054702487     1.007825032230
         H           -2.871019814258    -1.259083456737     0.892545297513     1.007825032230
         H           -2.865913814258    -1.245827456737    -0.894726702487     1.007825032230
         H           -3.033834814258     0.283562543263     0.010286297513     1.007825032230
         H            3.495195185742    -0.474860456737     0.350110297513     1.007825032230
         H            3.137855185742     1.176984543263     0.120922297513     1.007825032230

  Basis Set: AUG-CC-PVTZ
    Blend: AUG-CC-PVTZ
  Basis Set: (AUG-CC-PVTZ AUX)
    Blend: AUG-CC-PVTZ-JKFIT
	 Reference Energy          =    -431.8011038164365232 [Eh]
	 Singles Energy            =      -0.0000000000000000 [Eh]
	 Same-Spin Energy          =      -0.4501659522666331 [Eh]
	 Opposite-Spin Energy      =      -1.3719288414478621 [Eh]
	 Correlation Energy        =      -1.8220947937144951 [Eh]
	 Total Energy              =    -433.6231986101510074 [Eh]

	 ================> DF-SCS-MP2 Energies <==================
	-----------------------------------------------------------
	 SCS Same-Spin Scale       =       0.3333333333333333 [-]
	 SCS Opposite-Spin Scale   =       1.2000000000000000 [-]
	 SCS Same-Spin Energy      =      -0.1500553174222110 [Eh]
	 SCS Opposite-Spin Energy  =      -1.6463146097374344 [Eh]
	 SCS Correlation Energy    =      -1.7963699271596454 [Eh]
	 SCS Total Energy          =    -433.5974737435961970 [Eh]
	-----------------------------------------------------------

  Dipole Moment: [D]
     X:     1.6032      Y:    -5.5593      Z:     0.8328     Total:     5.8455

*** Psi4 exiting successfully. Buy a developer a beer!
