                               Psi4 1.4a3.dev225

  ==> Input File <==

--------------------------------------------------------------------------
#psi4
#
memory 32 gb

molecule  {
0 1
  O       -1.4602810    -1.8042760    -0.0008590
  N       -1.1067000     0.4494610     0.0014260
  N        0.7338450    -1.0777760     0.0056990
  N        2.8872480    -0.2944040    -0.0665390
  C       -0.2263377     1.5472231    -0.0003480
  C        1.0914800     1.3228940    -0.0047970
  C       -0.6316600    -0.8954310    -0.0014820
  C       -2.5563510     0.6193970     0.0049040
  C        1.5404980    -0.0347530    -0.0000590
  H       -0.7147670     2.4940890    -0.0022110
  H        1.7746080     2.1637920    -0.0246520
  H       -2.7835150     1.6863950     0.0041520
  H       -2.9802500     0.1433220     0.8903410
  H       -2.9840040     0.1411790    -0.8774920
  H        3.5206970     0.4000120     0.3068300
  H        3.1306380    -1.2574880     0.1361150
units angstrom
no_reorient  #important for SAPT in psi4, default
symmetry c1  #important for SAPT in psi4, default
}

set PROPERTIES_ORIGIN ["COM"]
properties('MP2/aug-cc-pvtz', properties = ['dipole'])
--------------------------------------------------------------------------

    Molecular point group: c1
  Charge       = 0
  Multiplicity = 1
  Basis Set: AUG-CC-PVTZ
    Blend: AUG-CC-PVTZ
  Basis Set: (AUG-CC-PVTZ AUX)
    Blend: AUG-CC-PVTZ-JKFIT

    Orbital Energies [Eh]
    ---------------------

    Doubly Occupied:

       1A    -20.500983     2A    -15.619827     3A    -15.594621
       4A    -15.544278     5A    -11.367159     6A    -11.352978
       7A    -11.326385     8A    -11.269539     9A    -11.246667
      10A     -1.378466    11A     -1.292900    12A     -1.258067
      13A     -1.171853    14A     -1.079781    15A     -0.959123
      16A     -0.897318    17A     -0.854113    18A     -0.758739
      19A     -0.726443    20A     -0.684206    21A     -0.675443
      22A     -0.648673    23A     -0.624279    24A     -0.609107
      25A     -0.586470    26A     -0.576069    27A     -0.560523
      28A     -0.516299    29A     -0.475380    30A     -0.442452
      31A     -0.417704    32A     -0.384895    33A     -0.342707

  @DF-RHF Final Energy:  -431.79972685450412

   => Energetics <=

    Nuclear Repulsion Energy =            440.8782413312396216
    One-Electron Energy =               -1461.8690431861602974
    Two-Electron Energy =                 589.1910750004165038
    Total Energy =                       -431.7997268545041152
  Basis Set: (AUG-CC-PVTZ AUX)
    Blend: AUG-CC-PVTZ-RI
    Molecular point group: c1

    Geometry (in Angstrom), charge = 0, multiplicity = 1:

       Center              X                  Y                   Z               Mass
    ------------   -----------------  -----------------  -----------------  -----------------
         O           -1.471627720877    -1.762282029974     0.002584420191    15.994914619570
         N           -1.118046720877     0.491454970026     0.004869420191    14.003074004430
         N            0.722498279123    -1.035782029974     0.009142420191    14.003074004430
         N            2.875901279123    -0.252410029974    -0.063095579809    14.003074004430
         C           -0.237684420877     1.589217070026     0.003095420191    12.000000000000
         C            1.080133279123     1.364887970026    -0.001353579809    12.000000000000
         C           -0.643006720877    -0.853437029974     0.001961420191    12.000000000000
         C           -2.567697720877     0.661390970026     0.008347420191    12.000000000000
         C            1.529151279123     0.007240970026     0.003384420191    12.000000000000
         H           -0.726113720877     2.536082970026     0.001232420191     1.007825032230
         H            1.763261279123     2.205785970026    -0.021208579809     1.007825032230
         H           -2.794861720877     1.728388970026     0.007595420191     1.007825032230
         H           -2.991596720877     0.185315970026     0.893784420191     1.007825032230
         H           -2.995350720877     0.183172970026    -0.874048579809     1.007825032230
         H            3.509350279123     0.442005970026     0.310273420191     1.007825032230
         H            3.119291279123    -1.215494029974     0.139558420191     1.007825032230

  Basis Set: AUG-CC-PVTZ
    Blend: AUG-CC-PVTZ
  Basis Set: (AUG-CC-PVTZ AUX)
    Blend: AUG-CC-PVTZ-JKFIT
	 Reference Energy          =    -431.7997268545041152 [Eh]
	 Singles Energy            =      -0.0000000000000000 [Eh]
	 Same-Spin Energy          =      -0.4501118657670771 [Eh]
	 Opposite-Spin Energy      =      -1.3723275585224080 [Eh]
	 Correlation Energy        =      -1.8224394242894850 [Eh]
	 Total Energy              =    -433.6221662787935998 [Eh]

	 ================> DF-SCS-MP2 Energies <==================
	-----------------------------------------------------------
	 SCS Same-Spin Scale       =       0.3333333333333333 [-]
	 SCS Opposite-Spin Scale   =       1.2000000000000000 [-]
	 SCS Same-Spin Energy      =      -0.1500372885890257 [Eh]
	 SCS Opposite-Spin Energy  =      -1.6467930702268896 [Eh]
	 SCS Correlation Energy    =      -1.7968303588159154 [Eh]
	 SCS Total Energy          =    -433.5965572133200112 [Eh]
	-----------------------------------------------------------

  Dipole Moment: [D]
     X:     2.0573      Y:     5.6633      Z:     0.7698     Total:     6.0744

*** Psi4 exiting successfully. Buy a developer a beer!
