                               Psi4 1.3.2 release

  ==> Input File <==

--------------------------------------------------------------------------
#psi4
#
memory 32 gb

molecule  {
0 1
  O       -1.4243350     1.8531120    -0.0084660
  N       -1.1176450    -0.4263010     0.0065070
  N        0.6892396     1.0282501     0.0096698
  N        2.8919430     0.2615640    -0.0759850
  C       -0.2733660    -1.4960510    -0.0007800
  C        1.0062607    -1.3041041    -0.0035028
  C       -0.6338910     0.9109410     0.0155220
  C       -2.5617390    -0.6507120     0.0005160
  C        1.5376510     0.0247200    -0.0002060
  H       -0.7522370    -2.4720050    -0.0099570
  H        1.7553550    -2.1750520    -0.0313920
  H       -2.8635010    -1.2105310     0.8892080
  H       -2.8583950    -1.1972750    -0.8980640
  H       -3.0263160     0.3321150     0.0069490
  H        3.5027140    -0.4263080     0.3467730
  H        3.1453740     1.2255370     0.1175850
units angstrom
no_reorient  #important for SAPT in psi4, default
symmetry c1  #important for SAPT in psi4, default
}

set PROPERTIES_ORIGIN ["COM"]
properties('MP2/aug-cc-pvtz', properties = ['dipole'])
--------------------------------------------------------------------------

    Molecular point group: c1
  Charge       = 0
  Multiplicity = 1
  Basis Set: AUG-CC-PVTZ
    Blend: AUG-CC-PVTZ
  Basis Set: (AUG-CC-PVTZ AUX)
    Blend: AUG-CC-PVTZ-JKFIT

    Orbital Energies [Eh]
    ---------------------

    Doubly Occupied:

       1A    -20.495331     2A    -15.615241     3A    -15.602043
       4A    -15.537353     5A    -11.363890     6A    -11.357194
       7A    -11.313476     8A    -11.264844     9A    -11.244182
      10A     -1.382354    11A     -1.298027    12A     -1.266309
      13A     -1.183842    14A     -1.083911    15A     -0.963721
      16A     -0.894459    17A     -0.865483    18A     -0.766989
      19A     -0.729190    20A     -0.688729    21A     -0.671191
      22A     -0.654589    23A     -0.619451    24A     -0.608241
      25A     -0.584601    26A     -0.579129    27A     -0.553787
      28A     -0.522600    29A     -0.480674    30A     -0.430048
      31A     -0.414157    32A     -0.391054    33A     -0.342676

  @DF-RHF Final Energy:  -431.79174990436684

   => Energetics <=

    Nuclear Repulsion Energy =            443.6622037685887676
    One-Electron Energy =               -1467.3703735354372384
    Two-Electron Energy =                 591.9164198624815754
    Total Energy =                       -431.7917499043668386
  Basis Set: (AUG-CC-PVTZ AUX)
    Blend: AUG-CC-PVTZ-RI
    Molecular point group: c1

    Geometry (in Angstrom), charge = 0, multiplicity = 1:

       Center              X                  Y                   Z               Mass
    ------------   -----------------  -----------------  -----------------  -----------------
         O           -1.420403899935     1.808494131081    -0.005188152344    15.994914619570
         N           -1.113713899935    -0.470918868919     0.009784847656    14.003074004430
         N            0.693170700065     0.983632231081     0.012947647656    14.003074004430
         N            2.895874100065     0.216946131081    -0.072707152344    14.003074004430
         C           -0.269434899935    -1.540668868919     0.002497847656    12.000000000000
         C            1.010191800065    -1.348721968919    -0.000224952344    12.000000000000
         C           -0.629959899935     0.866323131081     0.018799847656    12.000000000000
         C           -2.557807899935    -0.695329868919     0.003793847656    12.000000000000
         C            1.541582100065    -0.019897868919     0.003071847656    12.000000000000
         H           -0.748305899935    -2.516622868919    -0.006679152344     1.007825032230
         H            1.759286100065    -2.219669868919    -0.028114152344     1.007825032230
         H           -2.859569899935    -1.255148868919     0.892485847656     1.007825032230
         H           -2.854463899935    -1.241892868919    -0.894786152344     1.007825032230
         H           -3.022384899935     0.287497131081     0.010226847656     1.007825032230
         H            3.506645100065    -0.470925868919     0.350050847656     1.007825032230
         H            3.149305100065     1.180919131081     0.120862847656     1.007825032230

  Basis Set: AUG-CC-PVTZ
    Blend: AUG-CC-PVTZ
  Basis Set: (AUG-CC-PVTZ AUX)
    Blend: AUG-CC-PVTZ-JKFIT
	 Reference Energy          =    -431.7917499043668386 [Eh]
	 Singles Energy            =      -0.0000000000000000 [Eh]
	 Same-Spin Energy          =      -0.4505189651228246 [Eh]
	 Opposite-Spin Energy      =      -1.3709217003193594 [Eh]
	 Correlation Energy        =      -1.8214406654421840 [Eh]
	 Total Energy              =    -433.6131905698090350 [Eh]

	 ================> DF-SCS-MP2 Energies <==================
	-----------------------------------------------------------
	 SCS Same-Spin Scale       =       0.3333333333333333 [-]
	 SCS Opposite-Spin Scale   =       1.2000000000000000 [-]
	 SCS Same-Spin Energy      =      -0.1501729883742749 [Eh]
	 SCS Opposite-Spin Energy  =      -1.6451060403832314 [Eh]
	 SCS Correlation Energy    =      -1.7952790287575062 [Eh]
	 SCS Total Energy          =    -433.5870289331243725 [Eh]
	-----------------------------------------------------------

  Dipole Moment: [D]
     X:     2.1960      Y:    -5.5948      Z:     0.8361     Total:     6.0682

*** Psi4 exiting successfully. Buy a developer a beer!
