                               Psi4 1.3.2 release

  ==> Input File <==

--------------------------------------------------------------------------
#psi4
#
memory 32 gb

molecule  {
0 1
  O       -1.4243350     1.8531120    -0.0084660
  N       -1.1176450    -0.4263010     0.0065070
  N        0.7429240     1.0712790     0.0095610
  N        2.8919430     0.2615640    -0.0759850
  C       -0.2733660    -1.4960510    -0.0007800
  C        1.0765330    -1.3300920    -0.0040440
  C       -0.5875158     0.8932429     0.0155761
  C       -2.5530265    -0.7009731     0.0002655
  C        1.5376510     0.0247200    -0.0002060
  H       -0.7522370    -2.4720050    -0.0099570
  H        1.7553550    -2.1750520    -0.0313920
  H       -2.8635010    -1.2105310     0.8892080
  H       -2.8583950    -1.1972750    -0.8980640
  H       -3.0263160     0.3321150     0.0069490
  H        3.5027140    -0.4263080     0.3467730
  H        3.1453740     1.2255370     0.1175850
units angstrom
no_reorient  #important for SAPT in psi4, default
symmetry c1  #important for SAPT in psi4, default
}

set PROPERTIES_ORIGIN ["COM"]
properties('MP2/aug-cc-pvtz', properties = ['dipole'])
--------------------------------------------------------------------------

    Molecular point group: c1
  Charge       = 0
  Multiplicity = 1
  Basis Set: AUG-CC-PVTZ
    Blend: AUG-CC-PVTZ
  Basis Set: (AUG-CC-PVTZ AUX)
    Blend: AUG-CC-PVTZ-JKFIT

    Orbital Energies [Eh]
    ---------------------

    Doubly Occupied:

       1A    -20.491147     2A    -15.628243     3A    -15.596434
       4A    -15.547660     5A    -11.371335     6A    -11.355823
       7A    -11.328889     8A    -11.270126     9A    -11.248291
      10A     -1.369029    11A     -1.287047    12A     -1.267590
      13A     -1.182990    14A     -1.074301    15A     -0.967551
      16A     -0.900892    17A     -0.862494    18A     -0.762427
      19A     -0.726166    20A     -0.689605    21A     -0.676494
      22A     -0.660766    23A     -0.618023    24A     -0.604543
      25A     -0.590696    26A     -0.581217    27A     -0.539251
      28A     -0.519188    29A     -0.472291    30A     -0.437354
      31A     -0.417124    32A     -0.391513    33A     -0.339102

  @DF-RHF Final Energy:  -431.79180790404610

   => Energetics <=

    Nuclear Repulsion Energy =            440.9810186671807060
    One-Electron Energy =               -1461.9944506405845459
    Two-Electron Energy =                 589.2216240693577447
    Total Energy =                       -431.7918079040460952
  Basis Set: (AUG-CC-PVTZ AUX)
    Blend: AUG-CC-PVTZ-RI
    Molecular point group: c1

    Geometry (in Angstrom), charge = 0, multiplicity = 1:

       Center              X                  Y                   Z               Mass
    ------------   -----------------  -----------------  -----------------  -----------------
         O           -1.438443930770     1.812690779853    -0.005105193566    15.994914619570
         N           -1.131753930770    -0.466722220147     0.009867806434    14.003074004430
         N            0.728815069230     1.030857779853     0.012921806434    14.003074004430
         N            2.877834069230     0.221142779853    -0.072624193566    14.003074004430
         C           -0.287474930770    -1.536472220147     0.002580806434    12.000000000000
         C            1.062424069230    -1.370513220147    -0.000683193566    12.000000000000
         C           -0.601624730770     0.852821679853     0.018936906434    12.000000000000
         C           -2.567135430770    -0.741394320147     0.003626306434    12.000000000000
         C            1.523542069230    -0.015701220147     0.003154806434    12.000000000000
         H           -0.766345930770    -2.512426220147    -0.006596193566     1.007825032230
         H            1.741246069230    -2.215473220147    -0.028031193566     1.007825032230
         H           -2.877609930770    -1.250952220147     0.892568806434     1.007825032230
         H           -2.872503930770    -1.237696220147    -0.894703193566     1.007825032230
         H           -3.040424930770     0.291693779853     0.010309806434     1.007825032230
         H            3.488605069230    -0.466729220147     0.350133806434     1.007825032230
         H            3.131265069230     1.185115779853     0.120945806434     1.007825032230

  Basis Set: AUG-CC-PVTZ
    Blend: AUG-CC-PVTZ
  Basis Set: (AUG-CC-PVTZ AUX)
    Blend: AUG-CC-PVTZ-JKFIT
	 Reference Energy          =    -431.7918079040460952 [Eh]
	 Singles Energy            =      -0.0000000000000000 [Eh]
	 Same-Spin Energy          =      -0.4514321623270785 [Eh]
	 Opposite-Spin Energy      =      -1.3735246101604948 [Eh]
	 Correlation Energy        =      -1.8249567724875733 [Eh]
	 Total Energy              =    -433.6167646765336485 [Eh]

	 ================> DF-SCS-MP2 Energies <==================
	-----------------------------------------------------------
	 SCS Same-Spin Scale       =       0.3333333333333333 [-]
	 SCS Opposite-Spin Scale   =       1.2000000000000000 [-]
	 SCS Same-Spin Energy      =      -0.1504773874423595 [Eh]
	 SCS Opposite-Spin Energy  =      -1.6482295321925937 [Eh]
	 SCS Correlation Energy    =      -1.7987069196349532 [Eh]
	 SCS Total Energy          =    -433.5905148236810760 [Eh]
	-----------------------------------------------------------

  Dipole Moment: [D]
     X:     2.1070      Y:    -5.9258      Z:     0.8308     Total:     6.3439

*** Psi4 exiting successfully. Buy a developer a beer!
