                               Psi4 1.3.2 release

  ==> Input File <==

--------------------------------------------------------------------------
#psi4
#
memory 32 gb

molecule  {
0 1
  O       -1.4243350     1.8531120    -0.0084660
  N       -1.1176450    -0.4263010     0.0065070
  N        0.7429240     1.0712790     0.0095610
  N        2.8919430     0.2615640    -0.0759850
  C       -0.2783301    -1.4488573     0.0005556
  C        1.0765330    -1.3300920    -0.0040440
  C       -0.6338910     0.9109410     0.0155220
  C       -2.5617390    -0.6507120     0.0005160
  C        1.5376510     0.0247200    -0.0002060
  H       -0.7522370    -2.4720050    -0.0099570
  H        1.7844448    -2.1508506    -0.0308913
  H       -2.8635010    -1.2105310     0.8892080
  H       -2.8583950    -1.1972750    -0.8980640
  H       -3.0263160     0.3321150     0.0069490
  H        3.5027140    -0.4263080     0.3467730
  H        3.1453740     1.2255370     0.1175850
units angstrom
no_reorient  #important for SAPT in psi4, default
symmetry c1  #important for SAPT in psi4, default
}

set PROPERTIES_ORIGIN ["COM"]
properties('MP2/aug-cc-pvtz', properties = ['dipole'])
--------------------------------------------------------------------------

    Molecular point group: c1
  Charge       = 0
  Multiplicity = 1
  Basis Set: AUG-CC-PVTZ
    Blend: AUG-CC-PVTZ
  Basis Set: (AUG-CC-PVTZ AUX)
    Blend: AUG-CC-PVTZ-JKFIT

    Orbital Energies [Eh]
    ---------------------

    Doubly Occupied:

       1A    -20.504951     2A    -15.629155     3A    -15.589754
       4A    -15.541964     5A    -11.373073     6A    -11.346244
       7A    -11.327584     8A    -11.273934     9A    -11.242125
      10A     -1.386968    11A     -1.302202    12A     -1.272090
      13A     -1.170528    14A     -1.071354    15A     -0.970980
      16A     -0.899291    17A     -0.854555    18A     -0.761038
      19A     -0.721268    20A     -0.687887    21A     -0.670586
      22A     -0.661398    23A     -0.622768    24A     -0.596972
      25A     -0.588617    26A     -0.580818    27A     -0.564937
      28A     -0.522258    29A     -0.481986    30A     -0.440950
      31A     -0.418688    32A     -0.387986    33A     -0.337092

  @DF-RHF Final Energy:  -431.79902937941932

   => Energetics <=

    Nuclear Repulsion Energy =            441.8931424227489515
    One-Electron Energy =               -1463.7803371603104097
    Two-Electron Energy =                 590.0881653581420778
    Total Energy =                       -431.7990293794193803
  Basis Set: (AUG-CC-PVTZ AUX)
    Blend: AUG-CC-PVTZ-RI
    Molecular point group: c1

    Geometry (in Angstrom), charge = 0, multiplicity = 1:

       Center              X                  Y                   Z               Mass
    ------------   -----------------  -----------------  -----------------  -----------------
         O           -1.432916102636     1.801446274717    -0.005256231327    15.994914619570
         N           -1.126226102636    -0.477966725283     0.009716768673    14.003074004430
         N            0.734342897364     1.019613274717     0.012770768673    14.003074004430
         N            2.883361897364     0.209898274717    -0.072775231327    14.003074004430
         C           -0.286911202636    -1.500523025283     0.003765368673    12.000000000000
         C            1.067951897364    -1.381757725283    -0.000834231327    12.000000000000
         C           -0.642472102636     0.859275274717     0.018731768673    12.000000000000
         C           -2.570320102636    -0.702377725283     0.003725768673    12.000000000000
         C            1.529069897364    -0.026945725283     0.003003768673    12.000000000000
         H           -0.760818102636    -2.523670725283    -0.006747231327     1.007825032230
         H            1.775863697364    -2.202516325283    -0.027681531327     1.007825032230
         H           -2.872082102636    -1.262196725283     0.892417768673     1.007825032230
         H           -2.866976102636    -1.248940725283    -0.894854231327     1.007825032230
         H           -3.034897102636     0.280449274717     0.010158768673     1.007825032230
         H            3.494132897364    -0.477973725283     0.349982768673     1.007825032230
         H            3.136792897364     1.173871274717     0.120794768673     1.007825032230

  Basis Set: AUG-CC-PVTZ
    Blend: AUG-CC-PVTZ
  Basis Set: (AUG-CC-PVTZ AUX)
    Blend: AUG-CC-PVTZ-JKFIT
	 Reference Energy          =    -431.7990293794193235 [Eh]
	 Singles Energy            =      -0.0000000000000000 [Eh]
	 Same-Spin Energy          =      -0.4505124250286586 [Eh]
	 Opposite-Spin Energy      =      -1.3717053774456132 [Eh]
	 Correlation Energy        =      -1.8222178024742717 [Eh]
	 Total Energy              =    -433.6212471818935796 [Eh]

	 ================> DF-SCS-MP2 Energies <==================
	-----------------------------------------------------------
	 SCS Same-Spin Scale       =       0.3333333333333333 [-]
	 SCS Opposite-Spin Scale   =       1.2000000000000000 [-]
	 SCS Same-Spin Energy      =      -0.1501708083428862 [Eh]
	 SCS Opposite-Spin Energy  =      -1.6460464529347358 [Eh]
	 SCS Correlation Energy    =      -1.7962172612776222 [Eh]
	 SCS Total Energy          =    -433.5952466406969279 [Eh]
	-----------------------------------------------------------

  Dipole Moment: [D]
     X:     1.5482      Y:    -5.5662      Z:     0.8324     Total:     5.8371

*** Psi4 exiting successfully. Buy a developer a beer!
