                               Psi4 1.3.2 release

  ==> Input File <==

--------------------------------------------------------------------------
#psi4
#
memory 32 gb

molecule  {
0 1
  O       -1.4243350     1.8531120    -0.0084660
  N       -1.0988463    -0.4117300     0.0066676
  N        0.7429240     1.0712790     0.0095610
  N        2.8919430     0.2615640    -0.0759850
  C       -0.2733660    -1.4960510    -0.0007800
  C        1.0765330    -1.3300920    -0.0040440
  C       -0.6338910     0.9109410     0.0155220
  C       -2.5617390    -0.6507120     0.0005160
  C        1.5376510     0.0247200    -0.0002060
  H       -0.7351306    -2.4802138    -0.0099914
  H        1.7553550    -2.1750520    -0.0313920
  H       -2.8635010    -1.2105310     0.8892080
  H       -2.8583950    -1.1972750    -0.8980640
  H       -3.0263160     0.3321150     0.0069490
  H        3.5027140    -0.4263080     0.3467730
  H        3.1453740     1.2255370     0.1175850
units angstrom
no_reorient  #important for SAPT in psi4, default
symmetry c1  #important for SAPT in psi4, default
}

set PROPERTIES_ORIGIN ["COM"]
properties('MP2/aug-cc-pvtz', properties = ['dipole'])
--------------------------------------------------------------------------

    Molecular point group: c1
  Charge       = 0
  Multiplicity = 1
  Basis Set: AUG-CC-PVTZ
    Blend: AUG-CC-PVTZ
  Basis Set: (AUG-CC-PVTZ AUX)
    Blend: AUG-CC-PVTZ-JKFIT

    Orbital Energies [Eh]
    ---------------------

    Doubly Occupied:

       1A    -20.501350     2A    -15.625985     3A    -15.590872
       4A    -15.542551     5A    -11.369991     6A    -11.348361
       7A    -11.327216     8A    -11.272492     9A    -11.246166
      10A     -1.383299    11A     -1.295709    12A     -1.266111
      13A     -1.169369    14A     -1.072631    15A     -0.965358
      16A     -0.902267    17A     -0.853345    18A     -0.759526
      19A     -0.724845    20A     -0.683776    21A     -0.674386
      22A     -0.655189    23A     -0.621289    24A     -0.601632
      25A     -0.590455    26A     -0.579793    27A     -0.558256
      28A     -0.522641    29A     -0.476091    30A     -0.439760
      31A     -0.419073    32A     -0.387224    33A     -0.339594

  @DF-RHF Final Energy:  -431.80055334636882

   => Energetics <=

    Nuclear Repulsion Energy =            441.1886670269057618
    One-Electron Energy =               -1462.4452383093548633
    Two-Electron Energy =                 589.4560179360803431
    Total Energy =                       -431.8005533463688153
  Basis Set: (AUG-CC-PVTZ AUX)
    Blend: AUG-CC-PVTZ-RI
    Molecular point group: c1

    Geometry (in Angstrom), charge = 0, multiplicity = 1:

       Center              X                  Y                   Z               Mass
    ------------   -----------------  -----------------  -----------------  -----------------
         O           -1.435400784553     1.804604381674    -0.005141744536    15.994914619570
         N           -1.109912084553    -0.460237618326     0.009991855464    14.003074004430
         N            0.731858215447     1.022771381674     0.012885255464    14.003074004430
         N            2.880877215447     0.213056381674    -0.072660744536    14.003074004430
         C           -0.284431784553    -1.544558618326     0.002544255464    12.000000000000
         C            1.065467215447    -1.378599618326    -0.000719744536    12.000000000000
         C           -0.644956784553     0.862433381674     0.018846255464    12.000000000000
         C           -2.572804784553    -0.699219618326     0.003840255464    12.000000000000
         C            1.526585215447    -0.023787618326     0.003118255464    12.000000000000
         H           -0.746196384553    -2.528721418326    -0.006667144536     1.007825032230
         H            1.744289215447    -2.223559618326    -0.028067744536     1.007825032230
         H           -2.874566784553    -1.259038618326     0.892532255464     1.007825032230
         H           -2.869460784553    -1.245782618326    -0.894739744536     1.007825032230
         H           -3.037381784553     0.283607381674     0.010273255464     1.007825032230
         H            3.491648215447    -0.474815618326     0.350097255464     1.007825032230
         H            3.134308215447     1.177029381674     0.120909255464     1.007825032230

  Basis Set: AUG-CC-PVTZ
    Blend: AUG-CC-PVTZ
  Basis Set: (AUG-CC-PVTZ AUX)
    Blend: AUG-CC-PVTZ-JKFIT
	 Reference Energy          =    -431.8005533463688153 [Eh]
	 Singles Energy            =      -0.0000000000000000 [Eh]
	 Same-Spin Energy          =      -0.4503053911232591 [Eh]
	 Opposite-Spin Energy      =      -1.3720590154518604 [Eh]
	 Correlation Energy        =      -1.8223644065751194 [Eh]
	 Total Energy              =    -433.6229177529439198 [Eh]

	 ================> DF-SCS-MP2 Energies <==================
	-----------------------------------------------------------
	 SCS Same-Spin Scale       =       0.3333333333333333 [-]
	 SCS Opposite-Spin Scale   =       1.2000000000000000 [-]
	 SCS Same-Spin Energy      =      -0.1501017970410863 [Eh]
	 SCS Opposite-Spin Energy  =      -1.6464708185422323 [Eh]
	 SCS Correlation Energy    =      -1.7965726155833186 [Eh]
	 SCS Total Energy          =    -433.5971259619521447 [Eh]
	-----------------------------------------------------------

  Dipole Moment: [D]
     X:     1.6770      Y:    -5.7268      Z:     0.8331     Total:     6.0252

*** Psi4 exiting successfully. Buy a developer a beer!
