                               Psi4 1.3.2 release

  ==> Input File <==

--------------------------------------------------------------------------
#psi4
#
memory 32 gb

molecule  {
0 1
  O       -1.4243350     1.8531120    -0.0084660
  N       -1.1176450    -0.4263010     0.0065070
  N        0.7429240     1.0712790     0.0095610
  N        2.8919430     0.2615640    -0.0759850
  C       -0.2733660    -1.4960510    -0.0007800
  C        1.0765330    -1.3300920    -0.0040440
  C       -0.6338910     0.9109410     0.0155220
  C       -2.7593653    -0.6814230    -0.0003039
  C        1.5376510     0.0247200    -0.0002060
  H       -0.7522370    -2.4720050    -0.0099570
  H        1.7553550    -2.1750520    -0.0313920
  H       -2.8635010    -1.2105310     0.8892080
  H       -2.8583950    -1.1972750    -0.8980640
  H       -3.0263160     0.3321150     0.0069490
  H        3.5027140    -0.4263080     0.3467730
  H        3.1453740     1.2255370     0.1175850
units angstrom
no_reorient  #important for SAPT in psi4, default
symmetry c1  #important for SAPT in psi4, default
}

set PROPERTIES_ORIGIN ["COM"]
properties('MP2/aug-cc-pvtz', properties = ['dipole'])
--------------------------------------------------------------------------

    Molecular point group: c1
  Charge       = 0
  Multiplicity = 1
  Basis Set: AUG-CC-PVTZ
    Blend: AUG-CC-PVTZ
  Basis Set: (AUG-CC-PVTZ AUX)
    Blend: AUG-CC-PVTZ-JKFIT

    Orbital Energies [Eh]
    ---------------------

    Doubly Occupied:

       1A    -20.498301     2A    -15.616701     3A    -15.586644
       4A    -15.538145     5A    -11.366139     6A    -11.343365
       7A    -11.321367     8A    -11.284400     9A    -11.238546
      10A     -1.372447    11A     -1.286977    12A     -1.247045
      13A     -1.161228    14A     -1.060262    15A     -0.976881
      16A     -0.889253    17A     -0.850819    18A     -0.749829
      19A     -0.716688    20A     -0.672844    21A     -0.660487
      22A     -0.658351    23A     -0.621295    24A     -0.605835
      25A     -0.596621    26A     -0.591112    27A     -0.543224
      28A     -0.522543    29A     -0.475793    30A     -0.437098
      31A     -0.410646    32A     -0.383715    33A     -0.332838

  @DF-RHF Final Energy:  -431.77444422385480

   => Energetics <=

    Nuclear Repulsion Energy =            437.0823387576296000
    One-Electron Energy =               -1454.4786866254951292
    Two-Electron Energy =                 585.6219036440106720
    Total Energy =                       -431.7744442238548572
  Basis Set: (AUG-CC-PVTZ AUX)
    Blend: AUG-CC-PVTZ-RI
    Molecular point group: c1

    Geometry (in Angstrom), charge = 0, multiplicity = 1:

       Center              X                  Y                   Z               Mass
    ------------   -----------------  -----------------  -----------------  -----------------
         O           -1.414194815254     1.809116637128    -0.005045365763    15.994914619570
         N           -1.107504815254    -0.470296362872     0.009927634237    14.003074004430
         N            0.753064184746     1.027283637128     0.012981634237    14.003074004430
         N            2.902083184746     0.217568637128    -0.072564365763    14.003074004430
         C           -0.263225815254    -1.540046362872     0.002640634237    12.000000000000
         C            1.086673184746    -1.374087362872    -0.000623365763    12.000000000000
         C           -0.623750815254     0.866945637128     0.018942634237    12.000000000000
         C           -2.749225115254    -0.725418362872     0.003116734237    12.000000000000
         C            1.547791184746    -0.019275362872     0.003214634237    12.000000000000
         H           -0.742096815254    -2.516000362872    -0.006536365763     1.007825032230
         H            1.765495184746    -2.219047362872    -0.027971365763     1.007825032230
         H           -2.853360815254    -1.254526362872     0.892628634237     1.007825032230
         H           -2.848254815254    -1.241270362872    -0.894643365763     1.007825032230
         H           -3.016175815254     0.288119637128     0.010369634237     1.007825032230
         H            3.512854184746    -0.470303362872     0.350193634237     1.007825032230
         H            3.155514184746     1.181541637128     0.121005634237     1.007825032230

  Basis Set: AUG-CC-PVTZ
    Blend: AUG-CC-PVTZ
  Basis Set: (AUG-CC-PVTZ AUX)
    Blend: AUG-CC-PVTZ-JKFIT
	 Reference Energy          =    -431.7744442238548004 [Eh]
	 Singles Energy            =      -0.0000000000000000 [Eh]
	 Same-Spin Energy          =      -0.4504420343486739 [Eh]
	 Opposite-Spin Energy      =      -1.3737742986742441 [Eh]
	 Correlation Energy        =      -1.8242163330229180 [Eh]
	 Total Energy              =    -433.5986605568777463 [Eh]

	 ================> DF-SCS-MP2 Energies <==================
	-----------------------------------------------------------
	 SCS Same-Spin Scale       =       0.3333333333333333 [-]
	 SCS Opposite-Spin Scale   =       1.2000000000000000 [-]
	 SCS Same-Spin Energy      =      -0.1501473447828913 [Eh]
	 SCS Opposite-Spin Energy  =      -1.6485291584090929 [Eh]
	 SCS Correlation Energy    =      -1.7986765031919842 [Eh]
	 SCS Total Energy          =    -433.5731207270467849 [Eh]
	-----------------------------------------------------------

  Dipole Moment: [D]
     X:     1.1220      Y:    -5.7991      Z:     0.8314     Total:     5.9649

*** Psi4 exiting successfully. Buy a developer a beer!
