                               Psi4 1.3.2 release

  ==> Input File <==

--------------------------------------------------------------------------
#psi4
#
memory 32 gb

molecule  {
0 1
  O       -1.4243350     1.8531120    -0.0084660
  N       -1.1176450    -0.4263010     0.0065070
  N        0.7429240     1.0712790     0.0095610
  N        2.8919430     0.2615640    -0.0759850
  C       -0.2733660    -1.4960510    -0.0007800
  C        1.0765330    -1.3300920    -0.0040440
  C       -0.6338910     0.9109410     0.0155220
  C       -2.5617390    -0.6507120     0.0005160
  C        1.5139447     0.0325563     0.0004972
  H       -0.7522370    -2.4720050    -0.0099570
  H        1.7405054    -2.1867780    -0.0311448
  H       -2.8635010    -1.2105310     0.8892080
  H       -2.8583950    -1.1972750    -0.8980640
  H       -3.0263160     0.3321150     0.0069490
  H        3.5027140    -0.4263080     0.3467730
  H        3.1453740     1.2255370     0.1175850
units angstrom
no_reorient  #important for SAPT in psi4, default
symmetry c1  #important for SAPT in psi4, default
}

set PROPERTIES_ORIGIN ["COM"]
properties('MP2/aug-cc-pvtz', properties = ['dipole'])
--------------------------------------------------------------------------

    Molecular point group: c1
  Charge       = 0
  Multiplicity = 1
  Basis Set: AUG-CC-PVTZ
    Blend: AUG-CC-PVTZ
  Basis Set: (AUG-CC-PVTZ AUX)
    Blend: AUG-CC-PVTZ-JKFIT

    Orbital Energies [Eh]
    ---------------------

    Doubly Occupied:

       1A    -20.506184     2A    -15.626322     3A    -15.587134
       4A    -15.545849     5A    -11.374651     6A    -11.348212
       7A    -11.326659     8A    -11.271347     9A    -11.246158
      10A     -1.385370    11A     -1.297392    12A     -1.265323
      13A     -1.171731    14A     -1.073794    15A     -0.966003
      16A     -0.899738    17A     -0.854813    18A     -0.758011
      19A     -0.722279    20A     -0.683137    21A     -0.672646
      22A     -0.656933    23A     -0.622403    24A     -0.600832
      25A     -0.594486    26A     -0.581110    27A     -0.559340
      28A     -0.519339    29A     -0.477148    30A     -0.444989
      31A     -0.422255    32A     -0.390652    33A     -0.340050

  @DF-RHF Final Energy:  -431.80055046675318

   => Energetics <=

    Nuclear Repulsion Energy =            441.1770734140340551
    One-Electron Energy =               -1462.3706702236524961
    Two-Electron Energy =                 589.3930463428652047
    Total Energy =                       -431.8005504667531795
  Basis Set: (AUG-CC-PVTZ AUX)
    Blend: AUG-CC-PVTZ-RI
    Molecular point group: c1

    Geometry (in Angstrom), charge = 0, multiplicity = 1:

       Center              X                  Y                   Z               Mass
    ------------   -----------------  -----------------  -----------------  -----------------
         O           -1.430763600082     1.805512337067    -0.005193506620    15.994914619570
         N           -1.124073600082    -0.473900662933     0.009779493380    14.003074004430
         N            0.736495399918     1.023679337067     0.012833493380    14.003074004430
         N            2.885514399918     0.213964337067    -0.072712506620    14.003074004430
         C           -0.279794600082    -1.543650662933     0.002492493380    12.000000000000
         C            1.070104399918    -1.377691662933    -0.000771506620    12.000000000000
         C           -0.640319600082     0.863341337067     0.018794493380    12.000000000000
         C           -2.568167600082    -0.698311662933     0.003788493380    12.000000000000
         C            1.507516099918    -0.015043362933     0.003769693380    12.000000000000
         H           -0.758665600082    -2.519604662933    -0.006684506620     1.007825032230
         H            1.734076799918    -2.234377662933    -0.027872306620     1.007825032230
         H           -2.869929600082    -1.258130662933     0.892480493380     1.007825032230
         H           -2.864823600082    -1.244874662933    -0.894791506620     1.007825032230
         H           -3.032744600082     0.284515337067     0.010221493380     1.007825032230
         H            3.496285399918    -0.473907662933     0.350045493380     1.007825032230
         H            3.138945399918     1.177937337067     0.120857493380     1.007825032230

  Basis Set: AUG-CC-PVTZ
    Blend: AUG-CC-PVTZ
  Basis Set: (AUG-CC-PVTZ AUX)
    Blend: AUG-CC-PVTZ-JKFIT
	 Reference Energy          =    -431.8005504667531795 [Eh]
	 Singles Energy            =      -0.0000000000000000 [Eh]
	 Same-Spin Energy          =      -0.4501567479515668 [Eh]
	 Opposite-Spin Energy      =      -1.3719921878021388 [Eh]
	 Correlation Energy        =      -1.8221489357537055 [Eh]
	 Total Energy              =    -433.6226994025068961 [Eh]

	 ================> DF-SCS-MP2 Energies <==================
	-----------------------------------------------------------
	 SCS Same-Spin Scale       =       0.3333333333333333 [-]
	 SCS Opposite-Spin Scale   =       1.2000000000000000 [-]
	 SCS Same-Spin Energy      =      -0.1500522493171889 [Eh]
	 SCS Opposite-Spin Energy  =      -1.6463906253625666 [Eh]
	 SCS Correlation Energy    =      -1.7964428746797556 [Eh]
	 SCS Total Energy          =    -433.5969933414329489 [Eh]
	-----------------------------------------------------------

  Dipole Moment: [D]
     X:     1.4826      Y:    -5.6016      Z:     0.8403     Total:     5.8551

*** Psi4 exiting successfully. Buy a developer a beer!
