                               Psi4 1.4a3.dev225

  ==> Input File <==

--------------------------------------------------------------------------
#psi4
#
memory 32 gb

molecule  {
0 1
  O       -1.4602810    -1.8042760    -0.0008590
  N       -1.1067000     0.4494610     0.0014260
  N        0.7338450    -1.0777760     0.0056990
  N        2.8872480    -0.2944040    -0.0665390
  C       -0.2576190     1.5082170    -0.0002850
  C        1.0419454     1.3296985    -0.0046313
  C       -0.6316600    -0.8954310    -0.0014820
  C       -2.5563510     0.6193970     0.0049040
  C        1.5404980    -0.0347530    -0.0000590
  H       -0.7147670     2.4940890    -0.0022110
  H        1.7746080     2.1637920    -0.0246520
  H       -2.7835150     1.6863950     0.0041520
  H       -2.9802500     0.1433220     0.8903410
  H       -2.9840040     0.1411790    -0.8774920
  H        3.5206970     0.4000120     0.3068300
  H        3.1306380    -1.2574880     0.1361150
units angstrom
no_reorient  #important for SAPT in psi4, default
symmetry c1  #important for SAPT in psi4, default
}

set PROPERTIES_ORIGIN ["COM"]
properties('MP2/aug-cc-pvtz', properties = ['dipole'])
--------------------------------------------------------------------------

    Molecular point group: c1
  Charge       = 0
  Multiplicity = 1
  Basis Set: AUG-CC-PVTZ
    Blend: AUG-CC-PVTZ
  Basis Set: (AUG-CC-PVTZ AUX)
    Blend: AUG-CC-PVTZ-JKFIT

    Orbital Energies [Eh]
    ---------------------

    Doubly Occupied:

       1A    -20.502520     2A    -15.620099     3A    -15.595886
       4A    -15.543777     5A    -11.368532     6A    -11.353402
       7A    -11.317450     8A    -11.270945     9A    -11.243389
      10A     -1.382221    11A     -1.295887    12A     -1.267361
      13A     -1.173125    14A     -1.079875    15A     -0.961770
      16A     -0.893934    17A     -0.857519    18A     -0.761788
      19A     -0.725172    20A     -0.685825    21A     -0.673541
      22A     -0.654032    23A     -0.617684    24A     -0.607212
      25A     -0.584295    26A     -0.575811    27A     -0.565690
      28A     -0.516921    29A     -0.483724    30A     -0.441788
      31A     -0.417002    32A     -0.385702    33A     -0.341528

  @DF-RHF Final Energy:  -431.80115401691012

   => Energetics <=

    Nuclear Repulsion Energy =            442.0499792011360114
    One-Electron Energy =               -1464.1714509684593395
    Two-Electron Energy =                 590.3203177504132100
    Total Energy =                       -431.8011540169101181
  Basis Set: (AUG-CC-PVTZ AUX)
    Blend: AUG-CC-PVTZ-RI
    Molecular point group: c1

    Geometry (in Angstrom), charge = 0, multiplicity = 1:

       Center              X                  Y                   Z               Mass
    ------------   -----------------  -----------------  -----------------  -----------------
         O           -1.463873049214    -1.759192132627     0.002562475333    15.994914619570
         N           -1.110292049214     0.494544867373     0.004847475333    14.003074004430
         N            0.730252950786    -1.032692132627     0.009120475333    14.003074004430
         N            2.883655950786    -0.249320132627    -0.063117524667    14.003074004430
         C           -0.261211049214     1.553300867373     0.003136475333    12.000000000000
         C            1.038353350786     1.374782367373    -0.001209824667    12.000000000000
         C           -0.635252049214    -0.850347132627     0.001939475333    12.000000000000
         C           -2.559943049214     0.664480867373     0.008325475333    12.000000000000
         C            1.536905950786     0.010330867373     0.003362475333    12.000000000000
         H           -0.718359049214     2.539172867373     0.001210475333     1.007825032230
         H            1.771015950786     2.208875867373    -0.021230524667     1.007825032230
         H           -2.787107049214     1.731478867373     0.007573475333     1.007825032230
         H           -2.983842049214     0.188405867373     0.893762475333     1.007825032230
         H           -2.987596049214     0.186262867373    -0.874070524667     1.007825032230
         H            3.517104950786     0.445095867373     0.310251475333     1.007825032230
         H            3.127045950786    -1.212404132627     0.139536475333     1.007825032230

  Basis Set: AUG-CC-PVTZ
    Blend: AUG-CC-PVTZ
  Basis Set: (AUG-CC-PVTZ AUX)
    Blend: AUG-CC-PVTZ-JKFIT
	 Reference Energy          =    -431.8011540169101181 [Eh]
	 Singles Energy            =      -0.0000000000000000 [Eh]
	 Same-Spin Energy          =      -0.4497912351226702 [Eh]
	 Opposite-Spin Energy      =      -1.3711470853574061 [Eh]
	 Correlation Energy        =      -1.8209383204800762 [Eh]
	 Total Energy              =    -433.6220923373901996 [Eh]

	 ================> DF-SCS-MP2 Energies <==================
	-----------------------------------------------------------
	 SCS Same-Spin Scale       =       0.3333333333333333 [-]
	 SCS Opposite-Spin Scale   =       1.2000000000000000 [-]
	 SCS Same-Spin Energy      =      -0.1499304117075567 [Eh]
	 SCS Opposite-Spin Energy  =      -1.6453765024288873 [Eh]
	 SCS Correlation Energy    =      -1.7953069141364439 [Eh]
	 SCS Total Energy          =    -433.5964609310465789 [Eh]
	-----------------------------------------------------------

  Dipole Moment: [D]
     X:     1.9923      Y:     5.5493      Z:     0.7701     Total:     5.9462

*** Psi4 exiting successfully. Buy a developer a beer!
