                               Psi4 1.3.2 release

  ==> Input File <==

--------------------------------------------------------------------------
#psi4
#
memory 32 gb

molecule  {
0 1
  O       -1.4243350     1.8531120    -0.0084660
  N       -1.1176450    -0.4263010     0.0065070
  N        0.7429240     1.0712790     0.0095610
  N        2.8919430     0.2615640    -0.0759850
  C       -0.2733660    -1.4960510    -0.0007800
  C        1.0765330    -1.3300920    -0.0040440
  C       -0.6338910     0.9109410     0.0155220
  C       -2.5617390    -0.6507120     0.0005160
  C        1.5376510     0.0247200    -0.0002060
  H       -0.7522370    -2.4720050    -0.0099570
  H        1.6927450    -2.0971185    -0.0288696
  H       -2.8635010    -1.2105310     0.8892080
  H       -2.8583950    -1.1972750    -0.8980640
  H       -3.0263160     0.3321150     0.0069490
  H        3.5027140    -0.4263080     0.3467730
  H        3.1453740     1.2255370     0.1175850
units angstrom
no_reorient  #important for SAPT in psi4, default
symmetry c1  #important for SAPT in psi4, default
}

set PROPERTIES_ORIGIN ["COM"]
properties('MP2/aug-cc-pvtz', properties = ['dipole'])
--------------------------------------------------------------------------

    Molecular point group: c1
  Charge       = 0
  Multiplicity = 1
  Basis Set: AUG-CC-PVTZ
    Blend: AUG-CC-PVTZ
  Basis Set: (AUG-CC-PVTZ AUX)
    Blend: AUG-CC-PVTZ-JKFIT

    Orbital Energies [Eh]
    ---------------------

    Doubly Occupied:

       1A    -20.503377     2A    -15.625068     3A    -15.591616
       4A    -15.542938     5A    -11.371951     6A    -11.348412
       7A    -11.326762     8A    -11.270265     9A    -11.234422
      10A     -1.382304    11A     -1.295830    12A     -1.267252
      13A     -1.170428    14A     -1.076637    15A     -0.966169
      16A     -0.901034    17A     -0.855943    18A     -0.758819
      19A     -0.730158    20A     -0.693260    21A     -0.677405
      22A     -0.655221    23A     -0.627123    24A     -0.602323
      25A     -0.595286    26A     -0.579649    27A     -0.559806
      28A     -0.521788    29A     -0.475978    30A     -0.440819
      31A     -0.419623    32A     -0.387601    33A     -0.338834

  @DF-RHF Final Energy:  -431.79515003222753

   => Energetics <=

    Nuclear Repulsion Energy =            441.4793355044844816
    One-Electron Energy =               -1462.9607673949321907
    Two-Electron Energy =                 589.6862818582202408
    Total Energy =                       -431.7951500322275251
  Basis Set: (AUG-CC-PVTZ AUX)
    Blend: AUG-CC-PVTZ-RI
    Molecular point group: c1

    Geometry (in Angstrom), charge = 0, multiplicity = 1:

       Center              X                  Y                   Z               Mass
    ------------   -----------------  -----------------  -----------------  -----------------
         O           -1.432653441196     1.805541719312    -0.005144366607    15.994914619570
         N           -1.125963441196    -0.473871280688     0.009828633393    14.003074004430
         N            0.734605558804     1.023708719312     0.012882633393    14.003074004430
         N            2.883624558804     0.213993719312    -0.072663366607    14.003074004430
         C           -0.281684441196    -1.543621280688     0.002541633393    12.000000000000
         C            1.068214558804    -1.377662280688    -0.000722366607    12.000000000000
         C           -0.642209441196     0.863370719312     0.018843633393    12.000000000000
         C           -2.570057441196    -0.698282280688     0.003837633393    12.000000000000
         C            1.529332558804    -0.022850280688     0.003115633393    12.000000000000
         H           -0.760555441196    -2.519575280688    -0.006635366607     1.007825032230
         H            1.684426558804    -2.144688780688    -0.025547966607     1.007825032230
         H           -2.871819441196    -1.258101280688     0.892529633393     1.007825032230
         H           -2.866713441196    -1.244845280688    -0.894742366607     1.007825032230
         H           -3.034634441196     0.284544719312     0.010270633393     1.007825032230
         H            3.494395558804    -0.473878280688     0.350094633393     1.007825032230
         H            3.137055558804     1.177966719312     0.120906633393     1.007825032230

  Basis Set: AUG-CC-PVTZ
    Blend: AUG-CC-PVTZ
  Basis Set: (AUG-CC-PVTZ AUX)
    Blend: AUG-CC-PVTZ-JKFIT
	 Reference Energy          =    -431.7951500322275251 [Eh]
	 Singles Energy            =      -0.0000000000000000 [Eh]
	 Same-Spin Energy          =      -0.4502197497443146 [Eh]
	 Opposite-Spin Energy      =      -1.3717057274590545 [Eh]
	 Correlation Energy        =      -1.8219254772033691 [Eh]
	 Total Energy              =    -433.6170755094308902 [Eh]

	 ================> DF-SCS-MP2 Energies <==================
	-----------------------------------------------------------
	 SCS Same-Spin Scale       =       0.3333333333333333 [-]
	 SCS Opposite-Spin Scale   =       1.2000000000000000 [-]
	 SCS Same-Spin Energy      =      -0.1500732499147715 [Eh]
	 SCS Opposite-Spin Energy  =      -1.6460468729508653 [Eh]
	 SCS Correlation Energy    =      -1.7961201228656367 [Eh]
	 SCS Total Energy          =    -433.5912701550931843 [Eh]
	-----------------------------------------------------------

  Dipole Moment: [D]
     X:     1.7027      Y:    -5.6417      Z:     0.8346     Total:     5.9518

*** Psi4 exiting successfully. Buy a developer a beer!
