                               Psi4 1.4a3.dev225

  ==> Input File <==

--------------------------------------------------------------------------
#psi4
#
memory 32 gb

molecule  {
0 1
  O       -1.4602810    -1.8042760    -0.0008590
  N       -1.1067000     0.4494610     0.0014260
  N        0.7338450    -1.0777760     0.0056990
  N        2.8872480    -0.2944040    -0.0665390
  C       -0.2576190     1.5082170    -0.0002850
  C        1.1410146     1.3160895    -0.0049627
  C       -0.6316600    -0.8954310    -0.0014820
  C       -2.5563510     0.6193970     0.0049040
  C        1.5404980    -0.0347530    -0.0000590
  H       -0.7147670     2.4940890    -0.0022110
  H        1.7746080     2.1637920    -0.0246520
  H       -2.7835150     1.6863950     0.0041520
  H       -2.9802500     0.1433220     0.8903410
  H       -2.9840040     0.1411790    -0.8774920
  H        3.5206970     0.4000120     0.3068300
  H        3.1306380    -1.2574880     0.1361150
units angstrom
no_reorient  #important for SAPT in psi4, default
symmetry c1  #important for SAPT in psi4, default
}

set PROPERTIES_ORIGIN ["COM"]
properties('MP2/aug-cc-pvtz', properties = ['dipole'])
--------------------------------------------------------------------------

    Molecular point group: c1
  Charge       = 0
  Multiplicity = 1
  Basis Set: AUG-CC-PVTZ
    Blend: AUG-CC-PVTZ
  Basis Set: (AUG-CC-PVTZ AUX)
    Blend: AUG-CC-PVTZ-JKFIT

    Orbital Energies [Eh]
    ---------------------

    Doubly Occupied:

       1A    -20.503514     2A    -15.632383     3A    -15.587070
       4A    -15.541143     5A    -11.369921     6A    -11.345550
       7A    -11.338226     8A    -11.276235     9A    -11.243343
      10A     -1.384209    11A     -1.295348    12A     -1.268453
      13A     -1.169999    14A     -1.066248    15A     -0.968495
      16A     -0.903386    17A     -0.853083    18A     -0.757519
      19A     -0.724069    20A     -0.687740    21A     -0.674834
      22A     -0.656699    23A     -0.628744    24A     -0.596607
      25A     -0.593443    26A     -0.576941    27A     -0.565018
      28A     -0.517177    29A     -0.477777    30A     -0.443376
      31A     -0.419479    32A     -0.384279    33A     -0.333808

  @DF-RHF Final Energy:  -431.79830339664147

   => Energetics <=

    Nuclear Repulsion Energy =            441.1554890525762858
    One-Electron Energy =               -1462.3393567044222436
    Two-Electron Energy =                 589.3855642552044856
    Total Energy =                       -431.7983033966414723
  Basis Set: (AUG-CC-PVTZ AUX)
    Blend: AUG-CC-PVTZ-RI
    Molecular point group: c1

    Geometry (in Angstrom), charge = 0, multiplicity = 1:

       Center              X                  Y                   Z               Mass
    ------------   -----------------  -----------------  -----------------  -----------------
         O           -1.473379212208    -1.757886284066     0.002594274746    15.994914619570
         N           -1.119798212208     0.495850715934     0.004879274746    14.003074004430
         N            0.720746787792    -1.031386284066     0.009152274746    14.003074004430
         N            2.874149787792    -0.248014284066    -0.063085725254    14.003074004430
         C           -0.270717212208     1.554606715934     0.003168274746    12.000000000000
         C            1.127916387792     1.362479215934    -0.001509425254    12.000000000000
         C           -0.644758212208    -0.849041284066     0.001971274746    12.000000000000
         C           -2.569449212208     0.665786715934     0.008357274746    12.000000000000
         C            1.527399787792     0.011636715934     0.003394274746    12.000000000000
         H           -0.727865212208     2.540478715934     0.001242274746     1.007825032230
         H            1.761509787792     2.210181715934    -0.021198725254     1.007825032230
         H           -2.796613212208     1.732784715934     0.007605274746     1.007825032230
         H           -2.993348212208     0.189711715934     0.893794274746     1.007825032230
         H           -2.997102212208     0.187568715934    -0.874038725254     1.007825032230
         H            3.507598787792     0.446401715934     0.310283274746     1.007825032230
         H            3.117539787792    -1.211098284066     0.139568274746     1.007825032230

  Basis Set: AUG-CC-PVTZ
    Blend: AUG-CC-PVTZ
  Basis Set: (AUG-CC-PVTZ AUX)
    Blend: AUG-CC-PVTZ-JKFIT
	 Reference Energy          =    -431.7983033966414723 [Eh]
	 Singles Energy            =      -0.0000000000000000 [Eh]
	 Same-Spin Energy          =      -0.4510677877321748 [Eh]
	 Opposite-Spin Energy      =      -1.3728021664616530 [Eh]
	 Correlation Energy        =      -1.8238699541938277 [Eh]
	 Total Energy              =    -433.6221733508352827 [Eh]

	 ================> DF-SCS-MP2 Energies <==================
	-----------------------------------------------------------
	 SCS Same-Spin Scale       =       0.3333333333333333 [-]
	 SCS Opposite-Spin Scale   =       1.2000000000000000 [-]
	 SCS Same-Spin Energy      =      -0.1503559292440583 [Eh]
	 SCS Opposite-Spin Energy  =      -1.6473625997539836 [Eh]
	 SCS Correlation Energy    =      -1.7977185289980417 [Eh]
	 SCS Total Energy          =    -433.5960219256394907 [Eh]
	-----------------------------------------------------------

  Dipole Moment: [D]
     X:     1.6183      Y:     5.6639      Z:     0.7683     Total:     5.9404

*** Psi4 exiting successfully. Buy a developer a beer!
