                               Psi4 1.4a3.dev225

  ==> Input File <==

--------------------------------------------------------------------------
#psi4
#
memory 32 gb

molecule  {
0 1
  O       -1.4602810    -1.8042760    -0.0008590
  N       -1.1067000     0.4494610     0.0014260
  N        0.7338450    -1.0777760     0.0056990
  N        2.8872480    -0.2944040    -0.0665390
  C       -0.2576190     1.5082170    -0.0002850
  C        1.0914800     1.3228940    -0.0047970
  C       -0.6451348    -0.9102104    -0.0014719
  C       -2.5563510     0.6193970     0.0049040
  C        1.5404980    -0.0347530    -0.0000590
  H       -0.7147670     2.4940890    -0.0022110
  H        1.7746080     2.1637920    -0.0246520
  H       -2.7835150     1.6863950     0.0041520
  H       -2.9802500     0.1433220     0.8903410
  H       -2.9840040     0.1411790    -0.8774920
  H        3.5206970     0.4000120     0.3068300
  H        3.1306380    -1.2574880     0.1361150
units angstrom
no_reorient  #important for SAPT in psi4, default
symmetry c1  #important for SAPT in psi4, default
}

set PROPERTIES_ORIGIN ["COM"]
properties('MP2/aug-cc-pvtz', properties = ['dipole'])
--------------------------------------------------------------------------

    Molecular point group: c1
  Charge       = 0
  Multiplicity = 1
  Basis Set: AUG-CC-PVTZ
    Blend: AUG-CC-PVTZ
  Basis Set: (AUG-CC-PVTZ AUX)
    Blend: AUG-CC-PVTZ-JKFIT

    Orbital Energies [Eh]
    ---------------------

    Doubly Occupied:

       1A    -20.508626     2A    -15.623871     3A    -15.589986
       4A    -15.540656     5A    -11.369996     6A    -11.347679
       7A    -11.326802     8A    -11.272893     9A    -11.241473
      10A     -1.392554    11A     -1.298311    12A     -1.266042
      13A     -1.167857    14A     -1.071012    15A     -0.963210
      16A     -0.896149    17A     -0.853053    18A     -0.757779
      19A     -0.723465    20A     -0.684799    21A     -0.673276
      22A     -0.654592    23A     -0.626061    24A     -0.602153
      25A     -0.590737    26A     -0.575626    27A     -0.566894
      28A     -0.520632    29A     -0.482119    30A     -0.447717
      31A     -0.415609    32A     -0.383923    33A     -0.336784

  @DF-RHF Final Energy:  -431.80362108707675

   => Energetics <=

    Nuclear Repulsion Energy =            441.4916237329010755
    One-Electron Energy =               -1463.0458152768524087
    Two-Electron Energy =                 589.7505704568745841
    Total Energy =                       -431.8036210870767491
  Basis Set: (AUG-CC-PVTZ AUX)
    Blend: AUG-CC-PVTZ-RI
    Molecular point group: c1

    Geometry (in Angstrom), charge = 0, multiplicity = 1:

       Center              X                  Y                   Z               Mass
    ------------   -----------------  -----------------  -----------------  -----------------
         O           -1.467333159282    -1.757121054315     0.002577405897    15.994914619570
         N           -1.113752159282     0.496615945685     0.004862405897    14.003074004430
         N            0.726792840718    -1.030621054315     0.009135405897    14.003074004430
         N            2.880195840718    -0.247249054315    -0.063102594103    14.003074004430
         C           -0.264671159282     1.555371945685     0.003151405897    12.000000000000
         C            1.084427840718     1.370048945685    -0.001360594103    12.000000000000
         C           -0.652186959282    -0.863055454315     0.001964505897    12.000000000000
         C           -2.563403159282     0.666551945685     0.008340405897    12.000000000000
         C            1.533445840718     0.012401945685     0.003377405897    12.000000000000
         H           -0.721819159282     2.541243945685     0.001225405897     1.007825032230
         H            1.767555840718     2.210946945685    -0.021215594103     1.007825032230
         H           -2.790567159282     1.733549945685     0.007588405897     1.007825032230
         H           -2.987302159282     0.190476945685     0.893777405897     1.007825032230
         H           -2.991056159282     0.188333945685    -0.874055594103     1.007825032230
         H            3.513644840718     0.447166945685     0.310266405897     1.007825032230
         H            3.123585840718    -1.210333054315     0.139551405897     1.007825032230

  Basis Set: AUG-CC-PVTZ
    Blend: AUG-CC-PVTZ
  Basis Set: (AUG-CC-PVTZ AUX)
    Blend: AUG-CC-PVTZ-JKFIT
	 Reference Energy          =    -431.8036210870767491 [Eh]
	 Singles Energy            =      -0.0000000000000000 [Eh]
	 Same-Spin Energy          =      -0.4500866771120451 [Eh]
	 Opposite-Spin Energy      =      -1.3713983853111278 [Eh]
	 Correlation Energy        =      -1.8214850624231729 [Eh]
	 Total Energy              =    -433.6251061494999135 [Eh]

	 ================> DF-SCS-MP2 Energies <==================
	-----------------------------------------------------------
	 SCS Same-Spin Scale       =       0.3333333333333333 [-]
	 SCS Opposite-Spin Scale   =       1.2000000000000000 [-]
	 SCS Same-Spin Energy      =      -0.1500288923706817 [Eh]
	 SCS Opposite-Spin Energy  =      -1.6456780623733533 [Eh]
	 SCS Correlation Energy    =      -1.7957069547440350 [Eh]
	 SCS Total Energy          =    -433.5993280418207974 [Eh]
	-----------------------------------------------------------

  Dipole Moment: [D]
     X:     1.6574      Y:     5.4445      Z:     0.7688     Total:     5.7429

*** Psi4 exiting successfully. Buy a developer a beer!
