                               Psi4 1.3.2 release

  ==> Input File <==

--------------------------------------------------------------------------
#psi4
#
memory 32 gb

molecule  {
0 1
  O       -1.4243350     1.8531120    -0.0084660
  N       -1.1176450    -0.4263010     0.0065070
  N        0.7429240     1.0712790     0.0095610
  N        2.8876425     0.2851940    -0.0751772
  C       -0.2733660    -1.4960510    -0.0007800
  C        1.0530058    -1.3218587    -0.0024403
  C       -0.6338910     0.9109410     0.0155220
  C       -2.5617390    -0.6507120     0.0005160
  C        1.5376510     0.0247200    -0.0002060
  H       -0.7522370    -2.4720050    -0.0099570
  H        1.7553550    -2.1750520    -0.0313920
  H       -2.8635010    -1.2105310     0.8892080
  H       -2.8583950    -1.1972750    -0.8980640
  H       -3.0263160     0.3321150     0.0069490
  H        3.5027140    -0.4263080     0.3467730
  H        3.1453740     1.2255370     0.1175850
units angstrom
no_reorient  #important for SAPT in psi4, default
symmetry c1  #important for SAPT in psi4, default
}

set PROPERTIES_ORIGIN ["COM"]
properties('MP2/aug-cc-pvtz', properties = ['dipole'])
--------------------------------------------------------------------------

    Molecular point group: c1
  Charge       = 0
  Multiplicity = 1
  Basis Set: AUG-CC-PVTZ
    Blend: AUG-CC-PVTZ
  Basis Set: (AUG-CC-PVTZ AUX)
    Blend: AUG-CC-PVTZ-JKFIT

    Orbital Energies [Eh]
    ---------------------

    Doubly Occupied:

       1A    -20.502742     2A    -15.623172     3A    -15.592645
       4A    -15.543016     5A    -11.371273     6A    -11.349766
       7A    -11.323553     8A    -11.269512     9A    -11.246565
      10A     -1.381971    11A     -1.296531    12A     -1.267642
      13A     -1.170304    14A     -1.076827    15A     -0.964440
      16A     -0.898827    17A     -0.853738    18A     -0.761650
      19A     -0.724723    20A     -0.682554    21A     -0.673101
      22A     -0.655084    23A     -0.621536    24A     -0.606419
      25A     -0.589083    26A     -0.579478    27A     -0.558315
      28A     -0.521684    29A     -0.477942    30A     -0.439998
      31A     -0.418920    32A     -0.387523    33A     -0.340744

  @DF-RHF Final Energy:  -431.80001587083876

   => Energetics <=

    Nuclear Repulsion Energy =            441.3560336076622548
    One-Electron Energy =               -1462.7695421468222321
    Two-Electron Energy =                 589.6134926683211006
    Total Energy =                       -431.8000158708388199
  Basis Set: (AUG-CC-PVTZ AUX)
    Blend: AUG-CC-PVTZ-RI
    Molecular point group: c1

    Geometry (in Angstrom), charge = 0, multiplicity = 1:

       Center              X                  Y                   Z               Mass
    ------------   -----------------  -----------------  -----------------  -----------------
         O           -1.430418920758     1.802733851393    -0.005368372597    15.994914619570
         N           -1.123728920758    -0.476679148607     0.009604627403    14.003074004430
         N            0.736840079242     1.020900851393     0.012658627403    14.003074004430
         N            2.881558579242     0.234815851393    -0.072079572597    14.003074004430
         C           -0.279449920758    -1.546429148607     0.002317627403    12.000000000000
         C            1.046921879242    -1.372236848607     0.000657327403    12.000000000000
         C           -0.639974920758     0.860562851393     0.018619627403    12.000000000000
         C           -2.567822920758    -0.701090148607     0.003613627403    12.000000000000
         C            1.531567079242    -0.025658148607     0.002891627403    12.000000000000
         H           -0.758320920758    -2.522383148607    -0.006859372597     1.007825032230
         H            1.749271079242    -2.225430148607    -0.028294372597     1.007825032230
         H           -2.869584920758    -1.260909148607     0.892305627403     1.007825032230
         H           -2.864478920758    -1.247653148607    -0.894966372597     1.007825032230
         H           -3.032399920758     0.281736851393     0.010046627403     1.007825032230
         H            3.496630079242    -0.476686148607     0.349870627403     1.007825032230
         H            3.139290079242     1.175158851393     0.120682627403     1.007825032230

  Basis Set: AUG-CC-PVTZ
    Blend: AUG-CC-PVTZ
  Basis Set: (AUG-CC-PVTZ AUX)
    Blend: AUG-CC-PVTZ-JKFIT
	 Reference Energy          =    -431.8000158708387630 [Eh]
	 Singles Energy            =      -0.0000000000000000 [Eh]
	 Same-Spin Energy          =      -0.4502169914344317 [Eh]
	 Opposite-Spin Energy      =      -1.3718550937005154 [Eh]
	 Correlation Energy        =      -1.8220720851349470 [Eh]
	 Total Energy              =    -433.6220879559737114 [Eh]

	 ================> DF-SCS-MP2 Energies <==================
	-----------------------------------------------------------
	 SCS Same-Spin Scale       =       0.3333333333333333 [-]
	 SCS Opposite-Spin Scale   =       1.2000000000000000 [-]
	 SCS Same-Spin Energy      =      -0.1500723304781439 [Eh]
	 SCS Opposite-Spin Energy  =      -1.6462261124406183 [Eh]
	 SCS Correlation Energy    =      -1.7962984429187623 [Eh]
	 SCS Total Energy          =    -433.5963143137575457 [Eh]
	-----------------------------------------------------------

  Dipole Moment: [D]
     X:     1.7653      Y:    -5.6566      Z:     0.8266     Total:     5.9830

*** Psi4 exiting successfully. Buy a developer a beer!
