                               Psi4 1.3.2 release

  ==> Input File <==

--------------------------------------------------------------------------
#psi4
#
memory 32 gb

molecule  {
0 1
  O       -1.4243350     1.8531120    -0.0084660
  N       -1.1176450    -0.4263010     0.0065070
  N        0.7429240     1.0712790     0.0095610
  N        2.8919430     0.2615640    -0.0759850
  C       -0.2733660    -1.4960510    -0.0007800
  C        1.0765330    -1.3300920    -0.0040440
  C       -0.6338910     0.9109410     0.0155220
  C       -2.5617390    -0.6507120     0.0005160
  C        1.5376510     0.0247200    -0.0002060
  H       -0.7522370    -2.4720050    -0.0099570
  H        1.8805750    -2.3309189    -0.0364368
  H       -2.8635010    -1.2105310     0.8892080
  H       -2.8583950    -1.1972750    -0.8980640
  H       -3.0263160     0.3321150     0.0069490
  H        3.5027140    -0.4263080     0.3467730
  H        3.1453740     1.2255370     0.1175850
units angstrom
no_reorient  #important for SAPT in psi4, default
symmetry c1  #important for SAPT in psi4, default
}

set PROPERTIES_ORIGIN ["COM"]
properties('MP2/aug-cc-pvtz', properties = ['dipole'])
--------------------------------------------------------------------------

    Molecular point group: c1
  Charge       = 0
  Multiplicity = 1
  Basis Set: AUG-CC-PVTZ
    Blend: AUG-CC-PVTZ
  Basis Set: (AUG-CC-PVTZ AUX)
    Blend: AUG-CC-PVTZ-JKFIT

    Orbital Energies [Eh]
    ---------------------

    Doubly Occupied:

       1A    -20.504320     2A    -15.626543     3A    -15.591383
       4A    -15.545232     5A    -11.373196     6A    -11.351540
       7A    -11.328903     8A    -11.271177     9A    -11.266521
      10A     -1.383515    11A     -1.296816    12A     -1.268137
      13A     -1.171432    14A     -1.068935    15A     -0.964781
      16A     -0.898267    17A     -0.851338    18A     -0.759774
      19A     -0.719404    20A     -0.681739    21A     -0.663530
      22A     -0.656438    23A     -0.614550    24A     -0.601460
      25A     -0.581765    26A     -0.575525    27A     -0.552989
      28A     -0.522254    29A     -0.477342    30A     -0.441009
      31A     -0.420129    32A     -0.388510    33A     -0.340018

  @DF-RHF Final Energy:  -431.77822466581523

   => Energetics <=

    Nuclear Repulsion Energy =            439.9671066737258798
    One-Electron Energy =               -1459.9737236680241494
    Two-Electron Energy =                 588.2283923284829825
    Total Energy =                       -431.7782246658152872
  Basis Set: (AUG-CC-PVTZ AUX)
    Blend: AUG-CC-PVTZ-RI
    Molecular point group: c1

    Geometry (in Angstrom), charge = 0, multiplicity = 1:

       Center              X                  Y                   Z               Mass
    ------------   -----------------  -----------------  -----------------  -----------------
         O           -1.434167126011     1.807425870486    -0.005083384039    15.994914619570
         N           -1.127477126011    -0.471987129514     0.009889615961    14.003074004430
         N            0.733091873989     1.025592870486     0.012943615961    14.003074004430
         N            2.882110873989     0.215877870486    -0.072602384039    14.003074004430
         C           -0.283198126011    -1.541737129514     0.002602615961    12.000000000000
         C            1.066700873989    -1.375778129514    -0.000661384039    12.000000000000
         C           -0.643723126011     0.865254870486     0.018904615961    12.000000000000
         C           -2.571571126011    -0.696398129514     0.003898615961    12.000000000000
         C            1.527818873989    -0.020966129514     0.003176615961    12.000000000000
         H           -0.762069126011    -2.517691129514    -0.006574384039     1.007825032230
         H            1.870742873989    -2.376605029514    -0.033054184039     1.007825032230
         H           -2.873333126011    -1.256217129514     0.892590615961     1.007825032230
         H           -2.868227126011    -1.242961129514    -0.894681384039     1.007825032230
         H           -3.036148126011     0.286428870486     0.010331615961     1.007825032230
         H            3.492881873989    -0.471994129514     0.350155615961     1.007825032230
         H            3.135541873989     1.179850870486     0.120967615961     1.007825032230

  Basis Set: AUG-CC-PVTZ
    Blend: AUG-CC-PVTZ
  Basis Set: (AUG-CC-PVTZ AUX)
    Blend: AUG-CC-PVTZ-JKFIT
	 Reference Energy          =    -431.7782246658152303 [Eh]
	 Singles Energy            =      -0.0000000000000000 [Eh]
	 Same-Spin Energy          =      -0.4508936535270439 [Eh]
	 Opposite-Spin Energy      =      -1.3742322928591220 [Eh]
	 Correlation Energy        =      -1.8251259463861658 [Eh]
	 Total Energy              =    -433.6033506122013819 [Eh]

	 ================> DF-SCS-MP2 Energies <==================
	-----------------------------------------------------------
	 SCS Same-Spin Scale       =       0.3333333333333333 [-]
	 SCS Opposite-Spin Scale   =       1.2000000000000000 [-]
	 SCS Same-Spin Energy      =      -0.1502978845090146 [Eh]
	 SCS Opposite-Spin Energy  =      -1.6490787514309464 [Eh]
	 SCS Correlation Energy    =      -1.7993766359399610 [Eh]
	 SCS Total Energy          =    -433.5776013017551804 [Eh]
	-----------------------------------------------------------

  Dipole Moment: [D]
     X:     1.6817      Y:    -5.5864      Z:     0.8280     Total:     5.8925

*** Psi4 exiting successfully. Buy a developer a beer!
