                               Psi4 1.3.2 release

  ==> Input File <==

--------------------------------------------------------------------------
#psi4
#
memory 32 gb

molecule  {
0 1
  O       -1.4243350     1.8531120    -0.0084660
  N       -1.1176450    -0.4263010     0.0065070
  N        0.7429240     1.0712790     0.0095610
  N        2.8919430     0.2615640    -0.0759850
  C       -0.2827335    -1.5033774    -0.0008716
  C        1.0765330    -1.3300920    -0.0040440
  C       -0.6338910     0.9109410     0.0155220
  C       -2.5597253    -0.6633050     0.0004084
  C        1.5376510     0.0247200    -0.0002060
  H       -0.7522370    -2.4720050    -0.0099570
  H        1.7553550    -2.1750520    -0.0313920
  H       -2.8635010    -1.2105310     0.8892080
  H       -2.8583950    -1.1972750    -0.8980640
  H       -3.0263160     0.3321150     0.0069490
  H        3.5027140    -0.4263080     0.3467730
  H        3.1453740     1.2255370     0.1175850
units angstrom
no_reorient  #important for SAPT in psi4, default
symmetry c1  #important for SAPT in psi4, default
}

set PROPERTIES_ORIGIN ["COM"]
properties('MP2/aug-cc-pvtz', properties = ['dipole'])
--------------------------------------------------------------------------

    Molecular point group: c1
  Charge       = 0
  Multiplicity = 1
  Basis Set: AUG-CC-PVTZ
    Blend: AUG-CC-PVTZ
  Basis Set: (AUG-CC-PVTZ AUX)
    Blend: AUG-CC-PVTZ-JKFIT

    Orbital Energies [Eh]
    ---------------------

    Doubly Occupied:

       1A    -20.503806     2A    -15.626026     3A    -15.591250
       4A    -15.543592     5A    -11.372786     6A    -11.349061
       7A    -11.327973     8A    -11.270245     9A    -11.246656
      10A     -1.382623    11A     -1.295866    12A     -1.267711
      13A     -1.170630    14A     -1.070271    15A     -0.965090
      16A     -0.901252    17A     -0.853121    18A     -0.758265
      19A     -0.724584    20A     -0.685647    21A     -0.675255
      22A     -0.656806    23A     -0.622313    24A     -0.602468
      25A     -0.592236    26A     -0.580845    27A     -0.554587
      28A     -0.522318    29A     -0.476025    30A     -0.440779
      31A     -0.420195    32A     -0.387811    33A     -0.337861

  @DF-RHF Final Energy:  -431.80007050022135

   => Energetics <=

    Nuclear Repulsion Energy =            440.7134898451070057
    One-Electron Energy =               -1461.4752130610409040
    Two-Electron Energy =                 588.9616527157124892
    Total Energy =                       -431.8000705002214090
  Basis Set: (AUG-CC-PVTZ AUX)
    Blend: AUG-CC-PVTZ-RI
    Molecular point group: c1

    Geometry (in Angstrom), charge = 0, multiplicity = 1:

       Center              X                  Y                   Z               Mass
    ------------   -----------------  -----------------  -----------------  -----------------
         O           -1.432452370562     1.808081131557    -0.005104924893    15.994914619570
         N           -1.125762370562    -0.471331868443     0.009868075107    14.003074004430
         N            0.734806629438     1.026248131557     0.012922075107    14.003074004430
         N            2.883825629438     0.216533131557    -0.072623924893    14.003074004430
         C           -0.290850870562    -1.548408268443     0.002489475107    12.000000000000
         C            1.068415629438    -1.375122868443    -0.000682924893    12.000000000000
         C           -0.642008370562     0.865910131557     0.018883075107    12.000000000000
         C           -2.567842670562    -0.708335868443     0.003769475107    12.000000000000
         C            1.529533629438    -0.020310868443     0.003155075107    12.000000000000
         H           -0.760354370562    -2.517035868443    -0.006595924893     1.007825032230
         H            1.747237629438    -2.220082868443    -0.028030924893     1.007825032230
         H           -2.871618370562    -1.255561868443     0.892569075107     1.007825032230
         H           -2.866512370562    -1.242305868443    -0.894702924893     1.007825032230
         H           -3.034433370562     0.287084131557     0.010310075107     1.007825032230
         H            3.494596629438    -0.471338868443     0.350134075107     1.007825032230
         H            3.137256629438     1.180506131557     0.120946075107     1.007825032230

  Basis Set: AUG-CC-PVTZ
    Blend: AUG-CC-PVTZ
  Basis Set: (AUG-CC-PVTZ AUX)
    Blend: AUG-CC-PVTZ-JKFIT
	 Reference Energy          =    -431.8000705002213522 [Eh]
	 Singles Energy            =      -0.0000000000000000 [Eh]
	 Same-Spin Energy          =      -0.4505508518053294 [Eh]
	 Opposite-Spin Energy      =      -1.3724592153627753 [Eh]
	 Correlation Energy        =      -1.8230100671681047 [Eh]
	 Total Energy              =    -433.6230805673894793 [Eh]

	 ================> DF-SCS-MP2 Energies <==================
	-----------------------------------------------------------
	 SCS Same-Spin Scale       =       0.3333333333333333 [-]
	 SCS Opposite-Spin Scale   =       1.2000000000000000 [-]
	 SCS Same-Spin Energy      =      -0.1501836172684431 [Eh]
	 SCS Opposite-Spin Energy  =      -1.6469510584353302 [Eh]
	 SCS Correlation Energy    =      -1.7971346757037734 [Eh]
	 SCS Total Energy          =    -433.5972051759251258 [Eh]
	-----------------------------------------------------------

  Dipole Moment: [D]
     X:     1.6870      Y:    -5.6382      Z:     0.8323     Total:     5.9437

*** Psi4 exiting successfully. Buy a developer a beer!
