                               Psi4 1.3.2 release

  ==> Input File <==

--------------------------------------------------------------------------
#psi4
#
memory 32 gb

molecule  {
0 1
  O       -1.4243350     1.8531120    -0.0084660
  N       -1.1176450    -0.4263010     0.0065070
  N        0.7429240     1.0712790     0.0095610
  N        2.8919430     0.2615640    -0.0759850
  C       -0.2783351    -1.4488393    -0.0005855
  C        1.0765330    -1.3300920    -0.0040440
  C       -0.6338910     0.9109410     0.0155220
  C       -2.5617390    -0.6507120     0.0005160
  C        1.4900879     0.0399869    -0.0000104
  H       -0.7522370    -2.4720050    -0.0099570
  H        1.7553550    -2.1750520    -0.0313920
  H       -2.8635010    -1.2105310     0.8892080
  H       -2.8583950    -1.1972750    -0.8980640
  H       -3.0263160     0.3321150     0.0069490
  H        3.5027140    -0.4263080     0.3467730
  H        3.1453740     1.2255370     0.1175850
units angstrom
no_reorient  #important for SAPT in psi4, default
symmetry c1  #important for SAPT in psi4, default
}

set PROPERTIES_ORIGIN ["COM"]
properties('MP2/aug-cc-pvtz', properties = ['dipole'])
--------------------------------------------------------------------------

    Molecular point group: c1
  Charge       = 0
  Multiplicity = 1
  Basis Set: AUG-CC-PVTZ
    Blend: AUG-CC-PVTZ
  Basis Set: (AUG-CC-PVTZ AUX)
    Blend: AUG-CC-PVTZ-JKFIT

    Orbital Energies [Eh]
    ---------------------

    Doubly Occupied:

       1A    -20.510217     2A    -15.631031     3A    -15.580935
       4A    -15.546446     5A    -11.377923     6A    -11.344239
       7A    -11.326553     8A    -11.275682     9A    -11.242594
      10A     -1.392549    11A     -1.306103    12A     -1.269602
      13A     -1.170365    14A     -1.073707    15A     -0.972334
      16A     -0.900927    17A     -0.856315    18A     -0.759090
      19A     -0.720753    20A     -0.680957    21A     -0.665987
      22A     -0.663922    23A     -0.625150    24A     -0.599894
      25A     -0.588769    26A     -0.583975    27A     -0.564699
      28A     -0.517215    29A     -0.484121    30A     -0.448951
      31A     -0.423348    32A     -0.392882    33A     -0.339128

  @DF-RHF Final Energy:  -431.79625908602037

   => Energetics <=

    Nuclear Repulsion Energy =            442.4265886707330537
    One-Electron Energy =               -1464.7729640233167174
    Two-Electron Energy =                 590.5501162665632364
    Total Energy =                       -431.7962590860204273
  Basis Set: (AUG-CC-PVTZ AUX)
    Blend: AUG-CC-PVTZ-RI
    Molecular point group: c1

    Geometry (in Angstrom), charge = 0, multiplicity = 1:

       Center              X                  Y                   Z               Mass
    ------------   -----------------  -----------------  -----------------  -----------------
         O           -1.428117287264     1.800174649841    -0.005161471043    15.994914619570
         N           -1.121427287264    -0.479238350159     0.009811528957    14.003074004430
         N            0.739141712736     1.018341649841     0.012865528957    14.003074004430
         N            2.888160712736     0.208626649841    -0.072680471043    14.003074004430
         C           -0.282117387264    -1.501776650159     0.002719028957    12.000000000000
         C            1.072750712736    -1.383029350159    -0.000739471043    12.000000000000
         C           -0.637673287264     0.858003649841     0.018826528957    12.000000000000
         C           -2.565521287264    -0.703649350159     0.003820528957    12.000000000000
         C            1.486305612736    -0.012950450159     0.003294128957    12.000000000000
         H           -0.756019287264    -2.524942350159    -0.006652471043     1.007825032230
         H            1.751572712736    -2.227989350159    -0.028087471043     1.007825032230
         H           -2.867283287264    -1.263468350159     0.892512528957     1.007825032230
         H           -2.862177287264    -1.250212350159    -0.894759471043     1.007825032230
         H           -3.030098287264     0.279177649841     0.010253528957     1.007825032230
         H            3.498931712736    -0.479245350159     0.350077528957     1.007825032230
         H            3.141591712736     1.172599649841     0.120889528957     1.007825032230

  Basis Set: AUG-CC-PVTZ
    Blend: AUG-CC-PVTZ
  Basis Set: (AUG-CC-PVTZ AUX)
    Blend: AUG-CC-PVTZ-JKFIT
	 Reference Energy          =    -431.7962590860203704 [Eh]
	 Singles Energy            =      -0.0000000000000000 [Eh]
	 Same-Spin Energy          =      -0.4501192749841760 [Eh]
	 Opposite-Spin Energy      =      -1.3714621675974725 [Eh]
	 Correlation Energy        =      -1.8215814425816486 [Eh]
	 Total Energy              =    -433.6178405286020165 [Eh]

	 ================> DF-SCS-MP2 Energies <==================
	-----------------------------------------------------------
	 SCS Same-Spin Scale       =       0.3333333333333333 [-]
	 SCS Opposite-Spin Scale   =       1.2000000000000000 [-]
	 SCS Same-Spin Energy      =      -0.1500397583280587 [Eh]
	 SCS Opposite-Spin Energy  =      -1.6457546011169670 [Eh]
	 SCS Correlation Energy    =      -1.7957943594450256 [Eh]
	 SCS Total Energy          =    -433.5920534454654103 [Eh]
	-----------------------------------------------------------

  Dipole Moment: [D]
     X:     1.1034      Y:    -5.4994      Z:     0.8464     Total:     5.6725

*** Psi4 exiting successfully. Buy a developer a beer!
