                               Psi4 1.3.2 release

  ==> Input File <==

--------------------------------------------------------------------------
#psi4
#
memory 32 gb

molecule  {
0 1
  O       -1.4243350     1.8531120    -0.0084660
  N       -1.1176450    -0.4263010     0.0065070
  N        0.7429240     1.0712790     0.0095610
  N        2.8919430     0.2615640    -0.0759850
  C       -0.2733660    -1.4960510    -0.0007800
  C        1.0765330    -1.3300920    -0.0040440
  C       -0.6338910     0.9109410     0.0155220
  C       -2.5617390    -0.6507120     0.0005160
  C        1.6586008    -0.1345563    -0.0016924
  H       -0.7522370    -2.4720050    -0.0099570
  H        1.7553550    -2.1750520    -0.0313920
  H       -2.8635010    -1.2105310     0.8892080
  H       -2.8583950    -1.1972750    -0.8980640
  H       -3.0263160     0.3321150     0.0069490
  H        3.5027140    -0.4263080     0.3467730
  H        3.1453740     1.2255370     0.1175850
units angstrom
no_reorient  #important for SAPT in psi4, default
symmetry c1  #important for SAPT in psi4, default
}

set PROPERTIES_ORIGIN ["COM"]
properties('MP2/aug-cc-pvtz', properties = ['dipole'])
--------------------------------------------------------------------------

    Molecular point group: c1
  Charge       = 0
  Multiplicity = 1
  Basis Set: AUG-CC-PVTZ
    Blend: AUG-CC-PVTZ
  Basis Set: (AUG-CC-PVTZ AUX)
    Blend: AUG-CC-PVTZ-JKFIT

    Orbital Energies [Eh]
    ---------------------

    Doubly Occupied:

       1A    -20.483858     2A    -15.631020     3A    -15.609669
       4A    -15.529293     5A    -11.352433     6A    -11.350929
       7A    -11.344302     8A    -11.270067     9A    -11.242410
      10A     -1.367426    11A     -1.302528    12A     -1.277737
      13A     -1.133932    14A     -1.080543    15A     -0.972503
      16A     -0.909911    17A     -0.844024    18A     -0.765480
      19A     -0.745858    20A     -0.699049    21A     -0.660076
      22A     -0.651607    23A     -0.635009    24A     -0.604492
      25A     -0.583974    26A     -0.565022    27A     -0.551479
      28A     -0.529729    29A     -0.473740    30A     -0.413218
      31A     -0.400355    32A     -0.370747    33A     -0.330131

  @DF-RHF Final Energy:  -431.74811246203046

   => Energetics <=

    Nuclear Repulsion Energy =            439.5605293074108886
    One-Electron Energy =               -1459.2521789890649870
    Two-Electron Energy =                 587.9435372196236358
    Total Energy =                       -431.7481124620304627
  Basis Set: (AUG-CC-PVTZ AUX)
    Blend: AUG-CC-PVTZ-RI
    Molecular point group: c1

    Geometry (in Angstrom), charge = 0, multiplicity = 1:

       Center              X                  Y                   Z               Mass
    ------------   -----------------  -----------------  -----------------  -----------------
         O           -1.444763713889     1.821453091821    -0.004981411904    15.994914619570
         N           -1.138073713889    -0.457959908179     0.009991588096    14.003074004430
         N            0.722495286111     1.039620091821     0.013045588096    14.003074004430
         N            2.871514286111     0.229905091821    -0.072500411904    14.003074004430
         C           -0.293794713889    -1.527709908179     0.002704588096    12.000000000000
         C            1.056104286111    -1.361750908179    -0.000559411904    12.000000000000
         C           -0.654319713889     0.879282091821     0.019006588096    12.000000000000
         C           -2.582167713889    -0.682370908179     0.004000588096    12.000000000000
         C            1.638172086111    -0.166215208179     0.001792188096    12.000000000000
         H           -0.772665713889    -2.503663908179    -0.006472411904     1.007825032230
         H            1.734926286111    -2.206710908179    -0.027907411904     1.007825032230
         H           -2.883929713889    -1.242189908179     0.892692588096     1.007825032230
         H           -2.878823713889    -1.228933908179    -0.894579411904     1.007825032230
         H           -3.046744713889     0.300456091821     0.010433588096     1.007825032230
         H            3.482285286111    -0.457966908179     0.350257588096     1.007825032230
         H            3.124945286111     1.193878091821     0.121069588096     1.007825032230

  Basis Set: AUG-CC-PVTZ
    Blend: AUG-CC-PVTZ
  Basis Set: (AUG-CC-PVTZ AUX)
    Blend: AUG-CC-PVTZ-JKFIT
	 Reference Energy          =    -431.7481124620304627 [Eh]
	 Singles Energy            =      -0.0000000000000000 [Eh]
	 Same-Spin Energy          =      -0.4543879149898606 [Eh]
	 Opposite-Spin Energy      =      -1.3780490323045316 [Eh]
	 Correlation Energy        =      -1.8324369472943922 [Eh]
	 Total Energy              =    -433.5805494093248740 [Eh]

	 ================> DF-SCS-MP2 Energies <==================
	-----------------------------------------------------------
	 SCS Same-Spin Scale       =       0.3333333333333333 [-]
	 SCS Opposite-Spin Scale   =       1.2000000000000000 [-]
	 SCS Same-Spin Energy      =      -0.1514626383299535 [Eh]
	 SCS Opposite-Spin Energy  =      -1.6536588387654378 [Eh]
	 SCS Correlation Energy    =      -1.8051214770953914 [Eh]
	 SCS Total Energy          =    -433.5532339391258461 [Eh]
	-----------------------------------------------------------

  Dipole Moment: [D]
     X:     2.4486      Y:    -6.2789      Z:     0.7869     Total:     6.7852

*** Psi4 exiting successfully. Buy a developer a beer!
