                               Psi4 1.3.2 release

  ==> Input File <==

--------------------------------------------------------------------------
#psi4
#
memory 32 gb

molecule  {
0 1
  O       -1.4243350     1.8531120    -0.0084660
  N       -1.1176450    -0.4263010     0.0065070
  N        0.7429240     1.0712790     0.0095610
  N        2.8919430     0.2615640    -0.0759850
  C       -0.2733660    -1.4960510    -0.0007800
  C        1.0765330    -1.3300920    -0.0040440
  C       -0.6338910     0.9109410     0.0155220
  C       -2.5617390    -0.6507120     0.0005160
  C        1.5376510     0.0247200    -0.0002060
  H       -0.7522370    -2.4720050    -0.0099570
  H        1.7553550    -2.1750520    -0.0313920
  H       -2.8082741    -1.1080759     0.7265644
  H       -2.8583950    -1.1972750    -0.8980640
  H       -3.0263160     0.3321150     0.0069490
  H        3.5027140    -0.4263080     0.3467730
  H        3.1453740     1.2255370     0.1175850
units angstrom
no_reorient  #important for SAPT in psi4, default
symmetry c1  #important for SAPT in psi4, default
}

set PROPERTIES_ORIGIN ["COM"]
properties('MP2/aug-cc-pvtz', properties = ['dipole'])
--------------------------------------------------------------------------

    Molecular point group: c1
  Charge       = 0
  Multiplicity = 1
  Basis Set: AUG-CC-PVTZ
    Blend: AUG-CC-PVTZ
  Basis Set: (AUG-CC-PVTZ AUX)
    Blend: AUG-CC-PVTZ-JKFIT

    Orbital Energies [Eh]
    ---------------------

    Doubly Occupied:

       1A    -20.502729     2A    -15.624021     3A    -15.590949
       4A    -15.542897     5A    -11.371289     6A    -11.348599
       7A    -11.327044     8A    -11.246111     9A    -11.245275
      10A     -1.381838    11A     -1.295526    12A     -1.267509
      13A     -1.170586    14A     -1.074563    15A     -0.986457
      16A     -0.899850    17A     -0.856759    18A     -0.758788
      19A     -0.726356    20A     -0.693435    21A     -0.673607
      22A     -0.667983    23A     -0.621627    24A     -0.603361
      25A     -0.597375    26A     -0.587999    27A     -0.559198
      28A     -0.523647    29A     -0.478289    30A     -0.440195
      31A     -0.419034    32A     -0.387703    33A     -0.338600

  @DF-RHF Final Energy:  -431.76684613370691

   => Energetics <=

    Nuclear Repulsion Energy =            441.9767246560410285
    One-Electron Energy =               -1463.8687422385298760
    Two-Electron Energy =                 590.1251714487818845
    Total Energy =                       -431.7668461337069630
  Basis Set: (AUG-CC-PVTZ AUX)
    Blend: AUG-CC-PVTZ-RI
    Molecular point group: c1

    Geometry (in Angstrom), charge = 0, multiplicity = 1:

       Center              X                  Y                   Z               Mass
    ------------   -----------------  -----------------  -----------------  -----------------
         O           -1.433603065463     1.805344104588    -0.003813326485    15.994914619570
         N           -1.126913065463    -0.474068895412     0.011159673515    14.003074004430
         N            0.733655934537     1.023511104588     0.014213673515    14.003074004430
         N            2.882674934537     0.213796104588    -0.071332326485    14.003074004430
         C           -0.282634065463    -1.543818895412     0.003872673515    12.000000000000
         C            1.067264934537    -1.377859895412     0.000608673515    12.000000000000
         C           -0.643159065463     0.863173104588     0.020174673515    12.000000000000
         C           -2.571007065463    -0.698479895412     0.005168673515    12.000000000000
         C            1.528382934537    -0.023047895412     0.004446673515    12.000000000000
         H           -0.761505065463    -2.519772895412    -0.005304326485     1.007825032230
         H            1.746086934537    -2.222819895412    -0.026739326485     1.007825032230
         H           -2.817542165463    -1.155843795412     0.731217073515     1.007825032230
         H           -2.867663065463    -1.245042895412    -0.893411326485     1.007825032230
         H           -3.035584065463     0.284347104588     0.011601673515     1.007825032230
         H            3.493445934537    -0.474075895412     0.351425673515     1.007825032230
         H            3.136105934537     1.177769104588     0.122237673515     1.007825032230

  Basis Set: AUG-CC-PVTZ
    Blend: AUG-CC-PVTZ
  Basis Set: (AUG-CC-PVTZ AUX)
    Blend: AUG-CC-PVTZ-JKFIT
	 Reference Energy          =    -431.7668461337069061 [Eh]
	 Singles Energy            =      -0.0000000000000000 [Eh]
	 Same-Spin Energy          =      -0.4505201269571050 [Eh]
	 Opposite-Spin Energy      =      -1.3716082114528332 [Eh]
	 Correlation Energy        =      -1.8221283384099380 [Eh]
	 Total Energy              =    -433.5889744721168313 [Eh]

	 ================> DF-SCS-MP2 Energies <==================
	-----------------------------------------------------------
	 SCS Same-Spin Scale       =       0.3333333333333333 [-]
	 SCS Opposite-Spin Scale   =       1.2000000000000000 [-]
	 SCS Same-Spin Energy      =      -0.1501733756523683 [Eh]
	 SCS Opposite-Spin Energy  =      -1.6459298537433997 [Eh]
	 SCS Correlation Energy    =      -1.7961032293957682 [Eh]
	 SCS Total Energy          =    -433.5629493631026889 [Eh]
	-----------------------------------------------------------

  Dipole Moment: [D]
     X:     1.6271      Y:    -5.6707      Z:     0.8707     Total:     5.9634

*** Psi4 exiting successfully. Buy a developer a beer!
