                               Psi4 1.3.2 release

  ==> Input File <==

--------------------------------------------------------------------------
#psi4
#
memory 32 gb

molecule  {
0 1
  O       -1.4243350     1.8531120    -0.0084660
  N       -1.1176450    -0.4263010     0.0065070
  N        0.7429240     1.0712790     0.0095610
  N        2.8919430     0.2615640    -0.0759850
  C       -0.2760541    -1.4724758    -0.0001116
  C        1.0765330    -1.3300920    -0.0040440
  C       -0.6338910     0.9109410     0.0155220
  C       -2.5617390    -0.6507120     0.0005160
  C        1.5376510     0.0247200    -0.0002060
  H       -0.7522370    -2.4720050    -0.0099570
  H        1.7700055    -2.1630782    -0.0311458
  H       -2.8635010    -1.2105310     0.8892080
  H       -2.8583950    -1.1972750    -0.8980640
  H       -3.0263160     0.3321150     0.0069490
  H        3.5027140    -0.4263080     0.3467730
  H        3.1453740     1.2255370     0.1175850
units angstrom
no_reorient  #important for SAPT in psi4, default
symmetry c1  #important for SAPT in psi4, default
}

set PROPERTIES_ORIGIN ["COM"]
properties('MP2/aug-cc-pvtz', properties = ['dipole'])
--------------------------------------------------------------------------

    Molecular point group: c1
  Charge       = 0
  Multiplicity = 1
  Basis Set: AUG-CC-PVTZ
    Blend: AUG-CC-PVTZ
  Basis Set: (AUG-CC-PVTZ AUX)
    Blend: AUG-CC-PVTZ-JKFIT

    Orbital Energies [Eh]
    ---------------------

    Doubly Occupied:

       1A    -20.504246     2A    -15.627293     3A    -15.590625
       4A    -15.542750     5A    -11.372650     6A    -11.347737
       7A    -11.327366     8A    -11.272191     9A    -11.243992
      10A     -1.384644    11A     -1.298722    12A     -1.270102
      13A     -1.170599    14A     -1.071977    15A     -0.968061
      16A     -0.899097    17A     -0.854233    18A     -0.760007
      19A     -0.722349    20A     -0.686867    21A     -0.672341
      22A     -0.658397    23A     -0.622086    24A     -0.597308
      25A     -0.592972    26A     -0.580293    27A     -0.562219
      28A     -0.522059    29A     -0.479097    30A     -0.440883
      31A     -0.419273    32A     -0.387901    33A     -0.338028

  @DF-RHF Final Energy:  -431.80085534019537

   => Energetics <=

    Nuclear Repulsion Energy =            441.4014468661532646
    One-Electron Energy =               -1462.8278768915781711
    Two-Electron Energy =                 589.6255746852294806
    Total Energy =                       -431.8008553401954259
  Basis Set: (AUG-CC-PVTZ AUX)
    Blend: AUG-CC-PVTZ-RI
    Molecular point group: c1

    Geometry (in Angstrom), charge = 0, multiplicity = 1:

       Center              X                  Y                   Z               Mass
    ------------   -----------------  -----------------  -----------------  -----------------
         O           -1.433018132246     1.803811122427    -0.005190159335    15.994914619570
         N           -1.126328132246    -0.475601877573     0.009782840665    14.003074004430
         N            0.734240867754     1.021978122427     0.012836840665    14.003074004430
         N            2.883259867754     0.212263122427    -0.072709159335    14.003074004430
         C           -0.284737232246    -1.521776677573     0.003164240665    12.000000000000
         C            1.067849867754    -1.379392877573    -0.000768159335    12.000000000000
         C           -0.642574132246     0.861640122427     0.018797840665    12.000000000000
         C           -2.570422132246    -0.700012877573     0.003791840665    12.000000000000
         C            1.528967867754    -0.024580877573     0.003069840665    12.000000000000
         H           -0.760920132246    -2.521305877573    -0.006681159335     1.007825032230
         H            1.761322367754    -2.212379077573    -0.027869959335     1.007825032230
         H           -2.872184132246    -1.259831877573     0.892483840665     1.007825032230
         H           -2.867078132246    -1.246575877573    -0.894788159335     1.007825032230
         H           -3.034999132246     0.282814122427     0.010224840665     1.007825032230
         H            3.494030867754    -0.475608877573     0.350048840665     1.007825032230
         H            3.136690867754     1.176236122427     0.120860840665     1.007825032230

  Basis Set: AUG-CC-PVTZ
    Blend: AUG-CC-PVTZ
  Basis Set: (AUG-CC-PVTZ AUX)
    Blend: AUG-CC-PVTZ-JKFIT
	 Reference Energy          =    -431.8008553401953691 [Eh]
	 Singles Energy            =      -0.0000000000000000 [Eh]
	 Same-Spin Energy          =      -0.4504332219799515 [Eh]
	 Opposite-Spin Energy      =      -1.3718848783124877 [Eh]
	 Correlation Energy        =      -1.8223181002924393 [Eh]
	 Total Energy              =    -433.6231734404877898 [Eh]

	 ================> DF-SCS-MP2 Energies <==================
	-----------------------------------------------------------
	 SCS Same-Spin Scale       =       0.3333333333333333 [-]
	 SCS Opposite-Spin Scale   =       1.2000000000000000 [-]
	 SCS Same-Spin Energy      =      -0.1501444073266505 [Eh]
	 SCS Opposite-Spin Energy  =      -1.6462618539749851 [Eh]
	 SCS Correlation Energy    =      -1.7964062613016356 [Eh]
	 SCS Total Energy          =    -433.5972616014969958 [Eh]
	-----------------------------------------------------------

  Dipole Moment: [D]
     X:     1.6252      Y:    -5.6008      Z:     0.8324     Total:     5.8909

*** Psi4 exiting successfully. Buy a developer a beer!
