                               Psi4 1.3.2 release

  ==> Input File <==

--------------------------------------------------------------------------
#psi4
#
memory 32 gb

molecule  {
0 1
  O       -1.4243350     1.8531120    -0.0084660
  N       -1.1544650    -0.4564179     0.0064816
  N        0.7429240     1.0712790     0.0095610
  N        2.8919430     0.2615640    -0.0759850
  C       -0.2733660    -1.4960510    -0.0007800
  C        1.0815020    -1.3773036    -0.0042698
  C       -0.6338910     0.9109410     0.0155220
  C       -2.5617390    -0.6507120     0.0005160
  C        1.5376510     0.0247200    -0.0002060
  H       -0.7522370    -2.4720050    -0.0099570
  H        1.7553550    -2.1750520    -0.0313920
  H       -2.8635010    -1.2105310     0.8892080
  H       -2.8583950    -1.1972750    -0.8980640
  H       -3.0263160     0.3321150     0.0069490
  H        3.5027140    -0.4263080     0.3467730
  H        3.1453740     1.2255370     0.1175850
units angstrom
no_reorient  #important for SAPT in psi4, default
symmetry c1  #important for SAPT in psi4, default
}

set PROPERTIES_ORIGIN ["COM"]
properties('MP2/aug-cc-pvtz', properties = ['dipole'])
--------------------------------------------------------------------------

    Molecular point group: c1
  Charge       = 0
  Multiplicity = 1
  Basis Set: AUG-CC-PVTZ
    Blend: AUG-CC-PVTZ
  Basis Set: (AUG-CC-PVTZ AUX)
    Blend: AUG-CC-PVTZ-JKFIT

    Orbital Energies [Eh]
    ---------------------

    Doubly Occupied:

       1A    -20.509565     2A    -15.623389     3A    -15.593965
       4A    -15.547254     5A    -11.377674     6A    -11.355046
       7A    -11.325182     8A    -11.265891     9A    -11.246064
      10A     -1.382071    11A     -1.295517    12A     -1.269892
      13A     -1.173699    14A     -1.072194    15A     -0.963638
      16A     -0.888342    17A     -0.856172    18A     -0.756586
      19A     -0.722019    20A     -0.694328    21A     -0.675797
      22A     -0.656017    23A     -0.625360    24A     -0.604199
      25A     -0.591318    26A     -0.578996    27A     -0.558494
      28A     -0.520366    29A     -0.476101    30A     -0.444265
      31A     -0.420188    32A     -0.388713    33A     -0.338525

  @DF-RHF Final Energy:  -431.79539039932916

   => Energetics <=

    Nuclear Repulsion Energy =            439.5469135908206795
    One-Electron Energy =               -1459.0909546749226138
    Two-Electron Energy =                 587.7486506847728833
    Total Energy =                       -431.7953903993291078
  Basis Set: (AUG-CC-PVTZ AUX)
    Blend: AUG-CC-PVTZ-RI
    Molecular point group: c1

    Geometry (in Angstrom), charge = 0, multiplicity = 1:

       Center              X                  Y                   Z               Mass
    ------------   -----------------  -----------------  -----------------  -----------------
         O           -1.429511999665     1.814072192636    -0.005099528412    15.994914619570
         N           -1.159641999665    -0.495457707364     0.009848071588    14.003074004430
         N            0.737747000335     1.032239192636     0.012927471588    14.003074004430
         N            2.886766000335     0.222524192636    -0.072618528412    14.003074004430
         C           -0.278542999665    -1.535090807364     0.002586471588    12.000000000000
         C            1.076325000335    -1.416343407364    -0.000903328412    12.000000000000
         C           -0.639067999665     0.871901192636     0.018888471588    12.000000000000
         C           -2.566915999665    -0.689751807364     0.003882471588    12.000000000000
         C            1.532474000335    -0.014319807364     0.003160471588    12.000000000000
         H           -0.757413999665    -2.511044807364    -0.006590528412     1.007825032230
         H            1.750178000335    -2.214091807364    -0.028025528412     1.007825032230
         H           -2.868677999665    -1.249570807364     0.892574471588     1.007825032230
         H           -2.863571999665    -1.236314807364    -0.894697528412     1.007825032230
         H           -3.031492999665     0.293075192636     0.010315471588     1.007825032230
         H            3.497537000335    -0.465347807364     0.350139471588     1.007825032230
         H            3.140197000335     1.186497192636     0.120951471588     1.007825032230

  Basis Set: AUG-CC-PVTZ
    Blend: AUG-CC-PVTZ
  Basis Set: (AUG-CC-PVTZ AUX)
    Blend: AUG-CC-PVTZ-JKFIT
	 Reference Energy          =    -431.7953903993291647 [Eh]
	 Singles Energy            =      -0.0000000000000000 [Eh]
	 Same-Spin Energy          =      -0.4501219782552787 [Eh]
	 Opposite-Spin Energy      =      -1.3724181482407265 [Eh]
	 Correlation Energy        =      -1.8225401264960053 [Eh]
	 Total Energy              =    -433.6179305258251588 [Eh]

	 ================> DF-SCS-MP2 Energies <==================
	-----------------------------------------------------------
	 SCS Same-Spin Scale       =       0.3333333333333333 [-]
	 SCS Opposite-Spin Scale   =       1.2000000000000000 [-]
	 SCS Same-Spin Energy      =      -0.1500406594184262 [Eh]
	 SCS Opposite-Spin Energy  =      -1.6469017778888717 [Eh]
	 SCS Correlation Energy    =      -1.7969424373072980 [Eh]
	 SCS Total Energy          =    -433.5923328366364444 [Eh]
	-----------------------------------------------------------

  Dipole Moment: [D]
     X:     1.8468      Y:    -5.3447      Z:     0.8273     Total:     5.7150

*** Psi4 exiting successfully. Buy a developer a beer!
