                               Psi4 1.3.2 release

  ==> Input File <==

--------------------------------------------------------------------------
#psi4
#
memory 32 gb

molecule  {
0 1
  O       -1.4243350     1.8531120    -0.0084660
  N       -1.1176450    -0.4263010     0.0065070
  N        0.7429240     1.0712790     0.0095610
  N        2.8919430     0.2615640    -0.0759850
  C       -0.2718677    -1.5078201    -0.0011146
  C        1.0765330    -1.3300920    -0.0040440
  C       -0.6338910     0.9109410     0.0155220
  C       -2.5617390    -0.6507120     0.0005160
  C        1.5376510     0.0247200    -0.0002060
  H       -0.7522370    -2.4720050    -0.0099570
  H        1.7479519    -2.1809426    -0.0315120
  H       -2.8635010    -1.2105310     0.8892080
  H       -2.8583950    -1.1972750    -0.8980640
  H       -3.0263160     0.3321150     0.0069490
  H        3.5027140    -0.4263080     0.3467730
  H        3.1453740     1.2255370     0.1175850
units angstrom
no_reorient  #important for SAPT in psi4, default
symmetry c1  #important for SAPT in psi4, default
}

set PROPERTIES_ORIGIN ["COM"]
properties('MP2/aug-cc-pvtz', properties = ['dipole'])
--------------------------------------------------------------------------

    Molecular point group: c1
  Charge       = 0
  Multiplicity = 1
  Basis Set: AUG-CC-PVTZ
    Blend: AUG-CC-PVTZ
  Basis Set: (AUG-CC-PVTZ AUX)
    Blend: AUG-CC-PVTZ-JKFIT

    Orbital Energies [Eh]
    ---------------------

    Doubly Occupied:

       1A    -20.503247     2A    -15.624417     3A    -15.591972
       4A    -15.543990     5A    -11.372039     6A    -11.350027
       7A    -11.327166     8A    -11.269612     9A    -11.247009
      10A     -1.381634    11A     -1.294936    12A     -1.265860
      13A     -1.170727    14A     -1.073096    15A     -0.963936
      16A     -0.899693    17A     -0.853362    18A     -0.758484
      19A     -0.724625    20A     -0.685136    21A     -0.675031
      22A     -0.654098    23A     -0.622327    24A     -0.603947
      25A     -0.591585    26A     -0.579566    27A     -0.557405
      28A     -0.521802    29A     -0.474903    30A     -0.440887
      31A     -0.419956    32A     -0.387770    33A     -0.339487

  @DF-RHF Final Energy:  -431.80049315466169

   => Energetics <=

    Nuclear Repulsion Energy =            440.6796136636629058
    One-Electron Energy =               -1461.4207513086971630
    Two-Electron Energy =                 588.9406444903726197
    Total Energy =                       -431.8004931546616945
  Basis Set: (AUG-CC-PVTZ AUX)
    Blend: AUG-CC-PVTZ-RI
    Molecular point group: c1

    Geometry (in Angstrom), charge = 0, multiplicity = 1:

       Center              X                  Y                   Z               Mass
    ------------   -----------------  -----------------  -----------------  -----------------
         O           -1.433242111725     1.807346542518    -0.005090965560    15.994914619570
         N           -1.126552111725    -0.472066457482     0.009882034440    14.003074004430
         N            0.734016888275     1.025513542518     0.012936034440    14.003074004430
         N            2.883035888275     0.215798542518    -0.072609965560    14.003074004430
         C           -0.280774811725    -1.553585557482     0.002260434440    12.000000000000
         C            1.067625888275    -1.375857457482    -0.000668965560    12.000000000000
         C           -0.642798111725     0.865175542518     0.018897034440    12.000000000000
         C           -2.570646111725    -0.696477457482     0.003891034440    12.000000000000
         C            1.528743888275    -0.021045457482     0.003169034440    12.000000000000
         H           -0.761144111725    -2.517770457482    -0.006581965560     1.007825032230
         H            1.739044788275    -2.226708057482    -0.028136965560     1.007825032230
         H           -2.872408111725    -1.256296457482     0.892583034440     1.007825032230
         H           -2.867302111725    -1.243040457482    -0.894688965560     1.007825032230
         H           -3.035223111725     0.286349542518     0.010324034440     1.007825032230
         H            3.493806888275    -0.472073457482     0.350148034440     1.007825032230
         H            3.136466888275     1.179771542518     0.120960034440     1.007825032230

  Basis Set: AUG-CC-PVTZ
    Blend: AUG-CC-PVTZ
  Basis Set: (AUG-CC-PVTZ AUX)
    Blend: AUG-CC-PVTZ-JKFIT
	 Reference Energy          =    -431.8004931546616945 [Eh]
	 Singles Energy            =      -0.0000000000000000 [Eh]
	 Same-Spin Energy          =      -0.4503730459058692 [Eh]
	 Opposite-Spin Energy      =      -1.3723388583091600 [Eh]
	 Correlation Energy        =      -1.8227119042150293 [Eh]
	 Total Energy              =    -433.6232050588767493 [Eh]

	 ================> DF-SCS-MP2 Energies <==================
	-----------------------------------------------------------
	 SCS Same-Spin Scale       =       0.3333333333333333 [-]
	 SCS Opposite-Spin Scale   =       1.2000000000000000 [-]
	 SCS Same-Spin Energy      =      -0.1501243486352897 [Eh]
	 SCS Opposite-Spin Energy  =      -1.6468066299709920 [Eh]
	 SCS Correlation Energy    =      -1.7969309786062817 [Eh]
	 SCS Total Energy          =    -433.5974241332679640 [Eh]
	-----------------------------------------------------------

  Dipole Moment: [D]
     X:     1.7423      Y:    -5.6482      Z:     0.8324     Total:     5.9691

*** Psi4 exiting successfully. Buy a developer a beer!
