                               Psi4 1.4a3.dev225

  ==> Input File <==

--------------------------------------------------------------------------
#psi4
#
memory 32 gb

molecule  {
0 1
  O       -1.4602810    -1.8042760    -0.0008590
  N       -1.1067000     0.4494610     0.0014260
  N        0.7338450    -1.0777760     0.0056990
  N        2.8872480    -0.2944040    -0.0665390
  C       -0.2576190     1.5082170    -0.0002850
  C        1.0914800     1.3228940    -0.0047970
  C       -0.6316600    -0.8954310    -0.0014820
  C       -2.5762149     0.6217256     0.0049517
  C        1.5404980    -0.0347530    -0.0000590
  H       -0.7147670     2.4940890    -0.0022110
  H        1.7746080     2.1637920    -0.0246520
  H       -2.7835150     1.6863950     0.0041520
  H       -2.9802500     0.1433220     0.8903410
  H       -2.9840040     0.1411790    -0.8774920
  H        3.5206970     0.4000120     0.3068300
  H        3.1306380    -1.2574880     0.1361150
units angstrom
no_reorient  #important for SAPT in psi4, default
symmetry c1  #important for SAPT in psi4, default
}

set PROPERTIES_ORIGIN ["COM"]
properties('MP2/aug-cc-pvtz', properties = ['dipole'])
--------------------------------------------------------------------------

    Molecular point group: c1
  Charge       = 0
  Multiplicity = 1
  Basis Set: AUG-CC-PVTZ
    Blend: AUG-CC-PVTZ
  Basis Set: (AUG-CC-PVTZ AUX)
    Blend: AUG-CC-PVTZ-JKFIT

    Orbital Energies [Eh]
    ---------------------

    Doubly Occupied:

       1A    -20.502308     2A    -15.625575     3A    -15.591154
       4A    -15.541984     5A    -11.368634     6A    -11.349005
       7A    -11.327684     8A    -11.274211     9A    -11.242752
      10A     -1.381799    11A     -1.294343    12A     -1.265558
      13A     -1.170660    14A     -1.071083    15A     -0.965972
      16A     -0.897685    17A     -0.855192    18A     -0.758595
      19A     -0.723769    20A     -0.683506    21A     -0.673381
      22A     -0.654478    23A     -0.621989    24A     -0.600449
      25A     -0.589956    26A     -0.578295    27A     -0.568475
      28A     -0.517853    29A     -0.480525    30A     -0.442160
      31A     -0.417598    32A     -0.384874    33A     -0.337029

  @DF-RHF Final Energy:  -431.80301690481008

   => Energetics <=

    Nuclear Repulsion Energy =            441.1788319436891470
    One-Electron Energy =               -1462.4466389868327951
    Two-Electron Energy =                 589.4647901383335693
    Total Energy =                       -431.8030169048100788
  Basis Set: (AUG-CC-PVTZ AUX)
    Blend: AUG-CC-PVTZ-RI
    Molecular point group: c1

    Geometry (in Angstrom), charge = 0, multiplicity = 1:

       Center              X                  Y                   Z               Mass
    ------------   -----------------  -----------------  -----------------  -----------------
         O           -1.466720094616    -1.758762648640     0.002573797997    15.994914619570
         N           -1.113139094616     0.494974351360     0.004858797997    14.003074004430
         N            0.727405905384    -1.032262648640     0.009131797997    14.003074004430
         N            2.880808905384    -0.248890648640    -0.063106202003    14.003074004430
         C           -0.264058094616     1.553730351360     0.003147797997    12.000000000000
         C            1.085040905384     1.368407351360    -0.001364202003    12.000000000000
         C           -0.638099094616    -0.849917648640     0.001950797997    12.000000000000
         C           -2.582653994616     0.667238951360     0.008384497997    12.000000000000
         C            1.534058905384     0.010760351360     0.003373797997    12.000000000000
         H           -0.721206094616     2.539602351360     0.001221797997     1.007825032230
         H            1.768168905384     2.209305351360    -0.021219202003     1.007825032230
         H           -2.789954094616     1.731908351360     0.007584797997     1.007825032230
         H           -2.986689094616     0.188835351360     0.893773797997     1.007825032230
         H           -2.990443094616     0.186692351360    -0.874059202003     1.007825032230
         H            3.514257905384     0.445525351360     0.310262797997     1.007825032230
         H            3.124198905384    -1.211974648640     0.139547797997     1.007825032230

  Basis Set: AUG-CC-PVTZ
    Blend: AUG-CC-PVTZ
  Basis Set: (AUG-CC-PVTZ AUX)
    Blend: AUG-CC-PVTZ-JKFIT
	 Reference Energy          =    -431.8030169048100788 [Eh]
	 Singles Energy            =      -0.0000000000000000 [Eh]
	 Same-Spin Energy          =      -0.4502917176061306 [Eh]
	 Opposite-Spin Energy      =      -1.3718640073056478 [Eh]
	 Correlation Energy        =      -1.8221557249117786 [Eh]
	 Total Energy              =    -433.6251726297218738 [Eh]

	 ================> DF-SCS-MP2 Energies <==================
	-----------------------------------------------------------
	 SCS Same-Spin Scale       =       0.3333333333333333 [-]
	 SCS Opposite-Spin Scale   =       1.2000000000000000 [-]
	 SCS Same-Spin Energy      =      -0.1500972392020435 [Eh]
	 SCS Opposite-Spin Energy  =      -1.6462368087667774 [Eh]
	 SCS Correlation Energy    =      -1.7963340479688208 [Eh]
	 SCS Total Energy          =    -433.5993509527788774 [Eh]
	-----------------------------------------------------------

  Dipole Moment: [D]
     X:     1.7443      Y:     5.6205      Z:     0.7694     Total:     5.9350

*** Psi4 exiting successfully. Buy a developer a beer!
