                               Psi4 1.4a3.dev225

  ==> Input File <==

--------------------------------------------------------------------------
#psi4
#
memory 32 gb

molecule  {
0 1
  O       -1.4602810    -1.8042760    -0.0008590
  N       -1.1067000     0.4494610     0.0014260
  N        0.7338450    -1.0777760     0.0056990
  N        2.8872480    -0.2944040    -0.0665390
  C       -0.2889003     1.4692109    -0.0002220
  C        1.0914800     1.3228940    -0.0047970
  C       -0.6316600    -0.8954310    -0.0014820
  C       -2.5563510     0.6193970     0.0049040
  C        1.5404980    -0.0347530    -0.0000590
  H       -0.7147670     2.4940890    -0.0022110
  H        1.7746080     2.1637920    -0.0246520
  H       -2.7835150     1.6863950     0.0041520
  H       -2.9802500     0.1433220     0.8903410
  H       -2.9840040     0.1411790    -0.8774920
  H        3.5206970     0.4000120     0.3068300
  H        3.1306380    -1.2574880     0.1361150
units angstrom
no_reorient  #important for SAPT in psi4, default
symmetry c1  #important for SAPT in psi4, default
}

set PROPERTIES_ORIGIN ["COM"]
properties('MP2/aug-cc-pvtz', properties = ['dipole'])
--------------------------------------------------------------------------

    Molecular point group: c1
  Charge       = 0
  Multiplicity = 1
  Basis Set: AUG-CC-PVTZ
    Blend: AUG-CC-PVTZ
  Basis Set: (AUG-CC-PVTZ AUX)
    Blend: AUG-CC-PVTZ-JKFIT

    Orbital Energies [Eh]
    ---------------------

    Doubly Occupied:

       1A    -20.505236     2A    -15.632570     3A    -15.588339
       4A    -15.540665     5A    -11.371401     6A    -11.345851
       7A    -11.329978     8A    -11.277879     9A    -11.239989
      10A     -1.389390    11A     -1.303488    12A     -1.273500
      13A     -1.171086    14A     -1.065585    15A     -0.971580
      16A     -0.902374    17A     -0.855333    18A     -0.760462
      19A     -0.723328    20A     -0.688285    21A     -0.672508
      22A     -0.662921    23A     -0.623540    24A     -0.594054
      25A     -0.592652    26A     -0.576953    27A     -0.568543
      28A     -0.517790    29A     -0.486557    30A     -0.443127
      31A     -0.418549    32A     -0.384944    33A     -0.331912

  @DF-RHF Final Energy:  -431.80059144878959

   => Energetics <=

    Nuclear Repulsion Energy =            442.3330905497614935
    One-Electron Energy =               -1464.6466276040382581
    Two-Electron Energy =                 590.5129456054871753
    Total Energy =                       -431.8005914487896462
  Basis Set: (AUG-CC-PVTZ AUX)
    Blend: AUG-CC-PVTZ-RI
    Molecular point group: c1

    Geometry (in Angstrom), charge = 0, multiplicity = 1:

       Center              X                  Y                   Z               Mass
    ------------   -----------------  -----------------  -----------------  -----------------
         O           -1.465624540545    -1.754796386719     0.002572329889    15.994914619570
         N           -1.112043540545     0.498940613281     0.004857329889    14.003074004430
         N            0.728501459455    -1.028296386719     0.009130329889    14.003074004430
         N            2.881904459455    -0.244924386719    -0.063107670111    14.003074004430
         C           -0.294243840545     1.518690513281     0.003209329889    12.000000000000
         C            1.086136459455     1.372373613281    -0.001365670111    12.000000000000
         C           -0.637003540545    -0.845951386719     0.001949329889    12.000000000000
         C           -2.561694540545     0.668876613281     0.008335329889    12.000000000000
         C            1.535154459455     0.014726613281     0.003372329889    12.000000000000
         H           -0.720110540545     2.543568613281     0.001220329889     1.007825032230
         H            1.769264459455     2.213271613281    -0.021220670111     1.007825032230
         H           -2.788858540545     1.735874613281     0.007583329889     1.007825032230
         H           -2.985593540545     0.192801613281     0.893772329889     1.007825032230
         H           -2.989347540545     0.190658613281    -0.874060670111     1.007825032230
         H            3.515353459455     0.449491613281     0.310261329889     1.007825032230
         H            3.125294459455    -1.208008386719     0.139546329889     1.007825032230

  Basis Set: AUG-CC-PVTZ
    Blend: AUG-CC-PVTZ
  Basis Set: (AUG-CC-PVTZ AUX)
    Blend: AUG-CC-PVTZ-JKFIT
	 Reference Energy          =    -431.8005914487895893 [Eh]
	 Singles Energy            =      -0.0000000000000000 [Eh]
	 Same-Spin Energy          =      -0.4507306458565900 [Eh]
	 Opposite-Spin Energy      =      -1.3716225461258524 [Eh]
	 Correlation Energy        =      -1.8223531919824425 [Eh]
	 Total Energy              =    -433.6229446407720047 [Eh]

	 ================> DF-SCS-MP2 Energies <==================
	-----------------------------------------------------------
	 SCS Same-Spin Scale       =       0.3333333333333333 [-]
	 SCS Opposite-Spin Scale   =       1.2000000000000000 [-]
	 SCS Same-Spin Energy      =      -0.1502435486188633 [Eh]
	 SCS Opposite-Spin Energy  =      -1.6459470553510229 [Eh]
	 SCS Correlation Energy    =      -1.7961906039698863 [Eh]
	 SCS Total Energy          =    -433.5967820527594654 [Eh]
	-----------------------------------------------------------

  Dipole Moment: [D]
     X:     1.5355      Y:     5.5557      Z:     0.7684     Total:     5.8150

*** Psi4 exiting successfully. Buy a developer a beer!
