                               Psi4 1.3.2 release

  ==> Input File <==

--------------------------------------------------------------------------
#psi4
#
memory 32 gb

molecule  {
0 1
  O       -1.4243350     1.8531120    -0.0084660
  N       -1.1176450    -0.4263010     0.0065070
  N        0.7429240     1.0712790     0.0095610
  N        2.8919430     0.2615640    -0.0759850
  C       -0.2733660    -1.4960510    -0.0007800
  C        1.0765330    -1.3300920    -0.0040440
  C       -0.6338910     0.9109410     0.0155220
  C       -2.5617390    -0.6507120     0.0005160
  C        1.5376510     0.0247200    -0.0002060
  H       -0.7522370    -2.4720050    -0.0099570
  H        1.7553550    -2.1750520    -0.0313920
  H       -2.8780920    -1.2374595     0.8664716
  H       -2.8731141    -1.2245364    -0.8758133
  H       -3.0263160     0.3321150     0.0069490
  H        3.5027140    -0.4263080     0.3467730
  H        3.1453740     1.2255370     0.1175850
units angstrom
no_reorient  #important for SAPT in psi4, default
symmetry c1  #important for SAPT in psi4, default
}

set PROPERTIES_ORIGIN ["COM"]
properties('MP2/aug-cc-pvtz', properties = ['dipole'])
--------------------------------------------------------------------------

    Molecular point group: c1
  Charge       = 0
  Multiplicity = 1
  Basis Set: AUG-CC-PVTZ
    Blend: AUG-CC-PVTZ
  Basis Set: (AUG-CC-PVTZ AUX)
    Blend: AUG-CC-PVTZ-JKFIT

    Orbital Energies [Eh]
    ---------------------

    Doubly Occupied:

       1A    -20.503813     2A    -15.626126     3A    -15.591714
       4A    -15.543828     5A    -11.372637     6A    -11.349506
       7A    -11.327476     8A    -11.270557     9A    -11.246228
      10A     -1.382827    11A     -1.296227    12A     -1.267605
      13A     -1.170875    14A     -1.072821    15A     -0.965494
      16A     -0.899829    17A     -0.854088    18A     -0.759335
      19A     -0.724283    20A     -0.687078    21A     -0.674324
      22A     -0.652622    23A     -0.622235    24A     -0.602618
      25A     -0.594968    26A     -0.577292    27A     -0.560774
      28A     -0.521257    29A     -0.475691    30A     -0.441277
      31A     -0.420056    32A     -0.387920    33A     -0.339169

  @DF-RHF Final Energy:  -431.80058827316105

   => Energetics <=

    Nuclear Repulsion Energy =            440.8472970598691063
    One-Electron Energy =               -1461.7306742632304122
    Two-Electron Energy =                 589.0827889302001950
    Total Energy =                       -431.8005882731611109
  Basis Set: (AUG-CC-PVTZ AUX)
    Blend: AUG-CC-PVTZ-RI
    Molecular point group: c1

    Geometry (in Angstrom), charge = 0, multiplicity = 1:

       Center              X                  Y                   Z               Mass
    ------------   -----------------  -----------------  -----------------  -----------------
         O           -1.432921798503     1.806606475656    -0.005120124924    15.994914619570
         N           -1.126231798503    -0.472806524344     0.009852875076    14.003074004430
         N            0.734337201497     1.024773475656     0.012906875076    14.003074004430
         N            2.883356201497     0.215058475656    -0.072639124924    14.003074004430
         C           -0.281952798503    -1.542556524344     0.002565875076    12.000000000000
         C            1.067946201497    -1.376597524344    -0.000698124924    12.000000000000
         C           -0.642477798503     0.864435475656     0.018867875076    12.000000000000
         C           -2.570325798503    -0.697217524344     0.003861875076    12.000000000000
         C            1.529064201497    -0.021785524344     0.003139875076    12.000000000000
         H           -0.760823798503    -2.518510524344    -0.006611124924     1.007825032230
         H            1.746768201497    -2.221557524344    -0.028046124924     1.007825032230
         H           -2.886678798503    -1.283965024344     0.869817475076     1.007825032230
         H           -2.881700898503    -1.271041924344    -0.872467424924     1.007825032230
         H           -3.034902798503     0.285609475656     0.010294875076     1.007825032230
         H            3.494127201497    -0.472813524344     0.350118875076     1.007825032230
         H            3.136787201497     1.179031475656     0.120930875076     1.007825032230

  Basis Set: AUG-CC-PVTZ
    Blend: AUG-CC-PVTZ
  Basis Set: (AUG-CC-PVTZ AUX)
    Blend: AUG-CC-PVTZ-JKFIT
	 Reference Energy          =    -431.8005882731610541 [Eh]
	 Singles Energy            =      -0.0000000000000000 [Eh]
	 Same-Spin Energy          =      -0.4503561380715436 [Eh]
	 Opposite-Spin Energy      =      -1.3721081594775941 [Eh]
	 Correlation Energy        =      -1.8224642975491379 [Eh]
	 Total Energy              =    -433.6230525707101719 [Eh]

	 ================> DF-SCS-MP2 Energies <==================
	-----------------------------------------------------------
	 SCS Same-Spin Scale       =       0.3333333333333333 [-]
	 SCS Opposite-Spin Scale   =       1.2000000000000000 [-]
	 SCS Same-Spin Energy      =      -0.1501187126905145 [Eh]
	 SCS Opposite-Spin Energy  =      -1.6465297913731129 [Eh]
	 SCS Correlation Energy    =      -1.7966485040636275 [Eh]
	 SCS Total Energy          =    -433.5972367772246798 [Eh]
	-----------------------------------------------------------

  Dipole Moment: [D]
     X:     1.7199      Y:    -5.6529      Z:     0.8322     Total:     5.9671

*** Psi4 exiting successfully. Buy a developer a beer!
