                               Psi4 1.3.2 release

  ==> Input File <==

--------------------------------------------------------------------------
#psi4
#
memory 32 gb

molecule  {
0 1
  O       -1.4243350     1.8531120    -0.0084660
  N       -1.1176450    -0.4263010     0.0065070
  N        0.7429240     1.0712790     0.0095610
  N        2.8919430     0.2615640    -0.0759850
  C       -0.2733660    -1.4960510    -0.0007800
  C        1.0765330    -1.3300920    -0.0040440
  C       -0.6106262     0.9022943     0.0155504
  C       -2.5576020    -0.6758806     0.0003898
  C        1.5376510     0.0247200    -0.0002060
  H       -0.7522370    -2.4720050    -0.0099570
  H        1.7553550    -2.1750520    -0.0313920
  H       -2.8635010    -1.2105310     0.8892080
  H       -2.8583950    -1.1972750    -0.8980640
  H       -3.0263160     0.3321150     0.0069490
  H        3.5027140    -0.4263080     0.3467730
  H        3.1453740     1.2255370     0.1175850
units angstrom
no_reorient  #important for SAPT in psi4, default
symmetry c1  #important for SAPT in psi4, default
}

set PROPERTIES_ORIGIN ["COM"]
properties('MP2/aug-cc-pvtz', properties = ['dipole'])
--------------------------------------------------------------------------

    Molecular point group: c1
  Charge       = 0
  Multiplicity = 1
  Basis Set: AUG-CC-PVTZ
    Blend: AUG-CC-PVTZ
  Basis Set: (AUG-CC-PVTZ AUX)
    Blend: AUG-CC-PVTZ-JKFIT

    Orbital Energies [Eh]
    ---------------------

    Doubly Occupied:

       1A    -20.497392     2A    -15.626755     3A    -15.593963
       4A    -15.545643     5A    -11.371864     6A    -11.352535
       7A    -11.328030     8A    -11.270198     9A    -11.247100
      10A     -1.374327    11A     -1.291603    12A     -1.268383
      13A     -1.176890    14A     -1.073476    15A     -0.966355
      16A     -0.900040    17A     -0.858106    18A     -0.760647
      19A     -0.724919    20A     -0.687553    21A     -0.675177
      22A     -0.657936    23A     -0.618880    24A     -0.602770
      25A     -0.590757    26A     -0.582800    27A     -0.549251
      28A     -0.520073    29A     -0.474421    30A     -0.437196
      31A     -0.420687    32A     -0.389857    33A     -0.339177

  @DF-RHF Final Energy:  -431.79814894610922

   => Energetics <=

    Nuclear Repulsion Energy =            440.9368109171239212
    One-Electron Energy =               -1461.9203915496893842
    Two-Electron Energy =                 589.1854316864562406
    Total Energy =                       -431.7981489461092224
  Basis Set: (AUG-CC-PVTZ AUX)
    Blend: AUG-CC-PVTZ-RI
    Molecular point group: c1

    Geometry (in Angstrom), charge = 0, multiplicity = 1:

       Center              X                  Y                   Z               Mass
    ------------   -----------------  -----------------  -----------------  -----------------
         O           -1.435787336409     1.809414509543    -0.005114654707    15.994914619570
         N           -1.129097336409    -0.469998490457     0.009858345293    14.003074004430
         N            0.731471663591     1.027581509543     0.012912345293    14.003074004430
         N            2.880490663591     0.217866509543    -0.072633654707    14.003074004430
         C           -0.284818336409    -1.539748490457     0.002571345293    12.000000000000
         C            1.065080663591    -1.373789490457    -0.000692654707    12.000000000000
         C           -0.622078536409     0.858596809543     0.018901745293    12.000000000000
         C           -2.569054336409    -0.719578090457     0.003741145293    12.000000000000
         C            1.526198663591    -0.018977490457     0.003145345293    12.000000000000
         H           -0.763689336409    -2.515702490457    -0.006605654707     1.007825032230
         H            1.743902663591    -2.218749490457    -0.028040654707     1.007825032230
         H           -2.874953336409    -1.254228490457     0.892559345293     1.007825032230
         H           -2.869847336409    -1.240972490457    -0.894712654707     1.007825032230
         H           -3.037768336409     0.288417509543     0.010300345293     1.007825032230
         H            3.491261663591    -0.470005490457     0.350124345293     1.007825032230
         H            3.133921663591     1.181839509543     0.120936345293     1.007825032230

  Basis Set: AUG-CC-PVTZ
    Blend: AUG-CC-PVTZ
  Basis Set: (AUG-CC-PVTZ AUX)
    Blend: AUG-CC-PVTZ-JKFIT
	 Reference Energy          =    -431.7981489461092224 [Eh]
	 Singles Energy            =      -0.0000000000000000 [Eh]
	 Same-Spin Energy          =      -0.4508769031077354 [Eh]
	 Opposite-Spin Energy      =      -1.3727618122053227 [Eh]
	 Correlation Energy        =      -1.8236387153130580 [Eh]
	 Total Energy              =    -433.6217876614222746 [Eh]

	 ================> DF-SCS-MP2 Energies <==================
	-----------------------------------------------------------
	 SCS Same-Spin Scale       =       0.3333333333333333 [-]
	 SCS Opposite-Spin Scale   =       1.2000000000000000 [-]
	 SCS Same-Spin Energy      =      -0.1502923010359118 [Eh]
	 SCS Opposite-Spin Energy  =      -1.6473141746463871 [Eh]
	 SCS Correlation Energy    =      -1.7976064756822989 [Eh]
	 SCS Total Energy          =    -433.5957554217915231 [Eh]
	-----------------------------------------------------------

  Dipole Moment: [D]
     X:     1.9041      Y:    -5.7798      Z:     0.8316     Total:     6.1419

*** Psi4 exiting successfully. Buy a developer a beer!
