                               Psi4 1.3.2 release

  ==> Input File <==

--------------------------------------------------------------------------
#psi4
#
memory 32 gb

molecule  {
0 1
  O       -1.4243350     1.8531120    -0.0084660
  N       -1.1176450    -0.4263010     0.0065070
  N        0.7429240     1.0712790     0.0095610
  N        2.8919430     0.2615640    -0.0759850
  C       -0.2733660    -1.4960510    -0.0007800
  C        1.0765330    -1.3300920    -0.0040440
  C       -0.6338910     0.9109410     0.0155220
  C       -2.5617390    -0.6507120     0.0005160
  C        1.5376510     0.0247200    -0.0002060
  H       -0.7522370    -2.4720050    -0.0099570
  H        1.7553550    -2.1750520    -0.0313920
  H       -2.8708436    -1.2240826     0.8779735
  H       -2.8658009    -1.2109910    -0.8870738
  H       -3.0263160     0.3321150     0.0069490
  H        3.5027140    -0.4263080     0.3467730
  H        3.1453740     1.2255370     0.1175850
units angstrom
no_reorient  #important for SAPT in psi4, default
symmetry c1  #important for SAPT in psi4, default
}

set PROPERTIES_ORIGIN ["COM"]
properties('MP2/aug-cc-pvtz', properties = ['dipole'])
--------------------------------------------------------------------------

    Molecular point group: c1
  Charge       = 0
  Multiplicity = 1
  Basis Set: AUG-CC-PVTZ
    Blend: AUG-CC-PVTZ
  Basis Set: (AUG-CC-PVTZ AUX)
    Blend: AUG-CC-PVTZ-JKFIT

    Orbital Energies [Eh]
    ---------------------

    Doubly Occupied:

       1A    -20.503692     2A    -15.625755     3A    -15.591618
       4A    -15.543699     5A    -11.372439     6A    -11.349383
       7A    -11.327346     8A    -11.270509     9A    -11.246102
      10A     -1.382703    11A     -1.296114    12A     -1.267521
      13A     -1.170779    14A     -1.072758    15A     -0.965370
      16A     -0.899602    17A     -0.853890    18A     -0.759159
      19A     -0.724030    20A     -0.686391    21A     -0.674230
      22A     -0.654030    23A     -0.622119    24A     -0.602125
      25A     -0.593675    26A     -0.578597    27A     -0.559982
      28A     -0.521591    29A     -0.476007    30A     -0.441075
      31A     -0.419905    32A     -0.387872    33A     -0.339086

  @DF-RHF Final Energy:  -431.80092535739260

   => Energetics <=

    Nuclear Repulsion Energy =            440.8821770827648834
    One-Electron Energy =               -1461.8078987017174768
    Two-Electron Energy =                 589.1247962615600500
    Total Energy =                       -431.8009253573925434
  Basis Set: (AUG-CC-PVTZ AUX)
    Blend: AUG-CC-PVTZ-RI
    Molecular point group: c1

    Geometry (in Angstrom), charge = 0, multiplicity = 1:

       Center              X                  Y                   Z               Mass
    ------------   -----------------  -----------------  -----------------  -----------------
         O           -1.433039147557     1.806389514166    -0.005122070319    15.994914619570
         N           -1.126349147557    -0.473023485834     0.009850929681    14.003074004430
         N            0.734219852443     1.024556514166     0.012904929681    14.003074004430
         N            2.883238852443     0.214841514166    -0.072641070319    14.003074004430
         C           -0.282070147557    -1.542773485834     0.002563929681    12.000000000000
         C            1.067828852443    -1.376814485834    -0.000700070319    12.000000000000
         C           -0.642595147557     0.864218514166     0.018865929681    12.000000000000
         C           -2.570443147557    -0.697434485834     0.003859929681    12.000000000000
         C            1.528946852443    -0.022002485834     0.003137929681    12.000000000000
         H           -0.760941147557    -2.518727485834    -0.006613070319     1.007825032230
         H            1.746650852443    -2.221774485834    -0.028048070319     1.007825032230
         H           -2.879547747557    -1.270805085834     0.881317429681     1.007825032230
         H           -2.874505047557    -1.257713485834    -0.883729870319     1.007825032230
         H           -3.035020147557     0.285392514166     0.010292929681     1.007825032230
         H            3.494009852443    -0.473030485834     0.350116929681     1.007825032230
         H            3.136669852443     1.178814514166     0.120928929681     1.007825032230

  Basis Set: AUG-CC-PVTZ
    Blend: AUG-CC-PVTZ
  Basis Set: (AUG-CC-PVTZ AUX)
    Blend: AUG-CC-PVTZ-JKFIT
	 Reference Energy          =    -431.8009253573926003 [Eh]
	 Singles Energy            =      -0.0000000000000000 [Eh]
	 Same-Spin Energy          =      -0.4503651244760642 [Eh]
	 Opposite-Spin Energy      =      -1.3721277181323497 [Eh]
	 Correlation Energy        =      -1.8224928426084139 [Eh]
	 Total Energy              =    -433.6234182000010264 [Eh]

	 ================> DF-SCS-MP2 Energies <==================
	-----------------------------------------------------------
	 SCS Same-Spin Scale       =       0.3333333333333333 [-]
	 SCS Opposite-Spin Scale   =       1.2000000000000000 [-]
	 SCS Same-Spin Energy      =      -0.1501217081586881 [Eh]
	 SCS Opposite-Spin Energy  =      -1.6465532617588197 [Eh]
	 SCS Correlation Energy    =      -1.7966749699175077 [Eh]
	 SCS Total Energy          =    -433.5976003273100901 [Eh]
	-----------------------------------------------------------

  Dipole Moment: [D]
     X:     1.7116      Y:    -5.6429      Z:     0.8323     Total:     5.9552

*** Psi4 exiting successfully. Buy a developer a beer!
