                               Psi4 1.3.2 release

  ==> Input File <==

--------------------------------------------------------------------------
#psi4
#
memory 32 gb

molecule  {
0 1
  O       -1.4243350     1.8531120    -0.0084660
  N       -1.1269482    -0.4337094     0.0065015
  N        0.7429240     1.0712790     0.0095610
  N        2.8919430     0.2615640    -0.0759850
  C       -0.2733660    -1.4960510    -0.0007800
  C        1.0779297    -1.3418782    -0.0041008
  C       -0.6338910     0.9109410     0.0155220
  C       -2.5617390    -0.6507120     0.0005160
  C        1.5376510     0.0247200    -0.0002060
  H       -0.7522370    -2.4720050    -0.0099570
  H        1.7553550    -2.1750520    -0.0313920
  H       -2.8635010    -1.2105310     0.8892080
  H       -2.8583950    -1.1972750    -0.8980640
  H       -3.0263160     0.3321150     0.0069490
  H        3.5027140    -0.4263080     0.3467730
  H        3.1453740     1.2255370     0.1175850
units angstrom
no_reorient  #important for SAPT in psi4, default
symmetry c1  #important for SAPT in psi4, default
}

set PROPERTIES_ORIGIN ["COM"]
properties('MP2/aug-cc-pvtz', properties = ['dipole'])
--------------------------------------------------------------------------

    Molecular point group: c1
  Charge       = 0
  Multiplicity = 1
  Basis Set: AUG-CC-PVTZ
    Blend: AUG-CC-PVTZ
  Basis Set: (AUG-CC-PVTZ AUX)
    Blend: AUG-CC-PVTZ-JKFIT

    Orbital Energies [Eh]
    ---------------------

    Doubly Occupied:

       1A    -20.505065     2A    -15.624885     3A    -15.592138
       4A    -15.544462     5A    -11.373624     6A    -11.350758
       7A    -11.326635     8A    -11.269309     9A    -11.245946
      10A     -1.382359    11A     -1.295824    12A     -1.267985
      13A     -1.171435    14A     -1.072453    15A     -0.964819
      16A     -0.896561    17A     -0.854318    18A     -0.758352
      19A     -0.723132    20A     -0.687811    21A     -0.674783
      22A     -0.655534    23A     -0.622219    24A     -0.600778
      25A     -0.594001    26A     -0.579553    27A     -0.559423
      28A     -0.521444    29A     -0.476295    30A     -0.441735
      31A     -0.419988    32A     -0.388015    33A     -0.338901

  @DF-RHF Final Energy:  -431.80073865468552

   => Energetics <=

    Nuclear Repulsion Energy =            440.5678545983113281
    One-Electron Energy =               -1461.1761070949075929
    Two-Electron Energy =                 588.8075138419108043
    Total Energy =                       -431.8007386546854605
  Basis Set: (AUG-CC-PVTZ AUX)
    Blend: AUG-CC-PVTZ-RI
    Molecular point group: c1

    Geometry (in Angstrom), charge = 0, multiplicity = 1:

       Center              X                  Y                   Z               Mass
    ------------   -----------------  -----------------  -----------------  -----------------
         O           -1.432250326599     1.808130244198    -0.005117973008    15.994914619570
         N           -1.134863526599    -0.478691155802     0.009849526992    14.003074004430
         N            0.735008673401     1.026297244198     0.012909026992    14.003074004430
         N            2.884027673401     0.216582244198    -0.072636973008    14.003074004430
         C           -0.281281326599    -1.541032755802     0.002568026992    12.000000000000
         C            1.070014373401    -1.386859955802    -0.000752773008    12.000000000000
         C           -0.641806326599     0.865959244198     0.018870026992    12.000000000000
         C           -2.569654326599    -0.695693755802     0.003864026992    12.000000000000
         C            1.529735673401    -0.020261755802     0.003142026992    12.000000000000
         H           -0.760152326599    -2.516986755802    -0.006608973008     1.007825032230
         H            1.747439673401    -2.220033755802    -0.028043973008     1.007825032230
         H           -2.871416326599    -1.255512755802     0.892556026992     1.007825032230
         H           -2.866310326599    -1.242256755802    -0.894715973008     1.007825032230
         H           -3.034231326599     0.287133244198     0.010297026992     1.007825032230
         H            3.494798673401    -0.471289755802     0.350121026992     1.007825032230
         H            3.137458673401     1.180555244198     0.120933026992     1.007825032230

  Basis Set: AUG-CC-PVTZ
    Blend: AUG-CC-PVTZ
  Basis Set: (AUG-CC-PVTZ AUX)
    Blend: AUG-CC-PVTZ-JKFIT
	 Reference Energy          =    -431.8007386546855173 [Eh]
	 Singles Energy            =      -0.0000000000000000 [Eh]
	 Same-Spin Energy          =      -0.4502753762101339 [Eh]
	 Opposite-Spin Energy      =      -1.3721362319145363 [Eh]
	 Correlation Energy        =      -1.8224116081246702 [Eh]
	 Total Energy              =    -433.6231502628102135 [Eh]

	 ================> DF-SCS-MP2 Energies <==================
	-----------------------------------------------------------
	 SCS Same-Spin Scale       =       0.3333333333333333 [-]
	 SCS Opposite-Spin Scale   =       1.2000000000000000 [-]
	 SCS Same-Spin Energy      =      -0.1500917920700446 [Eh]
	 SCS Opposite-Spin Energy  =      -1.6465634782974434 [Eh]
	 SCS Correlation Energy    =      -1.7966552703674881 [Eh]
	 SCS Total Energy          =    -433.5973939250529838 [Eh]
	-----------------------------------------------------------

  Dipole Moment: [D]
     X:     1.7392      Y:    -5.5628      Z:     0.8311     Total:     5.8873

*** Psi4 exiting successfully. Buy a developer a beer!
