                               Psi4 1.3.2 release

  ==> Input File <==

--------------------------------------------------------------------------
#psi4
#
memory 32 gb

molecule  {
0 1
  O       -1.4243350     1.8531120    -0.0084660
  N       -1.1176450    -0.4263010     0.0065070
  N        0.7429240     1.0712790     0.0095610
  N        2.8919430     0.2615640    -0.0759850
  C       -0.2733660    -1.4960510    -0.0007800
  C        1.0765330    -1.3300920    -0.0040440
  C       -0.6338910     0.9109410     0.0155220
  C       -2.5617390    -0.6507120     0.0005160
  C        1.4661397     0.0469815     0.0018993
  H       -0.7522370    -2.4720050    -0.0099570
  H        1.7102040    -2.2094435    -0.0306258
  H       -2.8635010    -1.2105310     0.8892080
  H       -2.8583950    -1.1972750    -0.8980640
  H       -3.0263160     0.3321150     0.0069490
  H        3.5027140    -0.4263080     0.3467730
  H        3.1453740     1.2255370     0.1175850
units angstrom
no_reorient  #important for SAPT in psi4, default
symmetry c1  #important for SAPT in psi4, default
}

set PROPERTIES_ORIGIN ["COM"]
properties('MP2/aug-cc-pvtz', properties = ['dipole'])
--------------------------------------------------------------------------

    Molecular point group: c1
  Charge       = 0
  Multiplicity = 1
  Basis Set: AUG-CC-PVTZ
    Blend: AUG-CC-PVTZ
  Basis Set: (AUG-CC-PVTZ AUX)
    Blend: AUG-CC-PVTZ-JKFIT

    Orbital Energies [Eh]
    ---------------------

    Doubly Occupied:

       1A    -20.511329     2A    -15.628205     3A    -15.578279
       4A    -15.550180     5A    -11.379430     6A    -11.346113
       7A    -11.325705     8A    -11.273125     9A    -11.246847
      10A     -1.391289    11A     -1.302530    12A     -1.265428
      13A     -1.168717    14A     -1.076076    15A     -0.967597
      16A     -0.900820    17A     -0.857508    18A     -0.757674
      19A     -0.720394    20A     -0.677448    21A     -0.669264
      22A     -0.659941    23A     -0.622624    24A     -0.602445
      25A     -0.594654    26A     -0.584623    27A     -0.558978
      28A     -0.515281    29A     -0.479019    30A     -0.452884
      31A     -0.426427    32A     -0.394924    33A     -0.342100

  @DF-RHF Final Energy:  -431.79372845737475

   => Energetics <=

    Nuclear Repulsion Energy =            441.7390639365318066
    One-Electron Energy =               -1463.4098657675285722
    Two-Electron Energy =                 589.8770733736220109
    Total Energy =                       -431.7937284573747547
  Basis Set: (AUG-CC-PVTZ AUX)
    Blend: AUG-CC-PVTZ-RI
    Molecular point group: c1

    Geometry (in Angstrom), charge = 0, multiplicity = 1:

       Center              X                  Y                   Z               Mass
    ------------   -----------------  -----------------  -----------------  -----------------
         O           -1.425932288979     1.804310826999    -0.005332227331    15.994914619570
         N           -1.119242288979    -0.475102173001     0.009640772669    14.003074004430
         N            0.741326711021     1.022477826999     0.012694772669    14.003074004430
         N            2.890345711021     0.212762826999    -0.072851227331    14.003074004430
         C           -0.274963288979    -1.544852173001     0.002353772669    12.000000000000
         C            1.074935711021    -1.378893173001    -0.000910227331    12.000000000000
         C           -0.635488288979     0.862139826999     0.018655772669    12.000000000000
         C           -2.563336288979    -0.699513173001     0.003649772669    12.000000000000
         C            1.464542411021    -0.001819673001     0.005033072669    12.000000000000
         H           -0.753834288979    -2.520806173001    -0.006823227331     1.007825032230
         H            1.708606711021    -2.258244673001    -0.027492027331     1.007825032230
         H           -2.865098288979    -1.259332173001     0.892341772669     1.007825032230
         H           -2.859992288979    -1.246076173001    -0.894930227331     1.007825032230
         H           -3.027913288979     0.283313826999     0.010082772669     1.007825032230
         H            3.501116711021    -0.475109173001     0.349906772669     1.007825032230
         H            3.143776711021     1.176735826999     0.120718772669     1.007825032230

  Basis Set: AUG-CC-PVTZ
    Blend: AUG-CC-PVTZ
  Basis Set: (AUG-CC-PVTZ AUX)
    Blend: AUG-CC-PVTZ-JKFIT
	 Reference Energy          =    -431.7937284573747547 [Eh]
	 Singles Energy            =      -0.0000000000000000 [Eh]
	 Same-Spin Energy          =      -0.4498228025555975 [Eh]
	 Opposite-Spin Energy      =      -1.3719004956173690 [Eh]
	 Correlation Energy        =      -1.8217232981729665 [Eh]
	 Total Energy              =    -433.6154517555477241 [Eh]

	 ================> DF-SCS-MP2 Energies <==================
	-----------------------------------------------------------
	 SCS Same-Spin Scale       =       0.3333333333333333 [-]
	 SCS Opposite-Spin Scale   =       1.2000000000000000 [-]
	 SCS Same-Spin Energy      =      -0.1499409341851992 [Eh]
	 SCS Opposite-Spin Energy  =      -1.6462805947408428 [Eh]
	 SCS Correlation Energy    =      -1.7962215289260419 [Eh]
	 SCS Total Energy          =    -433.5899499863007804 [Eh]
	-----------------------------------------------------------

  Dipole Moment: [D]
     X:     1.0357      Y:    -5.5399      Z:     0.8551     Total:     5.7004

*** Psi4 exiting successfully. Buy a developer a beer!
