                               Psi4 1.3.2 release

  ==> Input File <==

--------------------------------------------------------------------------
#psi4
#
memory 32 gb

molecule  {
0 1
  O       -1.4243350     1.8531120    -0.0084660
  N       -1.1176450    -0.4263010     0.0065070
  N        0.7429240     1.0712790     0.0095610
  N        2.8919430     0.2615640    -0.0759850
  C       -0.2733660    -1.4960510    -0.0007800
  C        1.0765330    -1.3300920    -0.0040440
  C       -0.6338910     0.9109410     0.0155220
  C       -2.5617390    -0.6507120     0.0005160
  C        1.5376510     0.0247200    -0.0002060
  H       -0.7522370    -2.4720050    -0.0099570
  H        1.7553550    -2.1750520    -0.0313920
  H       -2.8635010    -1.2105310     0.8892080
  H       -2.8583950    -1.1972750    -0.8980640
  H       -3.0263160     0.3321150     0.0069490
  H        3.5217536    -0.3999687     0.3606459
  H        3.1727480     1.2138283     0.1368103
units angstrom
no_reorient  #important for SAPT in psi4, default
symmetry c1  #important for SAPT in psi4, default
}

set PROPERTIES_ORIGIN ["COM"]
properties('MP2/aug-cc-pvtz', properties = ['dipole'])
--------------------------------------------------------------------------

    Molecular point group: c1
  Charge       = 0
  Multiplicity = 1
  Basis Set: AUG-CC-PVTZ
    Blend: AUG-CC-PVTZ
  Basis Set: (AUG-CC-PVTZ AUX)
    Blend: AUG-CC-PVTZ-JKFIT

    Orbital Energies [Eh]
    ---------------------

    Doubly Occupied:

       1A    -20.503656     2A    -15.625522     3A    -15.591278
       4A    -15.543868     5A    -11.372316     6A    -11.350116
       7A    -11.327200     8A    -11.270513     9A    -11.246032
      10A     -1.382656    11A     -1.295891    12A     -1.267185
      13A     -1.170949    14A     -1.072759    15A     -0.965718
      16A     -0.899426    17A     -0.855075    18A     -0.757061
      19A     -0.725596    20A     -0.686746    21A     -0.670258
      22A     -0.655491    23A     -0.622231    24A     -0.601423
      25A     -0.592274    26A     -0.579738    27A     -0.559183
      28A     -0.521969    29A     -0.476324    30A     -0.440908
      31A     -0.419867    32A     -0.388398    33A     -0.338921

  @DF-RHF Final Energy:  -431.80049308270372

   => Energetics <=

    Nuclear Repulsion Energy =            440.8270810503822190
    One-Electron Energy =               -1461.7020547232418721
    Two-Electron Energy =                 589.0744805901558721
    Total Energy =                       -431.8004930827037242
  Basis Set: (AUG-CC-PVTZ AUX)
    Blend: AUG-CC-PVTZ-RI
    Molecular point group: c1

    Geometry (in Angstrom), charge = 0, multiplicity = 1:

       Center              X                  Y                   Z               Mass
    ------------   -----------------  -----------------  -----------------  -----------------
         O           -1.433532040822     1.806051864861    -0.005390770931    15.994914619570
         N           -1.126842040822    -0.473361135139     0.009582229069    14.003074004430
         N            0.733726959178     1.024218864861     0.012636229069    14.003074004430
         N            2.882745959178     0.214503864861    -0.072909770931    14.003074004430
         C           -0.282563040822    -1.543111135139     0.002295229069    12.000000000000
         C            1.067335959178    -1.377152135139    -0.000968770931    12.000000000000
         C           -0.643088040822     0.863880864861     0.018597229069    12.000000000000
         C           -2.570936040822    -0.697772135139     0.003591229069    12.000000000000
         C            1.528453959178    -0.022340135139     0.002869229069    12.000000000000
         H           -0.761434040822    -2.519065135139    -0.006881770931     1.007825032230
         H            1.746157959178    -2.222112135139    -0.028316770931     1.007825032230
         H           -2.872698040822    -1.257591135139     0.892283229069     1.007825032230
         H           -2.867592040822    -1.244335135139    -0.894988770931     1.007825032230
         H           -3.035513040822     0.285054864861     0.010024229069     1.007825032230
         H            3.512556559178    -0.447028835139     0.363721129069     1.007825032230
         H            3.163550959178     1.166768164861     0.139885529069     1.007825032230

  Basis Set: AUG-CC-PVTZ
    Blend: AUG-CC-PVTZ
  Basis Set: (AUG-CC-PVTZ AUX)
    Blend: AUG-CC-PVTZ-JKFIT
	 Reference Energy          =    -431.8004930827037242 [Eh]
	 Singles Energy            =      -0.0000000000000000 [Eh]
	 Same-Spin Energy          =      -0.4503638704331288 [Eh]
	 Opposite-Spin Energy      =      -1.3721805143175305 [Eh]
	 Correlation Energy        =      -1.8225443847506593 [Eh]
	 Total Energy              =    -433.6230374674543668 [Eh]

	 ================> DF-SCS-MP2 Energies <==================
	-----------------------------------------------------------
	 SCS Same-Spin Scale       =       0.3333333333333333 [-]
	 SCS Opposite-Spin Scale   =       1.2000000000000000 [-]
	 SCS Same-Spin Energy      =      -0.1501212901443763 [Eh]
	 SCS Opposite-Spin Energy  =      -1.6466166171810366 [Eh]
	 SCS Correlation Energy    =      -1.7967379073254128 [Eh]
	 SCS Total Energy          =    -433.5972309900291179 [Eh]
	-----------------------------------------------------------

  Dipole Moment: [D]
     X:     1.7096      Y:    -5.6217      Z:     0.8739     Total:     5.9405

*** Psi4 exiting successfully. Buy a developer a beer!
