                               Psi4 1.3.2 release

  ==> Input File <==

--------------------------------------------------------------------------
#psi4
#
memory 32 gb

molecule  {
0 1
  O       -1.4243350     1.8531120    -0.0084660
  N       -1.1176450    -0.4263010     0.0065070
  N        0.7429240     1.0712790     0.0095610
  N        2.8919430     0.2615640    -0.0759850
  C       -0.2733660    -1.4960510    -0.0007800
  C        1.0765330    -1.3300920    -0.0040440
  C       -0.6352374     0.9229619     0.0155955
  C       -2.5617390    -0.6507120     0.0005160
  C        1.5467538     0.0316953    -0.0002126
  H       -0.7522370    -2.4720050    -0.0099570
  H        1.7553550    -2.1750520    -0.0313920
  H       -2.8635010    -1.2105310     0.8892080
  H       -2.8583950    -1.1972750    -0.8980640
  H       -3.0263160     0.3321150     0.0069490
  H        3.5027140    -0.4263080     0.3467730
  H        3.1453740     1.2255370     0.1175850
units angstrom
no_reorient  #important for SAPT in psi4, default
symmetry c1  #important for SAPT in psi4, default
}

set PROPERTIES_ORIGIN ["COM"]
properties('MP2/aug-cc-pvtz', properties = ['dipole'])
--------------------------------------------------------------------------

    Molecular point group: c1
  Charge       = 0
  Multiplicity = 1
  Basis Set: AUG-CC-PVTZ
    Blend: AUG-CC-PVTZ
  Basis Set: (AUG-CC-PVTZ AUX)
    Blend: AUG-CC-PVTZ-JKFIT

    Orbital Energies [Eh]
    ---------------------

    Doubly Occupied:

       1A    -20.506237     2A    -15.622465     3A    -15.592869
       4A    -15.541951     5A    -11.372687     6A    -11.349489
       7A    -11.325182     8A    -11.269089     9A    -11.244696
      10A     -1.386326    11A     -1.297797    12A     -1.267780
      13A     -1.171433    14A     -1.069716    15A     -0.962836
      16A     -0.895283    17A     -0.854429    18A     -0.758668
      19A     -0.723631    20A     -0.686861    21A     -0.674212
      22A     -0.653588    23A     -0.622978    24A     -0.601060
      25A     -0.592595    26A     -0.580112    27A     -0.558464
      28A     -0.524627    29A     -0.476949    30A     -0.442505
      31A     -0.417557    32A     -0.387390    33A     -0.337719

  @DF-RHF Final Energy:  -431.80147172941491

   => Energetics <=

    Nuclear Repulsion Energy =            440.7737766584218093
    One-Electron Energy =               -1461.6121329516713558
    Two-Electron Energy =                 589.0368845638345192
    Total Energy =                       -431.8014717294149705
  Basis Set: (AUG-CC-PVTZ AUX)
    Blend: AUG-CC-PVTZ-RI
    Molecular point group: c1

    Geometry (in Angstrom), charge = 0, multiplicity = 1:

       Center              X                  Y                   Z               Mass
    ------------   -----------------  -----------------  -----------------  -----------------
         O           -1.433902266433     1.804346993837    -0.005130458459    15.994914619570
         N           -1.127212266433    -0.475066006163     0.009842541541    14.003074004430
         N            0.733356733567     1.022513993837     0.012896541541    14.003074004430
         N            2.882375733567     0.212798993837    -0.072649458459    14.003074004430
         C           -0.282933266433    -1.544816006163     0.002555541541    12.000000000000
         C            1.066965733567    -1.378857006163    -0.000708458459    12.000000000000
         C           -0.644804666433     0.874196893837     0.018931041541    12.000000000000
         C           -2.571306266433    -0.699477006163     0.003851541541    12.000000000000
         C            1.537186533567    -0.017069706163     0.003122941541    12.000000000000
         H           -0.761804266433    -2.520770006163    -0.006621458459     1.007825032230
         H            1.745787733567    -2.223817006163    -0.028056458459     1.007825032230
         H           -2.873068266433    -1.259296006163     0.892543541541     1.007825032230
         H           -2.867962266433    -1.246040006163    -0.894728458459     1.007825032230
         H           -3.035883266433     0.283349993837     0.010284541541     1.007825032230
         H            3.493146733567    -0.475073006163     0.350108541541     1.007825032230
         H            3.135806733567     1.176771993837     0.120920541541     1.007825032230

  Basis Set: AUG-CC-PVTZ
    Blend: AUG-CC-PVTZ
  Basis Set: (AUG-CC-PVTZ AUX)
    Blend: AUG-CC-PVTZ-JKFIT
	 Reference Energy          =    -431.8014717294149136 [Eh]
	 Singles Energy            =      -0.0000000000000000 [Eh]
	 Same-Spin Energy          =      -0.4501563885287955 [Eh]
	 Opposite-Spin Energy      =      -1.3717417815582533 [Eh]
	 Correlation Energy        =      -1.8218981700870489 [Eh]
	 Total Energy              =    -433.6233698995019381 [Eh]

	 ================> DF-SCS-MP2 Energies <==================
	-----------------------------------------------------------
	 SCS Same-Spin Scale       =       0.3333333333333333 [-]
	 SCS Opposite-Spin Scale   =       1.2000000000000000 [-]
	 SCS Same-Spin Energy      =      -0.1500521295095985 [Eh]
	 SCS Opposite-Spin Energy  =      -1.6460901378699040 [Eh]
	 SCS Correlation Energy    =      -1.7961422673795024 [Eh]
	 SCS Total Energy          =    -433.5976139967943936 [Eh]
	-----------------------------------------------------------

  Dipole Moment: [D]
     X:     1.7586      Y:    -5.4923      Z:     0.8300     Total:     5.8264

*** Psi4 exiting successfully. Buy a developer a beer!
