                               Psi4 1.3.2 release

  ==> Input File <==

--------------------------------------------------------------------------
#psi4
#
memory 32 gb

molecule  {
0 1
  O       -1.4243350     1.8531120    -0.0084660
  N       -1.1176450    -0.4263010     0.0065070
  N        0.7429240     1.0712790     0.0095610
  N        2.8919430     0.2615640    -0.0759850
  C       -0.2733660    -1.4960510    -0.0007800
  C        1.0765330    -1.3300920    -0.0040440
  C       -0.6338910     0.9109410     0.0155220
  C       -2.5617390    -0.6507120     0.0005160
  C        1.5054307    -0.0699467    -0.0004742
  H       -0.7522370    -2.4720050    -0.0099570
  H        1.7553550    -2.1750520    -0.0313920
  H       -2.8635010    -1.2105310     0.8892080
  H       -2.8583950    -1.1972750    -0.8980640
  H       -3.0263160     0.3321150     0.0069490
  H        3.5027140    -0.4263080     0.3467730
  H        3.1453740     1.2255370     0.1175850
units angstrom
no_reorient  #important for SAPT in psi4, default
symmetry c1  #important for SAPT in psi4, default
}

set PROPERTIES_ORIGIN ["COM"]
properties('MP2/aug-cc-pvtz', properties = ['dipole'])
--------------------------------------------------------------------------

    Molecular point group: c1
  Charge       = 0
  Multiplicity = 1
  Basis Set: AUG-CC-PVTZ
    Blend: AUG-CC-PVTZ
  Basis Set: (AUG-CC-PVTZ AUX)
    Blend: AUG-CC-PVTZ-JKFIT

    Orbital Energies [Eh]
    ---------------------

    Doubly Occupied:

       1A    -20.498475     2A    -15.636093     3A    -15.583842
       4A    -15.544465     5A    -11.366635     6A    -11.346394
       7A    -11.341724     8A    -11.275047     9A    -11.243329
      10A     -1.381278    11A     -1.295566    12A     -1.253172
      13A     -1.151720    14A     -1.092201    15A     -0.973248
      16A     -0.913481    17A     -0.844672    18A     -0.757039
      19A     -0.729816    20A     -0.679052    21A     -0.662293
      22A     -0.657128    23A     -0.633686    24A     -0.606208
      25A     -0.587206    26A     -0.576657    27A     -0.561068
      28A     -0.515282    29A     -0.477121    30A     -0.441951
      31A     -0.419028    32A     -0.383186    33A     -0.342295

  @DF-RHF Final Energy:  -431.78279674762717

   => Energetics <=

    Nuclear Repulsion Energy =            441.0793332428848998
    One-Electron Energy =               -1462.1835412245850421
    Two-Electron Energy =                 589.3214112340729116
    Total Energy =                       -431.7827967476272306
  Basis Set: (AUG-CC-PVTZ AUX)
    Blend: AUG-CC-PVTZ-RI
    Molecular point group: c1

    Geometry (in Angstrom), charge = 0, multiplicity = 1:

       Center              X                  Y                   Z               Mass
    ------------   -----------------  -----------------  -----------------  -----------------
         O           -1.430066311099     1.815253492060    -0.005098304013    15.994914619570
         N           -1.123376311099    -0.464159507940     0.009874695987    14.003074004430
         N            0.737192688901     1.033420492060     0.012928695987    14.003074004430
         N            2.886211688901     0.223705492060    -0.072617304013    14.003074004430
         C           -0.279097311099    -1.533909507940     0.002587695987    12.000000000000
         C            1.070801688901    -1.367950507940    -0.000676304013    12.000000000000
         C           -0.639622311099     0.873082492060     0.018889695987    12.000000000000
         C           -2.567470311099    -0.688570507940     0.003883695987    12.000000000000
         C            1.499699388901    -0.107805207940     0.002893495987    12.000000000000
         H           -0.757968311099    -2.509863507940    -0.006589304013     1.007825032230
         H            1.749623688901    -2.212910507940    -0.028024304013     1.007825032230
         H           -2.869232311099    -1.248389507940     0.892575695987     1.007825032230
         H           -2.864126311099    -1.235133507940    -0.894696304013     1.007825032230
         H           -3.032047311099     0.294256492060     0.010316695987     1.007825032230
         H            3.496982688901    -0.464166507940     0.350140695987     1.007825032230
         H            3.139642688901     1.187678492060     0.120952695987     1.007825032230

  Basis Set: AUG-CC-PVTZ
    Blend: AUG-CC-PVTZ
  Basis Set: (AUG-CC-PVTZ AUX)
    Blend: AUG-CC-PVTZ-JKFIT
	 Reference Energy          =    -431.7827967476271738 [Eh]
	 Singles Energy            =      -0.0000000000000000 [Eh]
	 Same-Spin Energy          =      -0.4524049529305847 [Eh]
	 Opposite-Spin Energy      =      -1.3750281730616536 [Eh]
	 Correlation Energy        =      -1.8274331259922383 [Eh]
	 Total Energy              =    -433.6102298736194030 [Eh]

	 ================> DF-SCS-MP2 Energies <==================
	-----------------------------------------------------------
	 SCS Same-Spin Scale       =       0.3333333333333333 [-]
	 SCS Opposite-Spin Scale   =       1.2000000000000000 [-]
	 SCS Same-Spin Energy      =      -0.1508016509768616 [Eh]
	 SCS Opposite-Spin Energy  =      -1.6500338076739842 [Eh]
	 SCS Correlation Energy    =      -1.8008354586508457 [Eh]
	 SCS Total Energy          =    -433.5836322062780255 [Eh]
	-----------------------------------------------------------

  Dipole Moment: [D]
     X:     1.1945      Y:    -6.0922      Z:     0.8365     Total:     6.2643

*** Psi4 exiting successfully. Buy a developer a beer!
