                               Psi4 1.4a3.dev225

  ==> Input File <==

--------------------------------------------------------------------------
#psi4
#
memory 32 gb

molecule  {
0 1
  O       -1.4602810    -1.8042760    -0.0008590
  N       -1.1067000     0.4494610     0.0014260
  N        0.7338450    -1.0777760     0.0056990
  N        2.8872480    -0.2944040    -0.0665390
  C       -0.2576190     1.5082170    -0.0002850
  C        1.0914800     1.3228940    -0.0047970
  C       -0.6316600    -0.8954310    -0.0014820
  C       -2.5563510     0.6193970     0.0049040
  C        1.4914597    -0.0252985     0.0023617
  H       -0.7147670     2.4940890    -0.0022110
  H        1.7746080     2.1637920    -0.0246520
  H       -2.7835150     1.6863950     0.0041520
  H       -2.9802500     0.1433220     0.8903410
  H       -2.9840040     0.1411790    -0.8774920
  H        3.5206970     0.4000120     0.3068300
  H        3.1306380    -1.2574880     0.1361150
units angstrom
no_reorient  #important for SAPT in psi4, default
symmetry c1  #important for SAPT in psi4, default
}

set PROPERTIES_ORIGIN ["COM"]
properties('MP2/aug-cc-pvtz', properties = ['dipole'])
--------------------------------------------------------------------------

    Molecular point group: c1
  Charge       = 0
  Multiplicity = 1
  Basis Set: AUG-CC-PVTZ
    Blend: AUG-CC-PVTZ
  Basis Set: (AUG-CC-PVTZ AUX)
    Blend: AUG-CC-PVTZ-JKFIT

    Orbital Energies [Eh]
    ---------------------

    Doubly Occupied:

       1A    -20.506259     2A    -15.630316     3A    -15.582280
       4A    -15.546625     5A    -11.372031     6A    -11.347055
       7A    -11.331037     8A    -11.276180     9A    -11.243669
      10A     -1.387574    11A     -1.297572    12A     -1.262408
      13A     -1.167534    14A     -1.078775    15A     -0.967930
      16A     -0.903314    17A     -0.854674    18A     -0.757852
      19A     -0.723511    20A     -0.677778    21A     -0.670793
      22A     -0.658672    23A     -0.624751    24A     -0.602470
      25A     -0.593728    26A     -0.577354    27A     -0.566608
      28A     -0.511608    29A     -0.482132    30A     -0.450120
      31A     -0.422463    32A     -0.387990    33A     -0.340679

  @DF-RHF Final Energy:  -431.79996500677862

   => Energetics <=

    Nuclear Repulsion Energy =            442.0791987845000222
    One-Electron Energy =               -1464.1508447403223272
    Two-Electron Energy =                 590.2716809490436844
    Total Energy =                       -431.7999650067786206
  Basis Set: (AUG-CC-PVTZ AUX)
    Blend: AUG-CC-PVTZ-RI
    Molecular point group: c1

    Geometry (in Angstrom), charge = 0, multiplicity = 1:

       Center              X                  Y                   Z               Mass
    ------------   -----------------  -----------------  -----------------  -----------------
         O           -1.463920671570    -1.759446412786     0.002346097311    15.994914619570
         N           -1.110339671570     0.494290587214     0.004631097311    14.003074004430
         N            0.730205328430    -1.032946412786     0.008904097311    14.003074004430
         N            2.883608328430    -0.249574412786    -0.063333902689    14.003074004430
         C           -0.261258671570     1.553046587214     0.002920097311    12.000000000000
         C            1.087840328430     1.367723587214    -0.001591902689    12.000000000000
         C           -0.635299671570    -0.850601412786     0.001723097311    12.000000000000
         C           -2.559990671570     0.664226587214     0.008109097311    12.000000000000
         C            1.487820028430     0.019531087214     0.005566797311    12.000000000000
         H           -0.718406671570     2.538918587214     0.000994097311     1.007825032230
         H            1.770968328430     2.208621587214    -0.021446902689     1.007825032230
         H           -2.787154671570     1.731224587214     0.007357097311     1.007825032230
         H           -2.983889671570     0.188151587214     0.893546097311     1.007825032230
         H           -2.987643671570     0.186008587214    -0.874286902689     1.007825032230
         H            3.517057328430     0.444841587214     0.310035097311     1.007825032230
         H            3.126998328430    -1.212658412786     0.139320097311     1.007825032230

  Basis Set: AUG-CC-PVTZ
    Blend: AUG-CC-PVTZ
  Basis Set: (AUG-CC-PVTZ AUX)
    Blend: AUG-CC-PVTZ-JKFIT
	 Reference Energy          =    -431.7999650067786206 [Eh]
	 Singles Energy            =      -0.0000000000000000 [Eh]
	 Same-Spin Energy          =      -0.4504776604655097 [Eh]
	 Opposite-Spin Energy      =      -1.3721868334643434 [Eh]
	 Correlation Energy        =      -1.8226644939298531 [Eh]
	 Total Energy              =    -433.6226295007084559 [Eh]

	 ================> DF-SCS-MP2 Energies <==================
	-----------------------------------------------------------
	 SCS Same-Spin Scale       =       0.3333333333333333 [-]
	 SCS Opposite-Spin Scale   =       1.2000000000000000 [-]
	 SCS Same-Spin Energy      =      -0.1501592201551699 [Eh]
	 SCS Opposite-Spin Energy  =      -1.6466242001572120 [Eh]
	 SCS Correlation Energy    =      -1.7967834203123818 [Eh]
	 SCS Total Energy          =    -433.5967484270910290 [Eh]
	-----------------------------------------------------------

  Dipole Moment: [D]
     X:     1.3124      Y:     5.6677      Z:     0.7822     Total:     5.8700

*** Psi4 exiting successfully. Buy a developer a beer!
