                               Psi4 1.3.2 release

  ==> Input File <==

--------------------------------------------------------------------------
#psi4
#
memory 32 gb

molecule  {
0 1
  O       -1.4243350     1.8531120    -0.0084660
  N       -1.1176450    -0.4263010     0.0065070
  N        0.7429240     1.0712790     0.0095610
  N        2.8919430     0.2615640    -0.0759850
  C       -0.2733660    -1.4960510    -0.0007800
  C        1.0765330    -1.3300920    -0.0040440
  C       -0.6338910     0.9109410     0.0155220
  C       -2.5617390    -0.6507120     0.0005160
  C        1.5376510     0.0247200    -0.0002060
  H       -0.7522370    -2.4720050    -0.0099570
  H        1.7553550    -2.1750520    -0.0313920
  H       -2.8635010    -1.2105310     0.8892080
  H       -2.8583950    -1.1972750    -0.8980640
  H       -3.0263160     0.3321150     0.0069490
  H        3.4929137    -0.4391654     0.3396423
  H        3.1315691     1.2309518     0.1078824
units angstrom
no_reorient  #important for SAPT in psi4, default
symmetry c1  #important for SAPT in psi4, default
}

set PROPERTIES_ORIGIN ["COM"]
properties('MP2/aug-cc-pvtz', properties = ['dipole'])
--------------------------------------------------------------------------

    Molecular point group: c1
  Charge       = 0
  Multiplicity = 1
  Basis Set: AUG-CC-PVTZ
    Blend: AUG-CC-PVTZ
  Basis Set: (AUG-CC-PVTZ AUX)
    Blend: AUG-CC-PVTZ-JKFIT

    Orbital Energies [Eh]
    ---------------------

    Doubly Occupied:

       1A    -20.503536     2A    -15.625326     3A    -15.591623
       4A    -15.543427     5A    -11.372209     6A    -11.348836
       7A    -11.327229     8A    -11.270447     9A    -11.245952
      10A     -1.382548    11A     -1.296073    12A     -1.267588
      13A     -1.170576    14A     -1.072677    15A     -0.965070
      16A     -0.899376    17A     -0.853040    18A     -0.760035
      19A     -0.722930    20A     -0.685274    21A     -0.675858
      22A     -0.655503    23A     -0.621853    24A     -0.601846
      25A     -0.592395    26A     -0.579827    27A     -0.559065
      28A     -0.521840    29A     -0.476261    30A     -0.440860
      31A     -0.419707    32A     -0.387522    33A     -0.339038

  @DF-RHF Final Energy:  -431.80095929155004

   => Energetics <=

    Nuclear Repulsion Energy =            440.9653416567720114
    One-Electron Energy =               -1461.9819016163351080
    Two-Electron Energy =                 589.2156006680130531
    Total Energy =                       -431.8009592915500434
  Basis Set: (AUG-CC-PVTZ AUX)
    Blend: AUG-CC-PVTZ-RI
    Molecular point group: c1

    Geometry (in Angstrom), charge = 0, multiplicity = 1:

       Center              X                  Y                   Z               Mass
    ------------   -----------------  -----------------  -----------------  -----------------
         O           -1.432967773164     1.806229748413    -0.004988382850    15.994914619570
         N           -1.126277773164    -0.473183251587     0.009984617150    14.003074004430
         N            0.734291226836     1.024396748413     0.013038617150    14.003074004430
         N            2.883310226836     0.214681748413    -0.072507382850    14.003074004430
         C           -0.281998773164    -1.542933251587     0.002697617150    12.000000000000
         C            1.067900226836    -1.376974251587    -0.000566382850    12.000000000000
         C           -0.642523773164     0.864058748413     0.018999617150    12.000000000000
         C           -2.570371773164    -0.697594251587     0.003993617150    12.000000000000
         C            1.529018226836    -0.022162251587     0.003271617150    12.000000000000
         H           -0.760869773164    -2.518887251587    -0.006479382850     1.007825032230
         H            1.746722226836    -2.221934251587    -0.027914382850     1.007825032230
         H           -2.872133773164    -1.257413251587     0.892685617150     1.007825032230
         H           -2.867027773164    -1.244157251587    -0.894586382850     1.007825032230
         H           -3.034948773164     0.285232748413     0.010426617150     1.007825032230
         H            3.484280926836    -0.486047651587     0.343119917150     1.007825032230
         H            3.122936326836     1.184069548413     0.111360017150     1.007825032230

  Basis Set: AUG-CC-PVTZ
    Blend: AUG-CC-PVTZ
  Basis Set: (AUG-CC-PVTZ AUX)
    Blend: AUG-CC-PVTZ-JKFIT
	 Reference Energy          =    -431.8009592915500434 [Eh]
	 Singles Energy            =      -0.0000000000000000 [Eh]
	 Same-Spin Energy          =      -0.4504118287450336 [Eh]
	 Opposite-Spin Energy      =      -1.3721771745830216 [Eh]
	 Correlation Energy        =      -1.8225890033280552 [Eh]
	 Total Energy              =    -433.6235482948781055 [Eh]

	 ================> DF-SCS-MP2 Energies <==================
	-----------------------------------------------------------
	 SCS Same-Spin Scale       =       0.3333333333333333 [-]
	 SCS Opposite-Spin Scale   =       1.2000000000000000 [-]
	 SCS Same-Spin Energy      =      -0.1501372762483445 [Eh]
	 SCS Opposite-Spin Energy  =      -1.6466126094996258 [Eh]
	 SCS Correlation Energy    =      -1.7967498857479705 [Eh]
	 SCS Total Energy          =    -433.5977091772979861 [Eh]
	-----------------------------------------------------------

  Dipole Moment: [D]
     X:     1.6989      Y:    -5.6387      Z:     0.8112     Total:     5.9447

*** Psi4 exiting successfully. Buy a developer a beer!
