                               Psi4 1.3.2 release

  ==> Input File <==

--------------------------------------------------------------------------
#psi4
#
memory 32 gb

molecule  {
0 1
  O       -1.4243350     1.8531120    -0.0084660
  N       -1.1176450    -0.4263010     0.0065070
  N        0.7248164     1.0572649     0.0108917
  N        2.8959018     0.2378657    -0.0754926
  C       -0.2733660    -1.4960510    -0.0007800
  C        1.0765330    -1.3300920    -0.0040440
  C       -0.6338910     0.9109410     0.0155220
  C       -2.5617390    -0.6507120     0.0005160
  C        1.5376510     0.0247200    -0.0002060
  H       -0.7522370    -2.4720050    -0.0099570
  H        1.7553550    -2.1750520    -0.0313920
  H       -2.8635010    -1.2105310     0.8892080
  H       -2.8583950    -1.1972750    -0.8980640
  H       -3.0263160     0.3321150     0.0069490
  H        3.5027140    -0.4263080     0.3467730
  H        3.1453740     1.2255370     0.1175850
units angstrom
no_reorient  #important for SAPT in psi4, default
symmetry c1  #important for SAPT in psi4, default
}

set PROPERTIES_ORIGIN ["COM"]
properties('MP2/aug-cc-pvtz', properties = ['dipole'])
--------------------------------------------------------------------------

    Molecular point group: c1
  Charge       = 0
  Multiplicity = 1
  Basis Set: AUG-CC-PVTZ
    Blend: AUG-CC-PVTZ
  Basis Set: (AUG-CC-PVTZ AUX)
    Blend: AUG-CC-PVTZ-JKFIT

    Orbital Energies [Eh]
    ---------------------

    Doubly Occupied:

       1A    -20.501625     2A    -15.624245     3A    -15.593784
       4A    -15.542080     5A    -11.370474     6A    -11.351353
       7A    -11.326345     8A    -11.269570     9A    -11.244780
      10A     -1.382872    11A     -1.296042    12A     -1.266978
      13A     -1.175700    14A     -1.072160    15A     -0.965429
      16A     -0.897977    17A     -0.858534    18A     -0.758718
      19A     -0.725477    20A     -0.690213    21A     -0.672862
      22A     -0.655407    23A     -0.620062    24A     -0.600079
      25A     -0.593118    26A     -0.580910    27A     -0.558301
      28A     -0.522215    29A     -0.475825    30A     -0.437786
      31A     -0.419333    32A     -0.389301    33A     -0.338548

  @DF-RHF Final Energy:  -431.80023424605935

   => Energetics <=

    Nuclear Repulsion Energy =            441.3828959992098930
    One-Electron Energy =               -1462.8100544482904297
    Two-Electron Energy =                 589.6269242030211899
    Total Energy =                       -431.8002342460592899
  Basis Set: (AUG-CC-PVTZ AUX)
    Blend: AUG-CC-PVTZ-RI
    Molecular point group: c1

    Geometry (in Angstrom), charge = 0, multiplicity = 1:

       Center              X                  Y                   Z               Mass
    ------------   -----------------  -----------------  -----------------  -----------------
         O           -1.431573735910     1.810392496047    -0.005328174910    15.994914619570
         N           -1.124883735910    -0.469020503953     0.009644825090    14.003074004430
         N            0.717577664090     1.014545396047     0.014029525090    14.003074004430
         N            2.888663064090     0.195146196047    -0.072354774910    14.003074004430
         C           -0.280604735910    -1.538770503953     0.002357825090    12.000000000000
         C            1.069294264090    -1.372811503953    -0.000906174910    12.000000000000
         C           -0.641129735910     0.868221496047     0.018659825090    12.000000000000
         C           -2.568977735910    -0.693431503953     0.003653825090    12.000000000000
         C            1.530412264090    -0.017999503953     0.002931825090    12.000000000000
         H           -0.759475735910    -2.514724503953    -0.006819174910     1.007825032230
         H            1.748116264090    -2.217771503953    -0.028254174910     1.007825032230
         H           -2.870739735910    -1.253250503953     0.892345825090     1.007825032230
         H           -2.865633735910    -1.239994503953    -0.894926174910     1.007825032230
         H           -3.033554735910     0.289395496047     0.010086825090     1.007825032230
         H            3.495475264090    -0.469027503953     0.349910825090     1.007825032230
         H            3.138135264090     1.182817496047     0.120722825090     1.007825032230

  Basis Set: AUG-CC-PVTZ
    Blend: AUG-CC-PVTZ
  Basis Set: (AUG-CC-PVTZ AUX)
    Blend: AUG-CC-PVTZ-JKFIT
	 Reference Energy          =    -431.8002342460593468 [Eh]
	 Singles Energy            =      -0.0000000000000000 [Eh]
	 Same-Spin Energy          =      -0.4505330649770860 [Eh]
	 Opposite-Spin Energy      =      -1.3719400223811575 [Eh]
	 Correlation Energy        =      -1.8224730873582435 [Eh]
	 Total Energy              =    -433.6227073334175657 [Eh]

	 ================> DF-SCS-MP2 Energies <==================
	-----------------------------------------------------------
	 SCS Same-Spin Scale       =       0.3333333333333333 [-]
	 SCS Opposite-Spin Scale   =       1.2000000000000000 [-]
	 SCS Same-Spin Energy      =      -0.1501776883256953 [Eh]
	 SCS Opposite-Spin Energy  =      -1.6463280268573890 [Eh]
	 SCS Correlation Energy    =      -1.7965057151830843 [Eh]
	 SCS Total Energy          =    -433.5967399612424060 [Eh]
	-----------------------------------------------------------

  Dipole Moment: [D]
     X:     1.8038      Y:    -5.6044      Z:     0.8337     Total:     5.9462

*** Psi4 exiting successfully. Buy a developer a beer!
