                               Psi4 1.4a3.dev225

  ==> Input File <==

--------------------------------------------------------------------------
#psi4
#
memory 32 gb

molecule  {
0 1
  O       -1.4602810    -1.8042760    -0.0008590
  N       -1.1067000     0.4494610     0.0014260
  N        0.7338450    -1.0777760     0.0056990
  N        2.8872480    -0.2944040    -0.0665390
  C       -0.2576190     1.5082170    -0.0002850
  C        1.0914800     1.3228940    -0.0047970
  C       -0.6316600    -0.8954310    -0.0014820
  C       -2.5563510     0.6193970     0.0049040
  C        1.5467781    -0.0537413     0.0000073
  H       -0.7147670     2.4940890    -0.0022110
  H        1.7746080     2.1637920    -0.0246520
  H       -2.7835150     1.6863950     0.0041520
  H       -2.9802500     0.1433220     0.8903410
  H       -2.9840040     0.1411790    -0.8774920
  H        3.5206970     0.4000120     0.3068300
  H        3.1306380    -1.2574880     0.1361150
units angstrom
no_reorient  #important for SAPT in psi4, default
symmetry c1  #important for SAPT in psi4, default
}

set PROPERTIES_ORIGIN ["COM"]
properties('MP2/aug-cc-pvtz', properties = ['dipole'])
--------------------------------------------------------------------------

    Molecular point group: c1
  Charge       = 0
  Multiplicity = 1
  Basis Set: AUG-CC-PVTZ
    Blend: AUG-CC-PVTZ
  Basis Set: (AUG-CC-PVTZ AUX)
    Blend: AUG-CC-PVTZ-JKFIT

    Orbital Energies [Eh]
    ---------------------

    Doubly Occupied:

       1A    -20.503989     2A    -15.624247     3A    -15.592989
       4A    -15.542172     5A    -11.370310     6A    -11.349722
       7A    -11.325601     8A    -11.272723     9A    -11.243625
      10A     -1.383499    11A     -1.296843    12A     -1.269643
      13A     -1.175471    14A     -1.068982    15A     -0.963785
      16A     -0.896005    17A     -0.857224    18A     -0.759934
      19A     -0.724438    20A     -0.689404    21A     -0.674694
      22A     -0.654664    23A     -0.620428    24A     -0.600985
      25A     -0.590269    26A     -0.577465    27A     -0.565660
      28A     -0.518375    29A     -0.479813    30A     -0.442377
      31A     -0.417897    32A     -0.386422    33A     -0.336386

  @DF-RHF Final Energy:  -431.80354566334938

   => Energetics <=

    Nuclear Repulsion Energy =            441.5654823845131887
    One-Electron Energy =               -1463.1859711315714776
    Two-Electron Energy =                 589.8169430837089067
    Total Energy =                       -431.8035456633493823
  Basis Set: (AUG-CC-PVTZ AUX)
    Blend: AUG-CC-PVTZ-RI
    Molecular point group: c1

    Geometry (in Angstrom), charge = 0, multiplicity = 1:

       Center              X                  Y                   Z               Mass
    ------------   -----------------  -----------------  -----------------  -----------------
         O           -1.469228736306    -1.756717190254     0.002572013238    15.994914619570
         N           -1.115647736306     0.497019809746     0.004857013238    14.003074004430
         N            0.724897263694    -1.030217190254     0.009130013238    14.003074004430
         N            2.878300263694    -0.246845190254    -0.063107986762    14.003074004430
         C           -0.266566736306     1.555775809746     0.003146013238    12.000000000000
         C            1.082532263694     1.370452809746    -0.001365986762    12.000000000000
         C           -0.640607736306    -0.847872190254     0.001949013238    12.000000000000
         C           -2.565298736306     0.666955809746     0.008335013238    12.000000000000
         C            1.537830363694    -0.006182490254     0.003438313238    12.000000000000
         H           -0.723714736306     2.541647809746     0.001220013238     1.007825032230
         H            1.765660263694     2.211350809746    -0.021220986762     1.007825032230
         H           -2.792462736306     1.733953809746     0.007583013238     1.007825032230
         H           -2.989197736306     0.190880809746     0.893772013238     1.007825032230
         H           -2.992951736306     0.188737809746    -0.874060986762     1.007825032230
         H            3.511749263694     0.447570809746     0.310261013238     1.007825032230
         H            3.121690263694    -1.209929190254     0.139546013238     1.007825032230

  Basis Set: AUG-CC-PVTZ
    Blend: AUG-CC-PVTZ
  Basis Set: (AUG-CC-PVTZ AUX)
    Blend: AUG-CC-PVTZ-JKFIT
	 Reference Energy          =    -431.8035456633493823 [Eh]
	 Singles Energy            =      -0.0000000000000000 [Eh]
	 Same-Spin Energy          =      -0.4500860287257996 [Eh]
	 Opposite-Spin Energy      =      -1.3715107321556592 [Eh]
	 Correlation Energy        =      -1.8215967608814587 [Eh]
	 Total Energy              =    -433.6251424242308303 [Eh]

	 ================> DF-SCS-MP2 Energies <==================
	-----------------------------------------------------------
	 SCS Same-Spin Scale       =       0.3333333333333333 [-]
	 SCS Opposite-Spin Scale   =       1.2000000000000000 [-]
	 SCS Same-Spin Energy      =      -0.1500286762419332 [Eh]
	 SCS Opposite-Spin Energy  =      -1.6458128785867909 [Eh]
	 SCS Correlation Energy    =      -1.7958415548287241 [Eh]
	 SCS Total Energy          =    -433.5993872181780944 [Eh]
	-----------------------------------------------------------

  Dipole Moment: [D]
     X:     1.8991      Y:     5.5152      Z:     0.7684     Total:     5.8834

*** Psi4 exiting successfully. Buy a developer a beer!
