                               Psi4 1.3.2 release

  ==> Input File <==

--------------------------------------------------------------------------
#psi4
#
memory 32 gb

molecule  {
0 1
  O       -1.4243350     1.8531120    -0.0084660
  N       -1.1176450    -0.4263010     0.0065070
  N        0.7429240     1.0712790     0.0095610
  N        2.8919430     0.2615640    -0.0759850
  C       -0.2733660    -1.4960510    -0.0007800
  C        1.0765330    -1.3300920    -0.0040440
  C       -0.6808555     0.9270098     0.0154569
  C       -2.5686921    -0.6001775     0.0007738
  C        1.5376510     0.0247200    -0.0002060
  H       -0.7522370    -2.4720050    -0.0099570
  H        1.7553550    -2.1750520    -0.0313920
  H       -2.8635010    -1.2105310     0.8892080
  H       -2.8583950    -1.1972750    -0.8980640
  H       -3.0263160     0.3321150     0.0069490
  H        3.5027140    -0.4263080     0.3467730
  H        3.1453740     1.2255370     0.1175850
units angstrom
no_reorient  #important for SAPT in psi4, default
symmetry c1  #important for SAPT in psi4, default
}

set PROPERTIES_ORIGIN ["COM"]
properties('MP2/aug-cc-pvtz', properties = ['dipole'])
--------------------------------------------------------------------------

    Molecular point group: c1
  Charge       = 0
  Multiplicity = 1
  Basis Set: AUG-CC-PVTZ
    Blend: AUG-CC-PVTZ
  Basis Set: (AUG-CC-PVTZ AUX)
    Blend: AUG-CC-PVTZ-JKFIT

    Orbital Energies [Eh]
    ---------------------

    Doubly Occupied:

       1A    -20.515741     2A    -15.623089     3A    -15.586703
       4A    -15.539165     5A    -11.372682     6A    -11.342719
       7A    -11.325741     8A    -11.271637     9A    -11.243953
      10A     -1.406832    11A     -1.301277    12A     -1.263926
      13A     -1.158408    14A     -1.071320    15A     -0.963674
      16A     -0.898441    17A     -0.845156    18A     -0.756046
      19A     -0.722092    20A     -0.683344    21A     -0.673022
      22A     -0.652272    23A     -0.634242    24A     -0.600341
      25A     -0.589758    26A     -0.578092    27A     -0.572120
      28A     -0.528628    29A     -0.477914    30A     -0.452858
      31A     -0.411263    32A     -0.382870    33A     -0.337992

  @DF-RHF Final Energy:  -431.79562521300812

   => Energetics <=

    Nuclear Repulsion Energy =            440.9583934283304529
    One-Electron Energy =               -1461.9413984021691704
    Two-Electron Energy =                 589.1873797608304812
    Total Energy =                       -431.7956252130081793
  Basis Set: (AUG-CC-PVTZ AUX)
    Blend: AUG-CC-PVTZ-RI
    Molecular point group: c1

    Geometry (in Angstrom), charge = 0, multiplicity = 1:

       Center              X                  Y                   Z               Mass
    ------------   -----------------  -----------------  -----------------  -----------------
         O           -1.427984351516     1.799778865172    -0.005142529570    15.994914619570
         N           -1.121294351516    -0.479634134828     0.009830470430    14.003074004430
         N            0.739274648484     1.017945865172     0.012884470430    14.003074004430
         N            2.888293648484     0.208230865172    -0.072661529570    14.003074004430
         C           -0.277015351516    -1.549384134828     0.002543470430    12.000000000000
         C            1.072883648484    -1.383425134828    -0.000720529570    12.000000000000
         C           -0.684504851516     0.873676665172     0.018780370430    12.000000000000
         C           -2.572341451516    -0.653510634828     0.004097270430    12.000000000000
         C            1.534001648484    -0.028613134828     0.003117470430    12.000000000000
         H           -0.755886351516    -2.525338134828    -0.006633529570     1.007825032230
         H            1.751705648484    -2.228385134828    -0.028068529570     1.007825032230
         H           -2.867150351516    -1.263864134828     0.892531470430     1.007825032230
         H           -2.862044351516    -1.250608134828    -0.894740529570     1.007825032230
         H           -3.029965351516     0.278781865172     0.010272470430     1.007825032230
         H            3.499064648484    -0.479641134828     0.350096470430     1.007825032230
         H            3.141724648484     1.172203865172     0.120908470430     1.007825032230

  Basis Set: AUG-CC-PVTZ
    Blend: AUG-CC-PVTZ
  Basis Set: (AUG-CC-PVTZ AUX)
    Blend: AUG-CC-PVTZ-JKFIT
	 Reference Energy          =    -431.7956252130081225 [Eh]
	 Singles Energy            =      -0.0000000000000000 [Eh]
	 Same-Spin Energy          =      -0.4496273289741077 [Eh]
	 Opposite-Spin Energy      =      -1.3715039918227259 [Eh]
	 Correlation Energy        =      -1.8211313207968336 [Eh]
	 Total Energy              =    -433.6167565338049599 [Eh]

	 ================> DF-SCS-MP2 Energies <==================
	-----------------------------------------------------------
	 SCS Same-Spin Scale       =       0.3333333333333333 [-]
	 SCS Opposite-Spin Scale   =       1.2000000000000000 [-]
	 SCS Same-Spin Energy      =      -0.1498757763247026 [Eh]
	 SCS Opposite-Spin Energy  =      -1.6458047901872710 [Eh]
	 SCS Correlation Energy    =      -1.7956805665119735 [Eh]
	 SCS Total Energy          =    -433.5913057795200984 [Eh]
	-----------------------------------------------------------

  Dipole Moment: [D]
     X:     1.3056      Y:    -5.3380      Z:     0.8339     Total:     5.5583

*** Psi4 exiting successfully. Buy a developer a beer!
