                               Psi4 1.3.2 release

  ==> Input File <==

--------------------------------------------------------------------------
#psi4
#
memory 32 gb

molecule  {
0 1
  O       -1.4243350     1.8531120    -0.0084660
  N       -1.1197129    -0.4138518    -0.0156589
  N        0.7429240     1.0712790     0.0095610
  N        2.8919430     0.2615640    -0.0759850
  C       -0.2733660    -1.4960510    -0.0007800
  C        1.0765330    -1.3300920    -0.0040440
  C       -0.6338910     0.9109410     0.0155220
  C       -2.5617390    -0.6507120     0.0005160
  C        1.5376510     0.0247200    -0.0002060
  H       -0.7522370    -2.4720050    -0.0099570
  H        1.7553550    -2.1750520    -0.0313920
  H       -2.8816027    -1.2099409     0.8832285
  H       -2.8583950    -1.1972750    -0.8980640
  H       -3.0263160     0.3321150     0.0069490
  H        3.5027140    -0.4263080     0.3467730
  H        3.1453740     1.2255370     0.1175850
units angstrom
no_reorient  #important for SAPT in psi4, default
symmetry c1  #important for SAPT in psi4, default
}

set PROPERTIES_ORIGIN ["COM"]
properties('MP2/aug-cc-pvtz', properties = ['dipole'])
--------------------------------------------------------------------------

    Molecular point group: c1
  Charge       = 0
  Multiplicity = 1
  Basis Set: AUG-CC-PVTZ
    Blend: AUG-CC-PVTZ
  Basis Set: (AUG-CC-PVTZ AUX)
    Blend: AUG-CC-PVTZ-JKFIT

    Orbital Energies [Eh]
    ---------------------

    Doubly Occupied:

       1A    -20.501624     2A    -15.625229     3A    -15.592015
       4A    -15.543771     5A    -11.370713     6A    -11.349740
       7A    -11.328199     8A    -11.269973     9A    -11.247662
      10A     -1.382538    11A     -1.294915    12A     -1.266362
      13A     -1.170723    14A     -1.073377    15A     -0.965384
      16A     -0.900282    17A     -0.853142    18A     -0.759186
      19A     -0.723870    20A     -0.686369    21A     -0.674925
      22A     -0.654645    23A     -0.621807    24A     -0.603112
      25A     -0.592167    26A     -0.579428    27A     -0.556526
      28A     -0.522189    29A     -0.474195    30A     -0.440249
      31A     -0.419742    32A     -0.388074    33A     -0.340119

  @DF-RHF Final Energy:  -431.80056636450212

   => Energetics <=

    Nuclear Repulsion Energy =            440.9333136518075662
    One-Electron Energy =               -1461.9232597355733105
    Two-Electron Energy =                 589.1893797192635702
    Total Energy =                       -431.8005663645021741
  Basis Set: (AUG-CC-PVTZ AUX)
    Blend: AUG-CC-PVTZ-RI
    Molecular point group: c1

    Geometry (in Angstrom), charge = 0, multiplicity = 1:

       Center              X                  Y                   Z               Mass
    ------------   -----------------  -----------------  -----------------  -----------------
         O           -1.432780578254     1.804771054887    -0.002593895305    15.994914619570
         N           -1.128158478254    -0.462192745113    -0.009786795305    14.003074004430
         N            0.734478421746     1.022938054887     0.015433104695    14.003074004430
         N            2.883497421746     0.213223054887    -0.070112895305    14.003074004430
         C           -0.281811578254    -1.544391945113     0.005092104695    12.000000000000
         C            1.068087421746    -1.378432945113     0.001828104695    12.000000000000
         C           -0.642336578254     0.862600054887     0.021394104695    12.000000000000
         C           -2.570184578254    -0.699052945113     0.006388104695    12.000000000000
         C            1.529205421746    -0.023620945113     0.005666104695    12.000000000000
         H           -0.760682578254    -2.520345945113    -0.004084895305     1.007825032230
         H            1.746909421746    -2.223392945113    -0.025519895305     1.007825032230
         H           -2.890048278254    -1.258281845113     0.889100604695     1.007825032230
         H           -2.866840578254    -1.245615945113    -0.892191895305     1.007825032230
         H           -3.034761578254     0.283774054887     0.012821104695     1.007825032230
         H            3.494268421746    -0.474648945113     0.352645104695     1.007825032230
         H            3.136928421746     1.177196054887     0.123457104695     1.007825032230

  Basis Set: AUG-CC-PVTZ
    Blend: AUG-CC-PVTZ
  Basis Set: (AUG-CC-PVTZ AUX)
    Blend: AUG-CC-PVTZ-JKFIT
	 Reference Energy          =    -431.8005663645021173 [Eh]
	 Singles Energy            =      -0.0000000000000000 [Eh]
	 Same-Spin Energy          =      -0.4502743872160297 [Eh]
	 Opposite-Spin Energy      =      -1.3721146168299820 [Eh]
	 Correlation Energy        =      -1.8223890040460118 [Eh]
	 Total Energy              =    -433.6229553685481051 [Eh]

	 ================> DF-SCS-MP2 Energies <==================
	-----------------------------------------------------------
	 SCS Same-Spin Scale       =       0.3333333333333333 [-]
	 SCS Opposite-Spin Scale   =       1.2000000000000000 [-]
	 SCS Same-Spin Energy      =      -0.1500914624053432 [Eh]
	 SCS Opposite-Spin Energy  =      -1.6465375401959783 [Eh]
	 SCS Correlation Energy    =      -1.7966290026013216 [Eh]
	 SCS Total Energy          =    -433.5971953671034385 [Eh]
	-----------------------------------------------------------

  Dipole Moment: [D]
     X:     1.7600      Y:    -5.6856      Z:     0.8464     Total:     6.0117

*** Psi4 exiting successfully. Buy a developer a beer!
