                               Psi4 1.3.2 release

  ==> Input File <==

--------------------------------------------------------------------------
#psi4
#
memory 32 gb

molecule  {
0 1
  O       -1.4243350     1.8531120    -0.0084660
  N       -1.1176450    -0.4263010     0.0065070
  N        0.7429240     1.0712790     0.0095610
  N        2.8919430     0.2615640    -0.0759850
  C       -0.2733660    -1.4960510    -0.0007800
  C        1.0765330    -1.3300920    -0.0040440
  C       -0.6338910     0.9109410     0.0155220
  C       -2.5617390    -0.6507120     0.0005160
  C        1.5376510     0.0247200    -0.0002060
  H       -0.6641401    -2.2924609    -0.0082687
  H        1.7553550    -2.1750520    -0.0313920
  H       -2.8635010    -1.2105310     0.8892080
  H       -2.8583950    -1.1972750    -0.8980640
  H       -3.0263160     0.3321150     0.0069490
  H        3.5027140    -0.4263080     0.3467730
  H        3.1453740     1.2255370     0.1175850
units angstrom
no_reorient  #important for SAPT in psi4, default
symmetry c1  #important for SAPT in psi4, default
}

set PROPERTIES_ORIGIN ["COM"]
properties('MP2/aug-cc-pvtz', properties = ['dipole'])
--------------------------------------------------------------------------

    Molecular point group: c1
  Charge       = 0
  Multiplicity = 1
  Basis Set: AUG-CC-PVTZ
    Blend: AUG-CC-PVTZ
  Basis Set: (AUG-CC-PVTZ AUX)
    Blend: AUG-CC-PVTZ-JKFIT

    Orbital Energies [Eh]
    ---------------------

    Doubly Occupied:

       1A    -20.503057     2A    -15.624320     3A    -15.591272
       4A    -15.543571     5A    -11.371447     6A    -11.348727
       7A    -11.304964     8A    -11.270617     9A    -11.245748
      10A     -1.382241    11A     -1.296511    12A     -1.268380
      13A     -1.170762    14A     -1.079486    15A     -0.965119
      16A     -0.925097    17A     -0.853809    18A     -0.760286
      19A     -0.747088    20A     -0.685599    21A     -0.684058
      22A     -0.655326    23A     -0.626020    24A     -0.610514
      25A     -0.592595    26A     -0.579721    27A     -0.558895
      28A     -0.521575    29A     -0.476146    30A     -0.440646
      31A     -0.420221    32A     -0.387506    33A     -0.338693

  @DF-RHF Final Energy:  -431.76629118128307

   => Energetics <=

    Nuclear Repulsion Energy =            442.1280625767178094
    One-Electron Energy =               -1464.1286732078415298
    Two-Electron Energy =                 590.2343194498405410
    Total Energy =                       -431.7662911812831226
  Basis Set: (AUG-CC-PVTZ AUX)
    Blend: AUG-CC-PVTZ-RI
    Molecular point group: c1

    Geometry (in Angstrom), charge = 0, multiplicity = 1:

       Center              X                  Y                   Z               Mass
    ------------   -----------------  -----------------  -----------------  -----------------
         O           -1.433867958291     1.804722859586    -0.005137644760    15.994914619570
         N           -1.127177958291    -0.474690140414     0.009835355240    14.003074004430
         N            0.733391041709     1.022889859586     0.012889355240    14.003074004430
         N            2.882410041709     0.213174859586    -0.072656644760    14.003074004430
         C           -0.282898958291    -1.544440140414     0.002548355240    12.000000000000
         C            1.067000041709    -1.378481140414    -0.000715644760    12.000000000000
         C           -0.643423958291     0.862551859586     0.018850355240    12.000000000000
         C           -2.571271958291    -0.699101140414     0.003844355240    12.000000000000
         C            1.528118041709    -0.023669140414     0.003122355240    12.000000000000
         H           -0.673673058291    -2.340850040414    -0.004940344760     1.007825032230
         H            1.745822041709    -2.223441140414    -0.028063644760     1.007825032230
         H           -2.873033958291    -1.258920140414     0.892536355240     1.007825032230
         H           -2.867927958291    -1.245664140414    -0.894735644760     1.007825032230
         H           -3.035848958291     0.283725859586     0.010277355240     1.007825032230
         H            3.493181041709    -0.474697140414     0.350101355240     1.007825032230
         H            3.135841041709     1.177147859586     0.120913355240     1.007825032230

  Basis Set: AUG-CC-PVTZ
    Blend: AUG-CC-PVTZ
  Basis Set: (AUG-CC-PVTZ AUX)
    Blend: AUG-CC-PVTZ-JKFIT
	 Reference Energy          =    -431.7662911812830657 [Eh]
	 Singles Energy            =      -0.0000000000000000 [Eh]
	 Same-Spin Energy          =      -0.4500803048455366 [Eh]
	 Opposite-Spin Energy      =      -1.3715847994221786 [Eh]
	 Correlation Energy        =      -1.8216651042677152 [Eh]
	 Total Energy              =    -433.5879562855507743 [Eh]

	 ================> DF-SCS-MP2 Energies <==================
	-----------------------------------------------------------
	 SCS Same-Spin Scale       =       0.3333333333333333 [-]
	 SCS Opposite-Spin Scale   =       1.2000000000000000 [-]
	 SCS Same-Spin Energy      =      -0.1500267682818455 [Eh]
	 SCS Opposite-Spin Energy  =      -1.6459017593066143 [Eh]
	 SCS Correlation Energy    =      -1.7959285275884598 [Eh]
	 SCS Total Energy          =    -433.5622197088715097 [Eh]
	-----------------------------------------------------------

  Dipole Moment: [D]
     X:     1.7121      Y:    -5.6360      Z:     0.8330     Total:     5.9489

*** Psi4 exiting successfully. Buy a developer a beer!
