                               Psi4 1.3.2 release

  ==> Input File <==

--------------------------------------------------------------------------
#psi4
#
memory 32 gb

molecule  {
0 1
  O       -1.4243350     1.8531120    -0.0084660
  N       -1.1176450    -0.4263010     0.0065070
  N        0.7429240     1.0712790     0.0095610
  N        2.8919430     0.2615640    -0.0759850
  C       -0.2628311    -1.5664715    -0.0010791
  C        1.0765330    -1.3300920    -0.0040440
  C       -0.6338910     0.9109410     0.0155220
  C       -2.5617390    -0.6507120     0.0005160
  C        1.6079244    -0.0012689    -0.0005080
  H       -0.7522370    -2.4720050    -0.0099570
  H        1.7553550    -2.1750520    -0.0313920
  H       -2.8635010    -1.2105310     0.8892080
  H       -2.8583950    -1.1972750    -0.8980640
  H       -3.0263160     0.3321150     0.0069490
  H        3.5027140    -0.4263080     0.3467730
  H        3.1453740     1.2255370     0.1175850
units angstrom
no_reorient  #important for SAPT in psi4, default
symmetry c1  #important for SAPT in psi4, default
}

set PROPERTIES_ORIGIN ["COM"]
properties('MP2/aug-cc-pvtz', properties = ['dipole'])
--------------------------------------------------------------------------

    Molecular point group: c1
  Charge       = 0
  Multiplicity = 1
  Basis Set: AUG-CC-PVTZ
    Blend: AUG-CC-PVTZ
  Basis Set: (AUG-CC-PVTZ AUX)
    Blend: AUG-CC-PVTZ-JKFIT

    Orbital Energies [Eh]
    ---------------------

    Doubly Occupied:

       1A    -20.493936     2A    -15.616556     3A    -15.607416
       4A    -15.538848     5A    -11.363805     6A    -11.356903
       7A    -11.329137     8A    -11.262760     9A    -11.252604
      10A     -1.369674    11A     -1.303031    12A     -1.259596
      13A     -1.158968    14A     -1.072480    15A     -0.955877
      16A     -0.903107    17A     -0.849032    18A     -0.763188
      19A     -0.737749    20A     -0.685947    21A     -0.678873
      22A     -0.643482    23A     -0.634164    24A     -0.605931
      25A     -0.584311    26A     -0.574994    27A     -0.545820
      28A     -0.528200    29A     -0.466634    30A     -0.428414
      31A     -0.411515    32A     -0.377014    33A     -0.338440

  @DF-RHF Final Energy:  -431.78203903302312

   => Energetics <=

    Nuclear Repulsion Energy =            438.8294421540011285
    One-Electron Energy =               -1457.8261486576275274
    Two-Electron Energy =                 587.2146674706033309
    Total Energy =                       -431.7820390330231248
  Basis Set: (AUG-CC-PVTZ AUX)
    Blend: AUG-CC-PVTZ-RI
    Molecular point group: c1

    Geometry (in Angstrom), charge = 0, multiplicity = 1:

       Center              X                  Y                   Z               Mass
    ------------   -----------------  -----------------  -----------------  -----------------
         O           -1.440911945208     1.815420712450    -0.005066360668    15.994914619570
         N           -1.134221945208    -0.463992287550     0.009906639332    14.003074004430
         N            0.726347054792     1.033587712450     0.012960639332    14.003074004430
         N            2.875366054792     0.223872712450    -0.072585360668    14.003074004430
         C           -0.279408045208    -1.604162787550     0.002320539332    12.000000000000
         C            1.059956054792    -1.367783287550    -0.000644360668    12.000000000000
         C           -0.650467945208     0.873249712450     0.018921639332    12.000000000000
         C           -2.578315945208    -0.688403287550     0.003915639332    12.000000000000
         C            1.591347454792    -0.038960187550     0.002891639332    12.000000000000
         H           -0.768813945208    -2.509696287550    -0.006557360668     1.007825032230
         H            1.738778054792    -2.212743287550    -0.027992360668     1.007825032230
         H           -2.880077945208    -1.248222287550     0.892607639332     1.007825032230
         H           -2.874971945208    -1.234966287550    -0.894664360668     1.007825032230
         H           -3.042892945208     0.294423712450     0.010348639332     1.007825032230
         H            3.486137054792    -0.463999287550     0.350172639332     1.007825032230
         H            3.128797054792     1.187845712450     0.120984639332     1.007825032230

  Basis Set: AUG-CC-PVTZ
    Blend: AUG-CC-PVTZ
  Basis Set: (AUG-CC-PVTZ AUX)
    Blend: AUG-CC-PVTZ-JKFIT
	 Reference Energy          =    -431.7820390330231248 [Eh]
	 Singles Energy            =      -0.0000000000000000 [Eh]
	 Same-Spin Energy          =      -0.4513546295406765 [Eh]
	 Opposite-Spin Energy      =      -1.3745589682091155 [Eh]
	 Correlation Energy        =      -1.8259135977497920 [Eh]
	 Total Energy              =    -433.6079526307728997 [Eh]

	 ================> DF-SCS-MP2 Energies <==================
	-----------------------------------------------------------
	 SCS Same-Spin Scale       =       0.3333333333333333 [-]
	 SCS Opposite-Spin Scale   =       1.2000000000000000 [-]
	 SCS Same-Spin Energy      =      -0.1504515431802255 [Eh]
	 SCS Opposite-Spin Energy  =      -1.6494707618509385 [Eh]
	 SCS Correlation Energy    =      -1.7999223050311641 [Eh]
	 SCS Total Energy          =    -433.5819613380542705 [Eh]
	-----------------------------------------------------------

  Dipole Moment: [D]
     X:     2.5833      Y:    -5.8024      Z:     0.8098     Total:     6.4029

*** Psi4 exiting successfully. Buy a developer a beer!
