                               Psi4 1.4a3.dev225

  ==> Input File <==

--------------------------------------------------------------------------
#psi4
#
memory 32 gb

molecule  {
0 1
  O       -1.4602810    -1.8042760    -0.0008590
  N       -1.1067000     0.4494610     0.0014260
  N        0.7338450    -1.0777760     0.0056990
  N        2.8872480    -0.2944040    -0.0665390
  C       -0.2576190     1.5082170    -0.0002850
  C        1.0914800     1.3228940    -0.0047970
  C       -0.6316600    -0.8954310    -0.0014820
  C       -2.5563510     0.6193970     0.0049040
  C        1.5282627    -0.0505736     0.0000283
  H       -0.7147670     2.4940890    -0.0022110
  H        1.7746080     2.1637920    -0.0246520
  H       -2.7835150     1.6863950     0.0041520
  H       -2.9802500     0.1433220     0.8903410
  H       -2.9840040     0.1411790    -0.8774920
  H        3.5206970     0.4000120     0.3068300
  H        3.1306380    -1.2574880     0.1361150
units angstrom
no_reorient  #important for SAPT in psi4, default
symmetry c1  #important for SAPT in psi4, default
}

set PROPERTIES_ORIGIN ["COM"]
properties('MP2/aug-cc-pvtz', properties = ['dipole'])
--------------------------------------------------------------------------

    Molecular point group: c1
  Charge       = 0
  Multiplicity = 1
  Basis Set: AUG-CC-PVTZ
    Blend: AUG-CC-PVTZ
  Basis Set: (AUG-CC-PVTZ AUX)
    Blend: AUG-CC-PVTZ-JKFIT

    Orbital Energies [Eh]
    ---------------------

    Doubly Occupied:

       1A    -20.505337     2A    -15.625787     3A    -15.589432
       4A    -15.543757     5A    -11.371451     6A    -11.348737
       7A    -11.326570     8A    -11.273707     9A    -11.243713
      10A     -1.385214    11A     -1.296807    12A     -1.267486
      13A     -1.174696    14A     -1.071158    15A     -0.964844
      16A     -0.897639    17A     -0.856954    18A     -0.758791
      19A     -0.723168    20A     -0.686573    21A     -0.673827
      22A     -0.655973    23A     -0.621338    24A     -0.601316
      25A     -0.591991    26A     -0.577475    27A     -0.566020
      28A     -0.516173    29A     -0.480669    30A     -0.445126
      31A     -0.419784    32A     -0.387824    33A     -0.337533

  @DF-RHF Final Energy:  -431.80353358018499

   => Energetics <=

    Nuclear Repulsion Energy =            441.7469569652661221
    One-Electron Energy =               -1463.5272482385262265
    Two-Electron Energy =                 589.9767576930751147
    Total Energy =                       -431.8035335801849897
  Basis Set: (AUG-CC-PVTZ AUX)
    Blend: AUG-CC-PVTZ-RI
    Molecular point group: c1

    Geometry (in Angstrom), charge = 0, multiplicity = 1:

       Center              X                  Y                   Z               Mass
    ------------   -----------------  -----------------  -----------------  -----------------
         O           -1.467452095228    -1.757021146201     0.002569998188    15.994914619570
         N           -1.113871095228     0.496715853799     0.004854998188    14.003074004430
         N            0.726673904772    -1.030521146201     0.009127998188    14.003074004430
         N            2.880076904772    -0.247149146201    -0.063110001812    14.003074004430
         C           -0.264790095228     1.555471853799     0.003143998188    12.000000000000
         C            1.084308904772     1.370148853799    -0.001368001812    12.000000000000
         C           -0.638831095228    -0.848176146201     0.001946998188    12.000000000000
         C           -2.563522095228     0.666651853799     0.008332998188    12.000000000000
         C            1.521091604772    -0.003318746201     0.003457298188    12.000000000000
         H           -0.721938095228     2.541343853799     0.001217998188     1.007825032230
         H            1.767436904772     2.211046853799    -0.021223001812     1.007825032230
         H           -2.790686095228     1.733649853799     0.007580998188     1.007825032230
         H           -2.987421095228     0.190576853799     0.893769998188     1.007825032230
         H           -2.991175095228     0.188433853799    -0.874063001812     1.007825032230
         H            3.513525904772     0.447266853799     0.310258998188     1.007825032230
         H            3.123466904772    -1.210233146201     0.139543998188     1.007825032230

  Basis Set: AUG-CC-PVTZ
    Blend: AUG-CC-PVTZ
  Basis Set: (AUG-CC-PVTZ AUX)
    Blend: AUG-CC-PVTZ-JKFIT
	 Reference Energy          =    -431.8035335801849897 [Eh]
	 Singles Energy            =      -0.0000000000000000 [Eh]
	 Same-Spin Energy          =      -0.4500702348084007 [Eh]
	 Opposite-Spin Energy      =      -1.3715453362397181 [Eh]
	 Correlation Energy        =      -1.8216155710481188 [Eh]
	 Total Energy              =    -433.6251491512331313 [Eh]

	 ================> DF-SCS-MP2 Energies <==================
	-----------------------------------------------------------
	 SCS Same-Spin Scale       =       0.3333333333333333 [-]
	 SCS Opposite-Spin Scale   =       1.2000000000000000 [-]
	 SCS Same-Spin Energy      =      -0.1500234116028002 [Eh]
	 SCS Opposite-Spin Energy  =      -1.6458544034876617 [Eh]
	 SCS Correlation Energy    =      -1.7958778150904620 [Eh]
	 SCS Total Energy          =    -433.5994113952754674 [Eh]
	-----------------------------------------------------------

  Dipole Moment: [D]
     X:     1.7116      Y:     5.5342      Z:     0.7729     Total:     5.8442

*** Psi4 exiting successfully. Buy a developer a beer!
