                               Psi4 1.3.2 release

  ==> Input File <==

--------------------------------------------------------------------------
#psi4
#
memory 32 gb

molecule  {
0 1
  O       -1.4243350     1.8531120    -0.0084660
  N       -1.1176450    -0.4263010     0.0065070
  N        0.7429240     1.0712790     0.0095610
  N        2.8919430     0.2615640    -0.0759850
  C       -0.2733660    -1.4960510    -0.0007800
  C        1.0765330    -1.3300920    -0.0040440
  C       -0.6338910     0.9109410     0.0155220
  C       -2.5617390    -0.6507120     0.0005160
  C        1.5376510     0.0247200    -0.0002060
  H       -0.7522370    -2.4720050    -0.0099570
  H        1.7553550    -2.1750520    -0.0313920
  H       -2.8852441    -1.2506578     0.8547060
  H       -2.8803325    -1.2379069    -0.8642858
  H       -3.0263160     0.3321150     0.0069490
  H        3.5027140    -0.4263080     0.3467730
  H        3.1453740     1.2255370     0.1175850
units angstrom
no_reorient  #important for SAPT in psi4, default
symmetry c1  #important for SAPT in psi4, default
}

set PROPERTIES_ORIGIN ["COM"]
properties('MP2/aug-cc-pvtz', properties = ['dipole'])
--------------------------------------------------------------------------

    Molecular point group: c1
  Charge       = 0
  Multiplicity = 1
  Basis Set: AUG-CC-PVTZ
    Blend: AUG-CC-PVTZ
  Basis Set: (AUG-CC-PVTZ AUX)
    Blend: AUG-CC-PVTZ-JKFIT

    Orbital Energies [Eh]
    ---------------------

    Doubly Occupied:

       1A    -20.503935     2A    -15.626499     3A    -15.591809
       4A    -15.543958     5A    -11.372834     6A    -11.349626
       7A    -11.327605     8A    -11.270612     9A    -11.246351
      10A     -1.382952    11A     -1.296341    12A     -1.267690
      13A     -1.170971    14A     -1.072886    15A     -0.965652
      16A     -0.900057    17A     -0.854294    18A     -0.759513
      19A     -0.724547    20A     -0.687794    21A     -0.674419
      22A     -0.651281    23A     -0.622354    24A     -0.603258
      25A     -0.596182    26A     -0.575906    27A     -0.561481
      28A     -0.520877    29A     -0.475325    30A     -0.441475
      31A     -0.420205    32A     -0.387958    33A     -0.339242

  @DF-RHF Final Energy:  -431.80000904762994

   => Energetics <=

    Nuclear Repulsion Energy =            440.8134458621781846
    One-Electron Energy =               -1461.6551369836745380
    Two-Electron Energy =                 589.0416820738663546
    Total Energy =                       -431.8000090476299420
  Basis Set: (AUG-CC-PVTZ AUX)
    Blend: AUG-CC-PVTZ-RI
    Molecular point group: c1

    Geometry (in Angstrom), charge = 0, multiplicity = 1:

       Center              X                  Y                   Z               Mass
    ------------   -----------------  -----------------  -----------------  -----------------
         O           -1.432805989486     1.806820588360    -0.005118206123    15.994914619570
         N           -1.126115989486    -0.472592411640     0.009854793877    14.003074004430
         N            0.734453010514     1.024987588360     0.012908793877    14.003074004430
         N            2.883472010514     0.215272588360    -0.072637206123    14.003074004430
         C           -0.281836989486    -1.542342411640     0.002567793877    12.000000000000
         C            1.068062010514    -1.376383411640    -0.000696206123    12.000000000000
         C           -0.642361989486     0.864649588360     0.018869793877    12.000000000000
         C           -2.570209989486    -0.697003411640     0.003863793877    12.000000000000
         C            1.529180010514    -0.021571411640     0.003141793877    12.000000000000
         H           -0.760707989486    -2.518296411640    -0.006609206123     1.007825032230
         H            1.746884010514    -2.221343411640    -0.028044206123     1.007825032230
         H           -2.893715089486    -1.296949211640     0.858053793877     1.007825032230
         H           -2.888803489486    -1.284198311640    -0.860938006123     1.007825032230
         H           -3.034786989486     0.285823588360     0.010296793877     1.007825032230
         H            3.494243010514    -0.472599411640     0.350120793877     1.007825032230
         H            3.136903010514     1.179245588360     0.120932793877     1.007825032230

  Basis Set: AUG-CC-PVTZ
    Blend: AUG-CC-PVTZ
  Basis Set: (AUG-CC-PVTZ AUX)
    Blend: AUG-CC-PVTZ-JKFIT
	 Reference Energy          =    -431.8000090476299420 [Eh]
	 Singles Energy            =      -0.0000000000000000 [Eh]
	 Same-Spin Energy          =      -0.4503585274639287 [Eh]
	 Opposite-Spin Energy      =      -1.3721049153658507 [Eh]
	 Correlation Energy        =      -1.8224634428297795 [Eh]
	 Total Energy              =    -433.6224724904596997 [Eh]

	 ================> DF-SCS-MP2 Energies <==================
	-----------------------------------------------------------
	 SCS Same-Spin Scale       =       0.3333333333333333 [-]
	 SCS Opposite-Spin Scale   =       1.2000000000000000 [-]
	 SCS Same-Spin Energy      =      -0.1501195091546429 [Eh]
	 SCS Opposite-Spin Energy  =      -1.6465258984390208 [Eh]
	 SCS Correlation Energy    =      -1.7966454075936635 [Eh]
	 SCS Total Energy          =    -433.5966544552235860 [Eh]
	-----------------------------------------------------------

  Dipole Moment: [D]
     X:     1.7278      Y:    -5.6629      Z:     0.8321     Total:     5.9788

*** Psi4 exiting successfully. Buy a developer a beer!
