                               Psi4 1.3.2 release

  ==> Input File <==

--------------------------------------------------------------------------
#psi4
#
memory 32 gb

molecule  {
0 1
  O       -1.4243350     1.8531120    -0.0084660
  N       -1.1176450    -0.4263010     0.0065070
  N        0.7429240     1.0712790     0.0095610
  N        2.8919430     0.2615640    -0.0759850
  C       -0.2733660    -1.4960510    -0.0007800
  C        1.0765330    -1.3300920    -0.0040440
  C       -0.6364789     0.9349940     0.0156685
  C       -2.5617390    -0.6507120     0.0005160
  C        1.5557954     0.0387498    -0.0002184
  H       -0.7522370    -2.4720050    -0.0099570
  H        1.7553550    -2.1750520    -0.0313920
  H       -2.8635010    -1.2105310     0.8892080
  H       -2.8583950    -1.1972750    -0.8980640
  H       -3.0263160     0.3321150     0.0069490
  H        3.5027140    -0.4263080     0.3467730
  H        3.1453740     1.2255370     0.1175850
units angstrom
no_reorient  #important for SAPT in psi4, default
symmetry c1  #important for SAPT in psi4, default
}

set PROPERTIES_ORIGIN ["COM"]
properties('MP2/aug-cc-pvtz', properties = ['dipole'])
--------------------------------------------------------------------------

    Molecular point group: c1
  Charge       = 0
  Multiplicity = 1
  Basis Set: AUG-CC-PVTZ
    Blend: AUG-CC-PVTZ
  Basis Set: (AUG-CC-PVTZ AUX)
    Blend: AUG-CC-PVTZ-JKFIT

    Orbital Energies [Eh]
    ---------------------

    Doubly Occupied:

       1A    -20.508905     2A    -15.619486     3A    -15.594223
       4A    -15.540390     5A    -11.373132     6A    -11.349744
       7A    -11.323137     8A    -11.267702     9A    -11.243405
      10A     -1.390856    11A     -1.299356    12A     -1.267971
      13A     -1.172048    14A     -1.066745    15A     -0.960420
      16A     -0.891232    17A     -0.855180    18A     -0.758503
      19A     -0.723929    20A     -0.687726    21A     -0.674080
      22A     -0.651739    23A     -0.625026    24A     -0.600236
      25A     -0.591929    26A     -0.580548    27A     -0.557604
      28A     -0.527609    29A     -0.477413    30A     -0.444591
      31A     -0.414819    32A     -0.387011    33A     -0.336310

  @DF-RHF Final Energy:  -431.80111377875284

   => Energetics <=

    Nuclear Repulsion Energy =            440.6355018663670648
    One-Electron Energy =               -1461.3472200668331880
    Two-Electron Energy =                 588.9106044217132876
    Total Energy =                       -431.8011137787527787
  Basis Set: (AUG-CC-PVTZ AUX)
    Blend: AUG-CC-PVTZ-RI
    Molecular point group: c1

    Geometry (in Angstrom), charge = 0, multiplicity = 1:

       Center              X                  Y                   Z               Mass
    ------------   -----------------  -----------------  -----------------  -----------------
         O           -1.434650723289     1.802515543390    -0.005136906620    15.994914619570
         N           -1.127960723289    -0.476897456610     0.009836093380    14.003074004430
         N            0.732608276711     1.020682543390     0.012890093380    14.003074004430
         N            2.881627276711     0.210967543390    -0.072655906620    14.003074004430
         C           -0.283681723289    -1.546647456610     0.002549093380    12.000000000000
         C            1.066217276711    -1.380688456610    -0.000714906620    12.000000000000
         C           -0.646794623289     0.884397543390     0.018997593380    12.000000000000
         C           -2.572054723289    -0.701308456610     0.003845093380    12.000000000000
         C            1.545479676711    -0.011846656610     0.003110693380    12.000000000000
         H           -0.762552723289    -2.522601456610    -0.006627906620     1.007825032230
         H            1.745039276711    -2.225648456610    -0.028062906620     1.007825032230
         H           -2.873816723289    -1.261127456610     0.892537093380     1.007825032230
         H           -2.868710723289    -1.247871456610    -0.894734906620     1.007825032230
         H           -3.036631723289     0.281518543390     0.010278093380     1.007825032230
         H            3.492398276711    -0.476904456610     0.350102093380     1.007825032230
         H            3.135058276711     1.174940543390     0.120914093380     1.007825032230

  Basis Set: AUG-CC-PVTZ
    Blend: AUG-CC-PVTZ
  Basis Set: (AUG-CC-PVTZ AUX)
    Blend: AUG-CC-PVTZ-JKFIT
	 Reference Energy          =    -431.8011137787528355 [Eh]
	 Singles Energy            =      -0.0000000000000000 [Eh]
	 Same-Spin Energy          =      -0.4499459655174539 [Eh]
	 Opposite-Spin Energy      =      -1.3713563714235963 [Eh]
	 Correlation Energy        =      -1.8213023369410504 [Eh]
	 Total Energy              =    -433.6224161156939090 [Eh]

	 ================> DF-SCS-MP2 Energies <==================
	-----------------------------------------------------------
	 SCS Same-Spin Scale       =       0.3333333333333333 [-]
	 SCS Opposite-Spin Scale   =       1.2000000000000000 [-]
	 SCS Same-Spin Energy      =      -0.1499819885058180 [Eh]
	 SCS Opposite-Spin Energy  =      -1.6456276457083157 [Eh]
	 SCS Correlation Energy    =      -1.7956096342141337 [Eh]
	 SCS Total Energy          =    -433.5967234129669805 [Eh]
	-----------------------------------------------------------

  Dipole Moment: [D]
     X:     1.8149      Y:    -5.3496      Z:     0.8276     Total:     5.7094

*** Psi4 exiting successfully. Buy a developer a beer!
