                               Psi4 1.3.2 release

  ==> Input File <==

--------------------------------------------------------------------------
#psi4
#
memory 32 gb

molecule  {
0 1
  O       -1.4243350     1.8531120    -0.0084660
  N       -1.1176450    -0.4263010     0.0065070
  N        0.7429240     1.0712790     0.0095610
  N        2.8919430     0.2615640    -0.0759850
  C       -0.2733660    -1.4960510    -0.0007800
  C        1.0765330    -1.3300920    -0.0040440
  C       -0.5696307     0.8343459     0.0174721
  C       -2.5617390    -0.6507120     0.0005160
  C        1.5376510     0.0247200    -0.0002060
  H       -0.7522370    -2.4720050    -0.0099570
  H        1.7553550    -2.1750520    -0.0313920
  H       -2.8635010    -1.2105310     0.8892080
  H       -2.8583950    -1.1972750    -0.8980640
  H       -3.0263160     0.3321150     0.0069490
  H        3.5027140    -0.4263080     0.3467730
  H        3.1453740     1.2255370     0.1175850
units angstrom
no_reorient  #important for SAPT in psi4, default
symmetry c1  #important for SAPT in psi4, default
}

set PROPERTIES_ORIGIN ["COM"]
properties('MP2/aug-cc-pvtz', properties = ['dipole'])
--------------------------------------------------------------------------

    Molecular point group: c1
  Charge       = 0
  Multiplicity = 1
  Basis Set: AUG-CC-PVTZ
    Blend: AUG-CC-PVTZ
  Basis Set: (AUG-CC-PVTZ AUX)
    Blend: AUG-CC-PVTZ-JKFIT

    Orbital Energies [Eh]
    ---------------------

    Doubly Occupied:

       1A    -20.475717     2A    -15.636199     3A    -15.599137
       4A    -15.552567     5A    -11.366954     6A    -11.358070
       7A    -11.333878     8A    -11.274178     9A    -11.255378
      10A     -1.369875    11A     -1.284226    12A     -1.252246
      13A     -1.185899    14A     -1.079354    15A     -0.975844
      16A     -0.912213    17A     -0.863741    18A     -0.768523
      19A     -0.730150    20A     -0.693624    21A     -0.679743
      22A     -0.662320    23A     -0.621522    24A     -0.609530
      25A     -0.586975    26A     -0.575343    27A     -0.541730
      28A     -0.516704    29A     -0.462427    30A     -0.443606
      31A     -0.401508    32A     -0.392289    33A     -0.338137

  @DF-RHF Final Energy:  -431.78169650917346

   => Energetics <=

    Nuclear Repulsion Energy =            441.5522608556492514
    One-Electron Energy =               -1463.0687055774114924
    Two-Electron Energy =                 589.7347482125887836
    Total Energy =                       -431.7816965091734573
  Basis Set: (AUG-CC-PVTZ AUX)
    Blend: AUG-CC-PVTZ-RI
    Molecular point group: c1

    Geometry (in Angstrom), charge = 0, multiplicity = 1:

       Center              X                  Y                   Z               Mass
    ------------   -----------------  -----------------  -----------------  -----------------
         O           -1.439324085558     1.813519435712    -0.005311160495    15.994914619570
         N           -1.132634085558    -0.465893564288     0.009661839505    14.003074004430
         N            0.727934914442     1.031686435712     0.012715839505    14.003074004430
         N            2.876953914442     0.221971435712    -0.072830160495    14.003074004430
         C           -0.288355085558    -1.535643564288     0.002374839505    12.000000000000
         C            1.061543914442    -1.369684564288    -0.000889160495    12.000000000000
         C           -0.584619785558     0.794753335712     0.020626939505    12.000000000000
         C           -2.576728085558    -0.690304564288     0.003670839505    12.000000000000
         C            1.522661914442    -0.014872564288     0.002948839505    12.000000000000
         H           -0.767226085558    -2.511597564288    -0.006802160495     1.007825032230
         H            1.740365914442    -2.214644564288    -0.028237160495     1.007825032230
         H           -2.878490085558    -1.250123564288     0.892362839505     1.007825032230
         H           -2.873384085558    -1.236867564288    -0.894909160495     1.007825032230
         H           -3.041305085558     0.292522435712     0.010103839505     1.007825032230
         H            3.487724914442    -0.465900564288     0.349927839505     1.007825032230
         H            3.130384914442     1.185944435712     0.120739839505     1.007825032230

  Basis Set: AUG-CC-PVTZ
    Blend: AUG-CC-PVTZ
  Basis Set: (AUG-CC-PVTZ AUX)
    Blend: AUG-CC-PVTZ-JKFIT
	 Reference Energy          =    -431.7816965091734573 [Eh]
	 Singles Energy            =      -0.0000000000000000 [Eh]
	 Same-Spin Energy          =      -0.4519862956446634 [Eh]
	 Opposite-Spin Energy      =      -1.3746734778908860 [Eh]
	 Correlation Energy        =      -1.8266597735355494 [Eh]
	 Total Energy              =    -433.6083562827089963 [Eh]

	 ================> DF-SCS-MP2 Energies <==================
	-----------------------------------------------------------
	 SCS Same-Spin Scale       =       0.3333333333333333 [-]
	 SCS Opposite-Spin Scale   =       1.2000000000000000 [-]
	 SCS Same-Spin Energy      =      -0.1506620985482211 [Eh]
	 SCS Opposite-Spin Energy  =      -1.6496081734690631 [Eh]
	 SCS Correlation Energy    =      -1.8002702720172843 [Eh]
	 SCS Total Energy          =    -433.5819667811907152 [Eh]
	-----------------------------------------------------------

  Dipole Moment: [D]
     X:     2.3681      Y:    -6.4372      Z:     0.8332     Total:     6.9094

*** Psi4 exiting successfully. Buy a developer a beer!
