                               Psi4 1.3.2 release

  ==> Input File <==

--------------------------------------------------------------------------
#psi4
#
memory 32 gb

molecule  {
0 1
  O       -1.4243350     1.8531120    -0.0084660
  N       -1.1176450    -0.4263010     0.0065070
  N        0.7429240     1.0712790     0.0095610
  N        2.8919430     0.2615640    -0.0759850
  C       -0.2733660    -1.4960510    -0.0007800
  C        1.0765330    -1.3300920    -0.0040440
  C       -0.6338910     0.9109410     0.0155220
  C       -2.5617390    -0.6507120     0.0005160
  C        1.5522202    -0.0362014     0.0354728
  H       -0.7522370    -2.4720050    -0.0099570
  H        1.7553550    -2.1750520    -0.0313920
  H       -2.8635010    -1.2105310     0.8892080
  H       -2.8583950    -1.1972750    -0.8980640
  H       -3.0263160     0.3321150     0.0069490
  H        3.4596706    -0.4539105     0.3607243
  H        3.1453740     1.2255370     0.1175850
units angstrom
no_reorient  #important for SAPT in psi4, default
symmetry c1  #important for SAPT in psi4, default
}

set PROPERTIES_ORIGIN ["COM"]
properties('MP2/aug-cc-pvtz', properties = ['dipole'])
--------------------------------------------------------------------------

    Molecular point group: c1
  Charge       = 0
  Multiplicity = 1
  Basis Set: AUG-CC-PVTZ
    Blend: AUG-CC-PVTZ
  Basis Set: (AUG-CC-PVTZ AUX)
    Blend: AUG-CC-PVTZ-JKFIT

    Orbital Energies [Eh]
    ---------------------

    Doubly Occupied:

       1A    -20.497859     2A    -15.629776     3A    -15.593703
       4A    -15.541654     5A    -11.366362     6A    -11.349092
       7A    -11.335230     8A    -11.271791     9A    -11.245030
      10A     -1.378655    11A     -1.293687    12A     -1.266111
      13A     -1.158152    14A     -1.081228    15A     -0.968244
      16A     -0.906239    17A     -0.846508    18A     -0.760983
      19A     -0.726821    20A     -0.684393    21A     -0.669206
      22A     -0.655538    23A     -0.628620    24A     -0.605622
      25A     -0.587643    26A     -0.575788    27A     -0.559675
      28A     -0.522127    29A     -0.476426    30A     -0.436012
      31A     -0.416876    32A     -0.382522    33A     -0.339450

  @DF-RHF Final Energy:  -431.79132980980933

   => Energetics <=

    Nuclear Repulsion Energy =            440.7064188870052703
    One-Electron Energy =               -1461.4814489400503135
    Two-Electron Energy =                 588.9837002432357167
    Total Energy =                       -431.7913298098093264
  Basis Set: (AUG-CC-PVTZ AUX)
    Blend: AUG-CC-PVTZ-RI
    Molecular point group: c1

    Geometry (in Angstrom), charge = 0, multiplicity = 1:

       Center              X                  Y                   Z               Mass
    ------------   -----------------  -----------------  -----------------  -----------------
         O           -1.434209108892     1.812237912411    -0.008660021149    15.994914619570
         N           -1.127519108892    -0.467175087589     0.006312978851    14.003074004430
         N            0.733049891108     1.030404912411     0.009366978851    14.003074004430
         N            2.882068891108     0.220689912411    -0.076179021149    14.003074004430
         C           -0.283240108892    -1.536925087589    -0.000974021149    12.000000000000
         C            1.066658891108    -1.370966087589    -0.004238021149    12.000000000000
         C           -0.643765108892     0.870066912411     0.015327978851    12.000000000000
         C           -2.571613108892    -0.691586087589     0.000321978851    12.000000000000
         C            1.542346091108    -0.077075487589     0.035278778851    12.000000000000
         H           -0.762111108892    -2.512879087589    -0.010151021149     1.007825032230
         H            1.745480891108    -2.215926087589    -0.031586021149     1.007825032230
         H           -2.873375108892    -1.251405087589     0.889013978851     1.007825032230
         H           -2.868269108892    -1.238149087589    -0.898258021149     1.007825032230
         H           -3.036190108892     0.291240912411     0.006754978851     1.007825032230
         H            3.449796491108    -0.494784587589     0.360530278851     1.007825032230
         H            3.135499891108     1.184662912411     0.117390978851     1.007825032230

  Basis Set: AUG-CC-PVTZ
    Blend: AUG-CC-PVTZ
  Basis Set: (AUG-CC-PVTZ AUX)
    Blend: AUG-CC-PVTZ-JKFIT
	 Reference Energy          =    -431.7913298098093264 [Eh]
	 Singles Energy            =      -0.0000000000000000 [Eh]
	 Same-Spin Energy          =      -0.4518759503276798 [Eh]
	 Opposite-Spin Energy      =      -1.3741577026675507 [Eh]
	 Correlation Energy        =      -1.8260336529952306 [Eh]
	 Total Energy              =    -433.6173634628045761 [Eh]

	 ================> DF-SCS-MP2 Energies <==================
	-----------------------------------------------------------
	 SCS Same-Spin Scale       =       0.3333333333333333 [-]
	 SCS Opposite-Spin Scale   =       1.2000000000000000 [-]
	 SCS Same-Spin Energy      =      -0.1506253167758932 [Eh]
	 SCS Opposite-Spin Energy  =      -1.6489892432010607 [Eh]
	 SCS Correlation Energy    =      -1.7996145599769540 [Eh]
	 SCS Total Energy          =    -433.5909443697862571 [Eh]
	-----------------------------------------------------------

  Dipole Moment: [D]
     X:     1.6527      Y:    -5.9130      Z:     0.8627     Total:     6.1999

*** Psi4 exiting successfully. Buy a developer a beer!
