                               Psi4 1.4a3.dev225

  ==> Input File <==

--------------------------------------------------------------------------
#psi4
#
memory 32 gb

molecule  {
0 1
  O       -1.4602810    -1.8042760    -0.0008590
  N       -1.1067000     0.4494610     0.0014260
  N        0.7338450    -1.0777760     0.0056990
  N        2.8872480    -0.2944040    -0.0665390
  C       -0.2576190     1.5082170    -0.0002850
  C        1.0914800     1.3228940    -0.0047970
  C       -0.6316600    -0.8954310    -0.0014820
  C       -2.5364871     0.6170684     0.0048563
  C        1.5404980    -0.0347530    -0.0000590
  H       -0.7147670     2.4940890    -0.0022110
  H        1.7746080     2.1637920    -0.0246520
  H       -2.7835150     1.6863950     0.0041520
  H       -2.9802500     0.1433220     0.8903410
  H       -2.9840040     0.1411790    -0.8774920
  H        3.5206970     0.4000120     0.3068300
  H        3.1306380    -1.2574880     0.1361150
units angstrom
no_reorient  #important for SAPT in psi4, default
symmetry c1  #important for SAPT in psi4, default
}

set PROPERTIES_ORIGIN ["COM"]
properties('MP2/aug-cc-pvtz', properties = ['dipole'])
--------------------------------------------------------------------------

    Molecular point group: c1
  Charge       = 0
  Multiplicity = 1
  Basis Set: AUG-CC-PVTZ
    Blend: AUG-CC-PVTZ
  Basis Set: (AUG-CC-PVTZ AUX)
    Blend: AUG-CC-PVTZ-JKFIT

    Orbital Energies [Eh]
    ---------------------

    Doubly Occupied:

       1A    -20.503636     2A    -15.626709     3A    -15.592044
       4A    -15.543032     5A    -11.369790     6A    -11.350070
       7A    -11.328750     8A    -11.273083     9A    -11.244099
      10A     -1.384598    11A     -1.296736    12A     -1.270194
      13A     -1.172611    14A     -1.074008    15A     -0.964390
      16A     -0.899813    17A     -0.855376    18A     -0.760520
      19A     -0.725424    20A     -0.689154    21A     -0.675119
      22A     -0.656233    23A     -0.623178    24A     -0.603393
      25A     -0.590902    26A     -0.574792    27A     -0.562874
      28A     -0.516157    29A     -0.479795    30A     -0.443073
      31A     -0.419161    32A     -0.385226    33A     -0.338012

  @DF-RHF Final Energy:  -431.80281574534058

   => Energetics <=

    Nuclear Repulsion Energy =            441.9936653446877131
    One-Electron Energy =               -1464.0090555556128038
    Two-Electron Energy =                 590.2125744655844528
    Total Energy =                       -431.8028157453405811
  Basis Set: (AUG-CC-PVTZ AUX)
    Blend: AUG-CC-PVTZ-RI
    Molecular point group: c1

    Geometry (in Angstrom), charge = 0, multiplicity = 1:

       Center              X                  Y                   Z               Mass
    ------------   -----------------  -----------------  -----------------  -----------------
         O           -1.470532166806    -1.758315768053     0.002582952083    15.994914619570
         N           -1.116951166806     0.495421231947     0.004867952083    14.003074004430
         N            0.723593833194    -1.031815768053     0.009140952083    14.003074004430
         N            2.876996833194    -0.248443768053    -0.063097047917    14.003074004430
         C           -0.267870166806     1.554177231947     0.003156952083    12.000000000000
         C            1.081228833194     1.368854231947    -0.001355047917    12.000000000000
         C           -0.641911166806    -0.849470768053     0.001959952083    12.000000000000
         C           -2.546738266806     0.663028631947     0.008298252083    12.000000000000
         C            1.530246833194     0.011207231947     0.003382952083    12.000000000000
         H           -0.725018166806     2.540049231947     0.001230952083     1.007825032230
         H            1.764356833194     2.209752231947    -0.021210047917     1.007825032230
         H           -2.793766166806     1.732355231947     0.007593952083     1.007825032230
         H           -2.990501166806     0.189282231947     0.893782952083     1.007825032230
         H           -2.994255166806     0.187139231947    -0.874050047917     1.007825032230
         H            3.510445833194     0.445972231947     0.310271952083     1.007825032230
         H            3.120386833194    -1.211527768053     0.139556952083     1.007825032230

  Basis Set: AUG-CC-PVTZ
    Blend: AUG-CC-PVTZ
  Basis Set: (AUG-CC-PVTZ AUX)
    Blend: AUG-CC-PVTZ-JKFIT
	 Reference Energy          =    -431.8028157453405811 [Eh]
	 Singles Energy            =      -0.0000000000000000 [Eh]
	 Same-Spin Energy          =      -0.4505594750267562 [Eh]
	 Opposite-Spin Energy      =      -1.3719790126454325 [Eh]
	 Correlation Energy        =      -1.8225384876721886 [Eh]
	 Total Energy              =    -433.6253542330127857 [Eh]

	 ================> DF-SCS-MP2 Energies <==================
	-----------------------------------------------------------
	 SCS Same-Spin Scale       =       0.3333333333333333 [-]
	 SCS Opposite-Spin Scale   =       1.2000000000000000 [-]
	 SCS Same-Spin Energy      =      -0.1501864916755854 [Eh]
	 SCS Opposite-Spin Energy  =      -1.6463748151745190 [Eh]
	 SCS Correlation Energy    =      -1.7965613068501043 [Eh]
	 SCS Total Energy          =    -433.5993770521906754 [Eh]
	-----------------------------------------------------------

  Dipole Moment: [D]
     X:     1.8648      Y:     5.5952      Z:     0.7689     Total:     5.9477

*** Psi4 exiting successfully. Buy a developer a beer!
