                               Psi4 1.3.2 release

  ==> Input File <==

--------------------------------------------------------------------------
#psi4
#
memory 32 gb

molecule  {
0 1
  O       -1.4243350     1.8531120    -0.0084660
  N       -1.1176450    -0.4263010     0.0065070
  N        0.7429240     1.0712790     0.0095610
  N        2.8919430     0.2615640    -0.0759850
  C       -0.3305104    -1.5387681    -0.0013211
  C        1.0765330    -1.3300920    -0.0040440
  C       -0.6338910     0.9109410     0.0155220
  C       -2.5480129    -0.7259800    -0.0001224
  C        1.5376510     0.0247200    -0.0002060
  H       -0.7522370    -2.4720050    -0.0099570
  H        1.7553550    -2.1750520    -0.0313920
  H       -2.8635010    -1.2105310     0.8892080
  H       -2.8583950    -1.1972750    -0.8980640
  H       -3.0263160     0.3321150     0.0069490
  H        3.5027140    -0.4263080     0.3467730
  H        3.1453740     1.2255370     0.1175850
units angstrom
no_reorient  #important for SAPT in psi4, default
symmetry c1  #important for SAPT in psi4, default
}

set PROPERTIES_ORIGIN ["COM"]
properties('MP2/aug-cc-pvtz', properties = ['dipole'])
--------------------------------------------------------------------------

    Molecular point group: c1
  Charge       = 0
  Multiplicity = 1
  Basis Set: AUG-CC-PVTZ
    Blend: AUG-CC-PVTZ
  Basis Set: (AUG-CC-PVTZ AUX)
    Blend: AUG-CC-PVTZ-JKFIT

    Orbital Energies [Eh]
    ---------------------

    Doubly Occupied:

       1A    -20.505228     2A    -15.629858     3A    -15.589954
       4A    -15.543849     5A    -11.375718     6A    -11.348174
       7A    -11.332281     8A    -11.270142     9A    -11.250024
      10A     -1.383210    11A     -1.295757    12A     -1.269266
      13A     -1.170554    14A     -1.059045    15A     -0.965154
      16A     -0.910905    17A     -0.850829    18A     -0.755932
      19A     -0.730727    20A     -0.686009    21A     -0.680921
      22A     -0.664751    23A     -0.624862    24A     -0.605035
      25A     -0.589984    26A     -0.584197    27A     -0.530090
      28A     -0.524099    29A     -0.475249    30A     -0.440251
      31A     -0.422345    32A     -0.387810    33A     -0.332153

  @DF-RHF Final Energy:  -431.78260576340585

   => Energetics <=

    Nuclear Repulsion Energy =            439.7594290852446761
    One-Electron Energy =               -1459.5153412113802460
    Two-Electron Energy =                 587.9733063627297724
    Total Energy =                       -431.7826057634058543
  Basis Set: (AUG-CC-PVTZ AUX)
    Blend: AUG-CC-PVTZ-RI
    Molecular point group: c1

    Geometry (in Angstrom), charge = 0, multiplicity = 1:

       Center              X                  Y                   Z               Mass
    ------------   -----------------  -----------------  -----------------  -----------------
         O           -1.428991809506     1.817491003932    -0.005010860425    15.994914619570
         N           -1.122301809506    -0.461921996068     0.009962139575    14.003074004430
         N            0.738267190494     1.035658003932     0.013016139575    14.003074004430
         N            2.887286190494     0.225943003932    -0.072529860425    14.003074004430
         C           -0.335167209506    -1.574389096068     0.002134039575    12.000000000000
         C            1.071876190494    -1.365712996068    -0.000588860425    12.000000000000
         C           -0.638547809506     0.875320003932     0.018977139575    12.000000000000
         C           -2.552669709506    -0.761600996068     0.003332739575    12.000000000000
         C            1.532994190494    -0.010900996068     0.003249139575    12.000000000000
         H           -0.756893809506    -2.507625996068    -0.006501860425     1.007825032230
         H            1.750698190494    -2.210672996068    -0.027936860425     1.007825032230
         H           -2.868157809506    -1.246151996068     0.892663139575     1.007825032230
         H           -2.863051809506    -1.232895996068    -0.894608860425     1.007825032230
         H           -3.030972809506     0.296494003932     0.010404139575     1.007825032230
         H            3.498057190494    -0.461928996068     0.350228139575     1.007825032230
         H            3.140717190494     1.189916003932     0.121040139575     1.007825032230

  Basis Set: AUG-CC-PVTZ
    Blend: AUG-CC-PVTZ
  Basis Set: (AUG-CC-PVTZ AUX)
    Blend: AUG-CC-PVTZ-JKFIT
	 Reference Energy          =    -431.7826057634058543 [Eh]
	 Singles Energy            =      -0.0000000000000000 [Eh]
	 Same-Spin Energy          =      -0.4517081545999624 [Eh]
	 Opposite-Spin Energy      =      -1.3747487500098934 [Eh]
	 Correlation Energy        =      -1.8264569046098558 [Eh]
	 Total Energy              =    -433.6090626680157243 [Eh]

	 ================> DF-SCS-MP2 Energies <==================
	-----------------------------------------------------------
	 SCS Same-Spin Scale       =       0.3333333333333333 [-]
	 SCS Opposite-Spin Scale   =       1.2000000000000000 [-]
	 SCS Same-Spin Energy      =      -0.1505693848666541 [Eh]
	 SCS Opposite-Spin Energy  =      -1.6496985000118720 [Eh]
	 SCS Correlation Energy    =      -1.8002678848785261 [Eh]
	 SCS Total Energy          =    -433.5828736482843624 [Eh]
	-----------------------------------------------------------

  Dipole Moment: [D]
     X:     1.6264      Y:    -5.6476      Z:     0.8318     Total:     5.9357

*** Psi4 exiting successfully. Buy a developer a beer!
