                               Psi4 1.3.2 release

  ==> Input File <==

--------------------------------------------------------------------------
#psi4
#
memory 32 gb

molecule  {
0 1
  O       -1.4243350     1.8531120    -0.0084660
  N       -1.1176450    -0.4263010     0.0065070
  N        0.7429240     1.0712790     0.0095610
  N        2.8919430     0.2615640    -0.0759850
  C       -0.2733660    -1.4960510    -0.0007800
  C        1.0765330    -1.3300920    -0.0040440
  C       -0.5345632     0.9225083     0.0150920
  C       -2.5617390    -0.6507120     0.0005160
  C        1.5376510     0.0247200    -0.0002060
  H       -0.7522370    -2.4720050    -0.0099570
  H        1.7553550    -2.1750520    -0.0313920
  H       -2.8635010    -1.2105310     0.8892080
  H       -2.8583950    -1.1972750    -0.8980640
  H       -3.0263160     0.3321150     0.0069490
  H        3.5027140    -0.4263080     0.3467730
  H        3.1453740     1.2255370     0.1175850
units angstrom
no_reorient  #important for SAPT in psi4, default
symmetry c1  #important for SAPT in psi4, default
}

set PROPERTIES_ORIGIN ["COM"]
properties('MP2/aug-cc-pvtz', properties = ['dipole'])
--------------------------------------------------------------------------

    Molecular point group: c1
  Charge       = 0
  Multiplicity = 1
  Basis Set: AUG-CC-PVTZ
    Blend: AUG-CC-PVTZ
  Basis Set: (AUG-CC-PVTZ AUX)
    Blend: AUG-CC-PVTZ-JKFIT

    Orbital Energies [Eh]
    ---------------------

    Doubly Occupied:

       1A    -20.485981     2A    -15.624500     3A    -15.601106
       4A    -15.547936     5A    -11.370087     6A    -11.363300
       7A    -11.329878     8A    -11.267752     9A    -11.247187
      10A     -1.365648    11A     -1.287639    12A     -1.259577
      13A     -1.196971    14A     -1.074530    15A     -0.964128
      16A     -0.891958    17A     -0.874081    18A     -0.764060
      19A     -0.726368    20A     -0.688798    21A     -0.678265
      22A     -0.651002    23A     -0.617841    24A     -0.602064
      25A     -0.590986    26A     -0.584561    27A     -0.549574
      28A     -0.514131    29A     -0.472677    30A     -0.437176
      31A     -0.412403    32A     -0.392938    33A     -0.337083

  @DF-RHF Final Energy:  -431.78614030951923

   => Energetics <=

    Nuclear Repulsion Energy =            441.0367378819030932
    One-Electron Energy =               -1462.1013793828412872
    Two-Electron Energy =                 589.2785011914189681
    Total Energy =                       -431.7861403095192827
  Basis Set: (AUG-CC-PVTZ AUX)
    Blend: AUG-CC-PVTZ-RI
    Molecular point group: c1

    Geometry (in Angstrom), charge = 0, multiplicity = 1:

       Center              X                  Y                   Z               Mass
    ------------   -----------------  -----------------  -----------------  -----------------
         O           -1.442688979700     1.805059832280    -0.005082778530    15.994914619570
         N           -1.135998979700    -0.474353167720     0.009890221470    14.003074004430
         N            0.724570020300     1.023226832280     0.012944221470    14.003074004430
         N            2.873589020300     0.213511832280    -0.072601778530    14.003074004430
         C           -0.291719979700    -1.544103167720     0.002603221470    12.000000000000
         C            1.058179020300    -1.378144167720    -0.000660778530    12.000000000000
         C           -0.552917179700     0.874456132280     0.018475221470    12.000000000000
         C           -2.580092979700    -0.698764167720     0.003899221470    12.000000000000
         C            1.519297020300    -0.023332167720     0.003177221470    12.000000000000
         H           -0.770590979700    -2.520057167720    -0.006573778530     1.007825032230
         H            1.737001020300    -2.223104167720    -0.028008778530     1.007825032230
         H           -2.881854979700    -1.258583167720     0.892591221470     1.007825032230
         H           -2.876748979700    -1.245327167720    -0.894680778530     1.007825032230
         H           -3.044669979700     0.284062832280     0.010332221470     1.007825032230
         H            3.484360020300    -0.474360167720     0.350156221470     1.007825032230
         H            3.127020020300     1.177484832280     0.120968221470     1.007825032230

  Basis Set: AUG-CC-PVTZ
    Blend: AUG-CC-PVTZ
  Basis Set: (AUG-CC-PVTZ AUX)
    Blend: AUG-CC-PVTZ-JKFIT
	 Reference Energy          =    -431.7861403095192259 [Eh]
	 Singles Energy            =      -0.0000000000000000 [Eh]
	 Same-Spin Energy          =      -0.4517846737360190 [Eh]
	 Opposite-Spin Energy      =      -1.3734203784981087 [Eh]
	 Correlation Energy        =      -1.8252050522341277 [Eh]
	 Total Energy              =    -433.6113453617533651 [Eh]

	 ================> DF-SCS-MP2 Energies <==================
	-----------------------------------------------------------
	 SCS Same-Spin Scale       =       0.3333333333333333 [-]
	 SCS Opposite-Spin Scale   =       1.2000000000000000 [-]
	 SCS Same-Spin Energy      =      -0.1505948912453397 [Eh]
	 SCS Opposite-Spin Energy  =      -1.6481044541977303 [Eh]
	 SCS Correlation Energy    =      -1.7986993454430700 [Eh]
	 SCS Total Energy          =    -433.5848396549623089 [Eh]
	-----------------------------------------------------------

  Dipole Moment: [D]
     X:     2.4179      Y:    -5.8803      Z:     0.8268     Total:     6.4115

*** Psi4 exiting successfully. Buy a developer a beer!
