                               Psi4 1.3.2 release

  ==> Input File <==

--------------------------------------------------------------------------
#psi4
#
memory 32 gb

molecule  {
0 1
  O       -1.4243350     1.8531120    -0.0084660
  N       -1.1176450    -0.4263010     0.0065070
  N        0.7429240     1.0712790     0.0095610
  N        2.8919430     0.2615640    -0.0759850
  C       -0.2733660    -1.4960510    -0.0007800
  C        1.0765330    -1.3300920    -0.0040440
  C       -0.6338910     0.9109410     0.0155220
  C       -2.5617390    -0.6507120     0.0005160
  C        1.5376510     0.0247200    -0.0002060
  H       -0.7522370    -2.4720050    -0.0099570
  H        1.7553550    -2.1750520    -0.0313920
  H       -2.8635010    -1.2105310     0.8892080
  H       -2.8583950    -1.1972750    -0.8980640
  H       -3.0263160     0.3321150     0.0069490
  H        3.3820548    -0.2904173     0.2632562
  H        3.1453740     1.2255370     0.1175850
units angstrom
no_reorient  #important for SAPT in psi4, default
symmetry c1  #important for SAPT in psi4, default
}

set PROPERTIES_ORIGIN ["COM"]
properties('MP2/aug-cc-pvtz', properties = ['dipole'])
--------------------------------------------------------------------------

    Molecular point group: c1
  Charge       = 0
  Multiplicity = 1
  Basis Set: AUG-CC-PVTZ
    Blend: AUG-CC-PVTZ
  Basis Set: (AUG-CC-PVTZ AUX)
    Blend: AUG-CC-PVTZ-JKFIT

    Orbital Energies [Eh]
    ---------------------

    Doubly Occupied:

       1A    -20.504208     2A    -15.626391     3A    -15.569770
       4A    -15.544304     5A    -11.372791     6A    -11.349976
       7A    -11.328295     8A    -11.271068     9A    -11.246955
      10A     -1.383437    11A     -1.306036    12A     -1.279011
      13A     -1.190416    14A     -1.074306    15A     -0.970307
      16A     -0.900529    17A     -0.870914    18A     -0.771168
      19A     -0.733643    20A     -0.705019    21A     -0.681477
      22A     -0.656401    23A     -0.622931    24A     -0.604135
      25A     -0.593816    26A     -0.581242    27A     -0.559772
      28A     -0.524132    29A     -0.477194    30A     -0.441566
      31A     -0.420611    32A     -0.390903    33A     -0.339726

  @DF-RHF Final Energy:  -431.75552603961796

   => Energetics <=

    Nuclear Repulsion Energy =            442.1909125565691738
    One-Electron Energy =               -1464.1079800515906300
    Two-Electron Energy =                 590.1615414554034942
    Total Energy =                       -431.7555260396179619
  Basis Set: (AUG-CC-PVTZ AUX)
    Blend: AUG-CC-PVTZ-RI
    Molecular point group: c1

    Geometry (in Angstrom), charge = 0, multiplicity = 1:

       Center              X                  Y                   Z               Mass
    ------------   -----------------  -----------------  -----------------  -----------------
         O           -1.432185634176     1.805074653702    -0.004450993714    15.994914619570
         N           -1.125495634176    -0.474338346298     0.010522006286    14.003074004430
         N            0.735073365824     1.023241653702     0.013576006286    14.003074004430
         N            2.884092365824     0.213526653702    -0.071969993714    14.003074004430
         C           -0.281216634176    -1.544088346298     0.003235006286    12.000000000000
         C            1.068682365824    -1.378129346298    -0.000028993714    12.000000000000
         C           -0.641741634176     0.862903653702     0.019537006286    12.000000000000
         C           -2.569589634176    -0.698749346298     0.004531006286    12.000000000000
         C            1.529800365824    -0.023317346298     0.003809006286    12.000000000000
         H           -0.760087634176    -2.520042346298    -0.005941993714     1.007825032230
         H            1.747504365824    -2.223089346298    -0.027376993714     1.007825032230
         H           -2.871351634176    -1.258568346298     0.893223006286     1.007825032230
         H           -2.866245634176    -1.245312346298    -0.894048993714     1.007825032230
         H           -3.034166634176     0.284077653702     0.010964006286     1.007825032230
         H            3.374204165824    -0.338454646298     0.267271206286     1.007825032230
         H            3.137523365824     1.177499653702     0.121600006286     1.007825032230

  Basis Set: AUG-CC-PVTZ
    Blend: AUG-CC-PVTZ
  Basis Set: (AUG-CC-PVTZ AUX)
    Blend: AUG-CC-PVTZ-JKFIT
	 Reference Energy          =    -431.7555260396179619 [Eh]
	 Singles Energy            =      -0.0000000000000000 [Eh]
	 Same-Spin Energy          =      -0.4494206012836562 [Eh]
	 Opposite-Spin Energy      =      -1.3696834387472610 [Eh]
	 Correlation Energy        =      -1.8191040400309171 [Eh]
	 Total Energy              =    -433.5746300796488981 [Eh]

	 ================> DF-SCS-MP2 Energies <==================
	-----------------------------------------------------------
	 SCS Same-Spin Scale       =       0.3333333333333333 [-]
	 SCS Opposite-Spin Scale   =       1.2000000000000000 [-]
	 SCS Same-Spin Energy      =      -0.1498068670945520 [Eh]
	 SCS Opposite-Spin Energy  =      -1.6436201264967132 [Eh]
	 SCS Correlation Energy    =      -1.7934269935912652 [Eh]
	 SCS Total Energy          =    -433.5489530332092158 [Eh]
	-----------------------------------------------------------

  Dipole Moment: [D]
     X:     1.5500      Y:    -5.5445      Z:     0.7819     Total:     5.8099

*** Psi4 exiting successfully. Buy a developer a beer!
