                               Psi4 1.4a3.dev225

  ==> Input File <==

--------------------------------------------------------------------------
#psi4
#
memory 32 gb

molecule  {
0 1
  O       -1.4602810    -1.8042760    -0.0008590
  N       -1.1067000     0.4494610     0.0014260
  N        0.7338450    -1.0777760     0.0056990
  N        2.8872480    -0.2944040    -0.0665390
  C       -0.2576190     1.5082170    -0.0002850
  C        1.0914800     1.3228940    -0.0047970
  C       -0.6316600    -0.8954310    -0.0014820
  C       -2.5563510     0.6193970     0.0049040
  C        1.5342179    -0.0157647    -0.0001253
  H       -0.7147670     2.4940890    -0.0022110
  H        1.7746080     2.1637920    -0.0246520
  H       -2.7835150     1.6863950     0.0041520
  H       -2.9802500     0.1433220     0.8903410
  H       -2.9840040     0.1411790    -0.8774920
  H        3.5206970     0.4000120     0.3068300
  H        3.1306380    -1.2574880     0.1361150
units angstrom
no_reorient  #important for SAPT in psi4, default
symmetry c1  #important for SAPT in psi4, default
}

set PROPERTIES_ORIGIN ["COM"]
properties('MP2/aug-cc-pvtz', properties = ['dipole'])
--------------------------------------------------------------------------

    Molecular point group: c1
  Charge       = 0
  Multiplicity = 1
  Basis Set: AUG-CC-PVTZ
    Blend: AUG-CC-PVTZ
  Basis Set: (AUG-CC-PVTZ AUX)
    Blend: AUG-CC-PVTZ-JKFIT

    Orbital Energies [Eh]
    ---------------------

    Doubly Occupied:

       1A    -20.501932     2A    -15.628224     3A    -15.590138
       4A    -15.542794     5A    -11.368119     6A    -11.349230
       7A    -11.330932     8A    -11.274466     9A    -11.243120
      10A     -1.382848    11A     -1.294592    12A     -1.265622
      13A     -1.167798    14A     -1.076206    15A     -0.966632
      16A     -0.901492    17A     -0.853362    18A     -0.759174
      19A     -0.725199    20A     -0.683489    21A     -0.673026
      22A     -0.655907    23A     -0.624794    24A     -0.602720
      25A     -0.589836    26A     -0.575633    27A     -0.566587
      28A     -0.515706    29A     -0.480625    30A     -0.442882
      31A     -0.418625    32A     -0.383841    33A     -0.338604

  @DF-RHF Final Energy:  -431.80196073953903

   => Energetics <=

    Nuclear Repulsion Energy =            441.6050873806282766
    One-Electron Energy =               -1463.2657809679901675
    Two-Electron Energy =                 589.8587328478229210
    Total Energy =                       -431.8019607395390267
  Basis Set: (AUG-CC-PVTZ AUX)
    Blend: AUG-CC-PVTZ-RI
    Molecular point group: c1

    Geometry (in Angstrom), charge = 0, multiplicity = 1:

       Center              X                  Y                   Z               Mass
    ------------   -----------------  -----------------  -----------------  -----------------
         O           -1.468023525116    -1.760361226439     0.002584736841    15.994914619570
         N           -1.114442525116     0.493375773561     0.004869736841    14.003074004430
         N            0.726102474884    -1.033861226439     0.009142736841    14.003074004430
         N            2.879505474884    -0.250489226439    -0.063095263159    14.003074004430
         C           -0.265361525116     1.552131773561     0.003158736841    12.000000000000
         C            1.083737474884     1.366808773561    -0.001353263159    12.000000000000
         C           -0.639402525116    -0.851516226439     0.001961736841    12.000000000000
         C           -2.564093525116     0.663311773561     0.008347736841    12.000000000000
         C            1.526475374884     0.028150073561     0.003318436841    12.000000000000
         H           -0.722509525116     2.538003773561     0.001232736841     1.007825032230
         H            1.766865474884     2.207706773561    -0.021208263159     1.007825032230
         H           -2.791257525116     1.730309773561     0.007595736841     1.007825032230
         H           -2.987992525116     0.187236773561     0.893784736841     1.007825032230
         H           -2.991746525116     0.185093773561    -0.874048263159     1.007825032230
         H            3.512954474884     0.443926773561     0.310273736841     1.007825032230
         H            3.122895474884    -1.213573226439     0.139558736841     1.007825032230

  Basis Set: AUG-CC-PVTZ
    Blend: AUG-CC-PVTZ
  Basis Set: (AUG-CC-PVTZ AUX)
    Blend: AUG-CC-PVTZ-JKFIT
	 Reference Energy          =    -431.8019607395390267 [Eh]
	 Singles Energy            =      -0.0000000000000000 [Eh]
	 Same-Spin Energy          =      -0.4507623389804635 [Eh]
	 Opposite-Spin Energy      =      -1.3723492433557996 [Eh]
	 Correlation Energy        =      -1.8231115823362631 [Eh]
	 Total Energy              =    -433.6250723218752796 [Eh]

	 ================> DF-SCS-MP2 Energies <==================
	-----------------------------------------------------------
	 SCS Same-Spin Scale       =       0.3333333333333333 [-]
	 SCS Opposite-Spin Scale   =       1.2000000000000000 [-]
	 SCS Same-Spin Energy      =      -0.1502541129934878 [Eh]
	 SCS Opposite-Spin Energy  =      -1.6468190920269594 [Eh]
	 SCS Correlation Energy    =      -1.7970732050204472 [Eh]
	 SCS Total Energy          =    -433.5990339445594941 [Eh]
	-----------------------------------------------------------

  Dipole Moment: [D]
     X:     1.7058      Y:     5.7010      Z:     0.7700     Total:     6.0003

*** Psi4 exiting successfully. Buy a developer a beer!
