                               Psi4 1.3.2 release

  ==> Input File <==

--------------------------------------------------------------------------
#psi4
#
memory 32 gb

molecule  {
0 1
  O       -1.4243350     1.8531120    -0.0084660
  N       -1.1176450    -0.4263010     0.0065070
  N        0.7429240     1.0712790     0.0095610
  N        2.8919430     0.2615640    -0.0759850
  C       -0.2548244    -1.4811537    -0.0006804
  C        1.0765330    -1.3300920    -0.0040440
  C       -0.6106261     0.9022949     0.0154621
  C       -2.5617390    -0.6507120     0.0005160
  C        1.5376510     0.0247200    -0.0002060
  H       -0.7522370    -2.4720050    -0.0099570
  H        1.7553550    -2.1750520    -0.0313920
  H       -2.8635010    -1.2105310     0.8892080
  H       -2.8583950    -1.1972750    -0.8980640
  H       -3.0263160     0.3321150     0.0069490
  H        3.5027140    -0.4263080     0.3467730
  H        3.1453740     1.2255370     0.1175850
units angstrom
no_reorient  #important for SAPT in psi4, default
symmetry c1  #important for SAPT in psi4, default
}

set PROPERTIES_ORIGIN ["COM"]
properties('MP2/aug-cc-pvtz', properties = ['dipole'])
--------------------------------------------------------------------------

    Molecular point group: c1
  Charge       = 0
  Multiplicity = 1
  Basis Set: AUG-CC-PVTZ
    Blend: AUG-CC-PVTZ
  Basis Set: (AUG-CC-PVTZ AUX)
    Blend: AUG-CC-PVTZ-JKFIT

    Orbital Energies [Eh]
    ---------------------

    Doubly Occupied:

       1A    -20.496949     2A    -15.625510     3A    -15.594528
       4A    -15.545623     5A    -11.370801     6A    -11.352966
       7A    -11.326560     8A    -11.270619     9A    -11.245751
      10A     -1.374355    11A     -1.292044    12A     -1.267666
      13A     -1.177024    14A     -1.078508    15A     -0.966737
      16A     -0.896289    17A     -0.859280    18A     -0.762243
      19A     -0.723876    20A     -0.687687    21A     -0.672925
      22A     -0.655370    23A     -0.617657    24A     -0.602544
      25A     -0.589960    26A     -0.581226    27A     -0.557635
      28A     -0.518998    29A     -0.475269    30A     -0.437317
      31A     -0.419829    32A     -0.389910    33A     -0.341304

  @DF-RHF Final Energy:  -431.79900510005115

   => Energetics <=

    Nuclear Repulsion Energy =            441.3530066274709043
    One-Electron Energy =               -1462.7540970923450914
    Two-Electron Energy =                 589.6020853648229831
    Total Energy =                       -431.7990051000512040
  Basis Set: (AUG-CC-PVTZ AUX)
    Blend: AUG-CC-PVTZ-RI
    Molecular point group: c1

    Geometry (in Angstrom), charge = 0, multiplicity = 1:

       Center              X                  Y                   Z               Mass
    ------------   -----------------  -----------------  -----------------  -----------------
         O           -1.437169536186     1.805569937470    -0.005127848489    15.994914619570
         N           -1.130479536186    -0.473843062530     0.009845151511    14.003074004430
         N            0.730089463814     1.023736937470     0.012899151511    14.003074004430
         N            2.879108463814     0.214021937470    -0.072646848489    14.003074004430
         C           -0.267658936186    -1.528695762530     0.002657751511    12.000000000000
         C            1.063698463814    -1.377634062530    -0.000705848489    12.000000000000
         C           -0.623460636186     0.854752837470     0.018800251511    12.000000000000
         C           -2.574573536186    -0.698254062530     0.003854151511    12.000000000000
         C            1.524816463814    -0.022822062530     0.003132151511    12.000000000000
         H           -0.765071536186    -2.519547062530    -0.006618848489     1.007825032230
         H            1.742520463814    -2.222594062530    -0.028053848489     1.007825032230
         H           -2.876335536186    -1.258073062530     0.892546151511     1.007825032230
         H           -2.871229536186    -1.244817062530    -0.894725848489     1.007825032230
         H           -3.039150536186     0.284572937470     0.010287151511     1.007825032230
         H            3.489879463814    -0.473850062530     0.350111151511     1.007825032230
         H            3.132539463814     1.177994937470     0.120923151511     1.007825032230

  Basis Set: AUG-CC-PVTZ
    Blend: AUG-CC-PVTZ
  Basis Set: (AUG-CC-PVTZ AUX)
    Blend: AUG-CC-PVTZ-JKFIT
	 Reference Energy          =    -431.7990051000511471 [Eh]
	 Singles Energy            =      -0.0000000000000000 [Eh]
	 Same-Spin Energy          =      -0.4505754477036436 [Eh]
	 Opposite-Spin Energy      =      -1.3722424244232507 [Eh]
	 Correlation Energy        =      -1.8228178721268944 [Eh]
	 Total Energy              =    -433.6218229721780517 [Eh]

	 ================> DF-SCS-MP2 Energies <==================
	-----------------------------------------------------------
	 SCS Same-Spin Scale       =       0.3333333333333333 [-]
	 SCS Opposite-Spin Scale   =       1.2000000000000000 [-]
	 SCS Same-Spin Energy      =      -0.1501918159012145 [Eh]
	 SCS Opposite-Spin Energy  =      -1.6466909093079007 [Eh]
	 SCS Correlation Energy    =      -1.7968827252091153 [Eh]
	 SCS Total Energy          =    -433.5958878252602631 [Eh]
	-----------------------------------------------------------

  Dipole Moment: [D]
     X:     1.9386      Y:    -5.7659      Z:     0.8317     Total:     6.1396

*** Psi4 exiting successfully. Buy a developer a beer!
