                               Psi4 1.4a3.dev225

  ==> Input File <==

--------------------------------------------------------------------------
#psi4
#
memory 32 gb

molecule  {
0 1
  O       -1.4602810    -1.8042760    -0.0008590
  N       -1.1067000     0.4494610     0.0014260
  N        0.7338450    -1.0777760     0.0056990
  N        2.8872480    -0.2944040    -0.0665390
  C       -0.2576190     1.5082170    -0.0002850
  C        1.0914800     1.3228940    -0.0047970
  C       -0.6812194    -0.8888130    -0.0017426
  C       -2.5563510     0.6193970     0.0049040
  C        1.5404980    -0.0347530    -0.0000590
  H       -0.7147670     2.4940890    -0.0022110
  H        1.7746080     2.1637920    -0.0246520
  H       -2.7835150     1.6863950     0.0041520
  H       -2.9802500     0.1433220     0.8903410
  H       -2.9840040     0.1411790    -0.8774920
  H        3.5206970     0.4000120     0.3068300
  H        3.1306380    -1.2574880     0.1361150
units angstrom
no_reorient  #important for SAPT in psi4, default
symmetry c1  #important for SAPT in psi4, default
}

set PROPERTIES_ORIGIN ["COM"]
properties('MP2/aug-cc-pvtz', properties = ['dipole'])
--------------------------------------------------------------------------

    Molecular point group: c1
  Charge       = 0
  Multiplicity = 1
  Basis Set: AUG-CC-PVTZ
    Blend: AUG-CC-PVTZ
  Basis Set: (AUG-CC-PVTZ AUX)
    Blend: AUG-CC-PVTZ-JKFIT

    Orbital Energies [Eh]
    ---------------------

    Doubly Occupied:

       1A    -20.510943     2A    -15.626295     3A    -15.587076
       4A    -15.539741     5A    -11.369306     6A    -11.342862
       7A    -11.327043     8A    -11.274784     9A    -11.243056
      10A     -1.398579    11A     -1.301241    12A     -1.266455
      13A     -1.158937    14A     -1.071954    15A     -0.965925
      16A     -0.903241    17A     -0.845554    18A     -0.756895
      19A     -0.723138    20A     -0.685135    21A     -0.671963
      22A     -0.659039    23A     -0.628824    24A     -0.602282
      25A     -0.588721    26A     -0.573918    27A     -0.569406
      28A     -0.522595    29A     -0.483054    30A     -0.449294
      31A     -0.413277    32A     -0.381251    33A     -0.337644

  @DF-RHF Final Energy:  -431.80141842740022

   => Energetics <=

    Nuclear Repulsion Energy =            441.6092264549662900
    One-Electron Energy =               -1463.2624285332901763
    Two-Electron Energy =                 589.8517836509236076
    Total Energy =                       -431.8014184274002218
  Basis Set: (AUG-CC-PVTZ AUX)
    Blend: AUG-CC-PVTZ-RI
    Molecular point group: c1

    Geometry (in Angstrom), charge = 0, multiplicity = 1:

       Center              X                  Y                   Z               Mass
    ------------   -----------------  -----------------  -----------------  -----------------
         O           -1.463870669535    -1.759174237061     0.002603380855    15.994914619570
         N           -1.110289669535     0.494562762939     0.004888380855    14.003074004430
         N            0.730255330465    -1.032674237061     0.009161380855    14.003074004430
         N            2.883658330465    -0.249302237061    -0.063076619145    14.003074004430
         C           -0.261208669535     1.553318762939     0.003177380855    12.000000000000
         C            1.087890330465     1.367995762939    -0.001334619145    12.000000000000
         C           -0.684809069535    -0.843711237061     0.001719780855    12.000000000000
         C           -2.559940669535     0.664498762939     0.008366380855    12.000000000000
         C            1.536908330465     0.010348762939     0.003403380855    12.000000000000
         H           -0.718356669535     2.539190762939     0.001251380855     1.007825032230
         H            1.771018330465     2.208893762939    -0.021189619145     1.007825032230
         H           -2.787104669535     1.731496762939     0.007614380855     1.007825032230
         H           -2.983839669535     0.188423762939     0.893803380855     1.007825032230
         H           -2.987593669535     0.186280762939    -0.874029619145     1.007825032230
         H            3.517107330465     0.445113762939     0.310292380855     1.007825032230
         H            3.127048330465    -1.212386237061     0.139577380855     1.007825032230

  Basis Set: AUG-CC-PVTZ
    Blend: AUG-CC-PVTZ
  Basis Set: (AUG-CC-PVTZ AUX)
    Blend: AUG-CC-PVTZ-JKFIT
	 Reference Energy          =    -431.8014184274002218 [Eh]
	 Singles Energy            =      -0.0000000000000000 [Eh]
	 Same-Spin Energy          =      -0.4499119103676495 [Eh]
	 Opposite-Spin Energy      =      -1.3716918315945015 [Eh]
	 Correlation Energy        =      -1.8216037419621509 [Eh]
	 Total Energy              =    -433.6230221693624003 [Eh]

	 ================> DF-SCS-MP2 Energies <==================
	-----------------------------------------------------------
	 SCS Same-Spin Scale       =       0.3333333333333333 [-]
	 SCS Opposite-Spin Scale   =       1.2000000000000000 [-]
	 SCS Same-Spin Energy      =      -0.1499706367892165 [Eh]
	 SCS Opposite-Spin Energy  =      -1.6460301979134018 [Eh]
	 SCS Correlation Energy    =      -1.7960008347026182 [Eh]
	 SCS Total Energy          =    -433.5974192621028465 [Eh]
	-----------------------------------------------------------

  Dipole Moment: [D]
     X:     1.4535      Y:     5.5011      Z:     0.7703     Total:     5.7418

*** Psi4 exiting successfully. Buy a developer a beer!
