                               Psi4 1.4a3.dev225

  ==> Input File <==

--------------------------------------------------------------------------
#psi4
#
memory 32 gb

molecule  {
0 1
  O       -1.4602810    -1.8042760    -0.0008590
  N       -1.1067000     0.4494610     0.0014260
  N        0.7338450    -1.0777760     0.0056990
  N        2.8872480    -0.2944040    -0.0665390
  C       -0.2576190     1.5082170    -0.0002850
  C        1.0914800     1.3228940    -0.0047970
  C       -0.6316600    -0.8954310    -0.0014820
  C       -2.5563510     0.6193970     0.0049040
  C        1.5404980    -0.0347530    -0.0000590
  H       -0.7147670     2.4940890    -0.0022110
  H        1.7746080     2.1637920    -0.0246520
  H       -2.7793503     1.6668334     0.0041658
  H       -2.9802500     0.1433220     0.8903410
  H       -2.9840040     0.1411790    -0.8774920
  H        3.5206970     0.4000120     0.3068300
  H        3.1306380    -1.2574880     0.1361150
units angstrom
no_reorient  #important for SAPT in psi4, default
symmetry c1  #important for SAPT in psi4, default
}

set PROPERTIES_ORIGIN ["COM"]
properties('MP2/aug-cc-pvtz', properties = ['dipole'])
--------------------------------------------------------------------------

    Molecular point group: c1
  Charge       = 0
  Multiplicity = 1
  Basis Set: AUG-CC-PVTZ
    Blend: AUG-CC-PVTZ
  Basis Set: (AUG-CC-PVTZ AUX)
    Blend: AUG-CC-PVTZ-JKFIT

    Orbital Energies [Eh]
    ---------------------

    Doubly Occupied:

       1A    -20.502821     2A    -15.626005     3A    -15.591543
       4A    -15.542418     5A    -11.369041     6A    -11.349470
       7A    -11.328231     8A    -11.271137     9A    -11.243403
      10A     -1.383017    11A     -1.295402    12A     -1.267847
      13A     -1.171590    14A     -1.072621    15A     -0.966655
      16A     -0.898943    17A     -0.855483    18A     -0.759632
      19A     -0.724683    20A     -0.686516    21A     -0.674296
      22A     -0.655083    23A     -0.622481    24A     -0.602083
      25A     -0.591841    26A     -0.576617    27A     -0.567819
      28A     -0.516911    29A     -0.480166    30A     -0.442541
      31A     -0.418289    32A     -0.384985    33A     -0.337443

  @DF-RHF Final Energy:  -431.80332165801099

   => Energetics <=

    Nuclear Repulsion Energy =            441.6764329684662584
    One-Electron Energy =               -1463.4054849704373282
    Two-Electron Energy =                 589.9257303439600264
    Total Energy =                       -431.8033216580109865
  Basis Set: (AUG-CC-PVTZ AUX)
    Blend: AUG-CC-PVTZ-RI
    Molecular point group: c1

    Geometry (in Angstrom), charge = 0, multiplicity = 1:

       Center              X                  Y                   Z               Mass
    ------------   -----------------  -----------------  -----------------  -----------------
         O           -1.468659693204    -1.758381565282     0.002578263828    15.994914619570
         N           -1.115078693204     0.495355434718     0.004863263828    14.003074004430
         N            0.725466306796    -1.031881565282     0.009136263828    14.003074004430
         N            2.878869306796    -0.248509565282    -0.063101736172    14.003074004430
         C           -0.265997693204     1.554111434718     0.003152263828    12.000000000000
         C            1.083101306796     1.368788434718    -0.001359736172    12.000000000000
         C           -0.640038693204    -0.849536565282     0.001955263828    12.000000000000
         C           -2.564729693204     0.665291434718     0.008341263828    12.000000000000
         C            1.532119306796     0.011141434718     0.003378263828    12.000000000000
         H           -0.723145693204     2.539983434718     0.001226263828     1.007825032230
         H            1.766229306796     2.209686434718    -0.021214736172     1.007825032230
         H           -2.787728993204     1.712727834718     0.007603063828     1.007825032230
         H           -2.988628693204     0.189216434718     0.893778263828     1.007825032230
         H           -2.992382693204     0.187073434718    -0.874054736172     1.007825032230
         H            3.512318306796     0.445906434718     0.310267263828     1.007825032230
         H            3.122259306796    -1.211593565282     0.139552263828     1.007825032230

  Basis Set: AUG-CC-PVTZ
    Blend: AUG-CC-PVTZ
  Basis Set: (AUG-CC-PVTZ AUX)
    Blend: AUG-CC-PVTZ-JKFIT
	 Reference Energy          =    -431.8033216580109865 [Eh]
	 Singles Energy            =      -0.0000000000000000 [Eh]
	 Same-Spin Energy          =      -0.4504039584928092 [Eh]
	 Opposite-Spin Energy      =      -1.3717675882399136 [Eh]
	 Correlation Energy        =      -1.8221715467327229 [Eh]
	 Total Energy              =    -433.6254932047436910 [Eh]

	 ================> DF-SCS-MP2 Energies <==================
	-----------------------------------------------------------
	 SCS Same-Spin Scale       =       0.3333333333333333 [-]
	 SCS Opposite-Spin Scale   =       1.2000000000000000 [-]
	 SCS Same-Spin Energy      =      -0.1501346528309364 [Eh]
	 SCS Opposite-Spin Energy  =      -1.6461211058878964 [Eh]
	 SCS Correlation Energy    =      -1.7962557587188328 [Eh]
	 SCS Total Energy          =    -433.5995774167298009 [Eh]
	-----------------------------------------------------------

  Dipole Moment: [D]
     X:     1.7973      Y:     5.6161      Z:     0.7692     Total:     5.9466

*** Psi4 exiting successfully. Buy a developer a beer!
