                               Psi4 1.3.2 release

  ==> Input File <==

--------------------------------------------------------------------------
#psi4
#
memory 32 gb

molecule  {
0 1
  O       -1.4243350     1.8531120    -0.0084660
  N       -1.1176450    -0.4263010     0.0065070
  N        0.7429240     1.0712790     0.0095610
  N        2.8919430     0.2615640    -0.0759850
  C       -0.2733660    -1.4960510    -0.0007800
  C        1.0833661    -1.4009633    -0.0048687
  C       -0.6338910     0.9109410     0.0155220
  C       -2.5617390    -0.6507120     0.0005160
  C        1.5376510     0.0247200    -0.0002060
  H       -0.7005014    -2.4957261    -0.0104211
  H        1.7553550    -2.1750520    -0.0313920
  H       -2.8635010    -1.2105310     0.8892080
  H       -2.8583950    -1.1972750    -0.8980640
  H       -3.0263160     0.3321150     0.0069490
  H        3.5027140    -0.4263080     0.3467730
  H        3.1453740     1.2255370     0.1175850
units angstrom
no_reorient  #important for SAPT in psi4, default
symmetry c1  #important for SAPT in psi4, default
}

set PROPERTIES_ORIGIN ["COM"]
properties('MP2/aug-cc-pvtz', properties = ['dipole'])
--------------------------------------------------------------------------

    Molecular point group: c1
  Charge       = 0
  Multiplicity = 1
  Basis Set: AUG-CC-PVTZ
    Blend: AUG-CC-PVTZ
  Basis Set: (AUG-CC-PVTZ AUX)
    Blend: AUG-CC-PVTZ-JKFIT

    Orbital Energies [Eh]
    ---------------------

    Doubly Occupied:

       1A    -20.505850     2A    -15.624664     3A    -15.593148
       4A    -15.545705     5A    -11.373965     6A    -11.354977
       7A    -11.324127     8A    -11.269742     9A    -11.246554
      10A     -1.383126    11A     -1.294068    12A     -1.266513
      13A     -1.171300    14A     -1.070789    15A     -0.963101
      16A     -0.892231    17A     -0.856116    18A     -0.756812
      19A     -0.723454    20A     -0.694632    21A     -0.678212
      22A     -0.654495    23A     -0.623176    24A     -0.599557
      25A     -0.587033    26A     -0.578102    27A     -0.559996
      28A     -0.521330    29A     -0.476323    30A     -0.442455
      31A     -0.419091    32A     -0.387401    33A     -0.340389

  @DF-RHF Final Energy:  -431.79520783753321

   => Energetics <=

    Nuclear Repulsion Energy =            439.6412228972700404
    One-Electron Energy =               -1459.3159925877343994
    Two-Electron Energy =                 587.8795618529311469
    Total Energy =                       -431.7952078375332121
  Basis Set: (AUG-CC-PVTZ AUX)
    Blend: AUG-CC-PVTZ-RI
    Molecular point group: c1

    Geometry (in Angstrom), charge = 0, multiplicity = 1:

       Center              X                  Y                   Z               Mass
    ------------   -----------------  -----------------  -----------------  -----------------
         O           -1.434230598354     1.813161373412    -0.005041165090    15.994914619570
         N           -1.127540598354    -0.466251626588     0.009931834910    14.003074004430
         N            0.733028401646     1.031328373412     0.012985834910    14.003074004430
         N            2.882047401646     0.221613373412    -0.072560165090    14.003074004430
         C           -0.283261598354    -1.536001626588     0.002644834910    12.000000000000
         C            1.073470501646    -1.440913926588    -0.001443865090    12.000000000000
         C           -0.643786598354     0.870990373412     0.018946834910    12.000000000000
         C           -2.571634598354    -0.690662626588     0.003940834910    12.000000000000
         C            1.527755401646    -0.015230626588     0.003218834910    12.000000000000
         H           -0.710396998354    -2.535676726588    -0.006996265090     1.007825032230
         H            1.745459401646    -2.215002626588    -0.027967165090     1.007825032230
         H           -2.873396598354    -1.250481626588     0.892632834910     1.007825032230
         H           -2.868290598354    -1.237225626588    -0.894639165090     1.007825032230
         H           -3.036211598354     0.292164373412     0.010373834910     1.007825032230
         H            3.492818401646    -0.466258626588     0.350197834910     1.007825032230
         H            3.135478401646     1.185586373412     0.121009834910     1.007825032230

  Basis Set: AUG-CC-PVTZ
    Blend: AUG-CC-PVTZ
  Basis Set: (AUG-CC-PVTZ AUX)
    Blend: AUG-CC-PVTZ-JKFIT
	 Reference Energy          =    -431.7952078375332121 [Eh]
	 Singles Energy            =      -0.0000000000000000 [Eh]
	 Same-Spin Energy          =      -0.4494998511379392 [Eh]
	 Opposite-Spin Energy      =      -1.3717661414708400 [Eh]
	 Correlation Energy        =      -1.8212659926087791 [Eh]
	 Total Energy              =    -433.6164738301420130 [Eh]

	 ================> DF-SCS-MP2 Energies <==================
	-----------------------------------------------------------
	 SCS Same-Spin Scale       =       0.3333333333333333 [-]
	 SCS Opposite-Spin Scale   =       1.2000000000000000 [-]
	 SCS Same-Spin Energy      =      -0.1498332837126464 [Eh]
	 SCS Opposite-Spin Energy  =      -1.6461193697650078 [Eh]
	 SCS Correlation Energy    =      -1.7959526534776542 [Eh]
	 SCS Total Energy          =    -433.5911604910108395 [Eh]
	-----------------------------------------------------------

  Dipole Moment: [D]
     X:     1.8299      Y:    -5.4931      Z:     0.8271     Total:     5.8487

*** Psi4 exiting successfully. Buy a developer a beer!
