                               Psi4 1.3.2 release

  ==> Input File <==

--------------------------------------------------------------------------
#psi4
#
memory 32 gb

molecule  {
0 1
  O       -1.4243350     1.8531120    -0.0084660
  N       -1.1176450    -0.4263010     0.0065070
  N        0.7429240     1.0712790     0.0095610
  N        2.8919430     0.2615640    -0.0759850
  C       -0.2733660    -1.4960510    -0.0007800
  C        1.0765330    -1.3300920    -0.0040440
  C       -0.7019256     0.7228727     0.0142541
  C       -2.5617390    -0.6507120     0.0005160
  C        1.5376510     0.0247200    -0.0002060
  H       -0.7522370    -2.4720050    -0.0099570
  H        1.7553550    -2.1750520    -0.0313920
  H       -2.8635010    -1.2105310     0.8892080
  H       -2.8583950    -1.1972750    -0.8980640
  H       -3.0263160     0.3321150     0.0069490
  H        3.5027140    -0.4263080     0.3467730
  H        3.1453740     1.2255370     0.1175850
units angstrom
no_reorient  #important for SAPT in psi4, default
symmetry c1  #important for SAPT in psi4, default
}

set PROPERTIES_ORIGIN ["COM"]
properties('MP2/aug-cc-pvtz', properties = ['dipole'])
--------------------------------------------------------------------------

    Molecular point group: c1
  Charge       = 0
  Multiplicity = 1
  Basis Set: AUG-CC-PVTZ
    Blend: AUG-CC-PVTZ
  Basis Set: (AUG-CC-PVTZ AUX)
    Blend: AUG-CC-PVTZ-JKFIT

    Orbital Energies [Eh]
    ---------------------

    Doubly Occupied:

       1A    -20.473139     2A    -15.646419     3A    -15.589665
       4A    -15.555444     5A    -11.361063     6A    -11.341266
       7A    -11.335454     8A    -11.283641     9A    -11.267534
      10A     -1.404115    11A     -1.278111    12A     -1.248354
      13A     -1.158200    14A     -1.087135    15A     -1.003043
      16A     -0.940299    17A     -0.838132    18A     -0.767020
      19A     -0.730183    20A     -0.698379    21A     -0.687236
      22A     -0.672162    23A     -0.627486    24A     -0.611073
      25A     -0.581940    26A     -0.579461    27A     -0.533231
      28A     -0.522481    29A     -0.448128    30A     -0.441061
      31A     -0.394827    32A     -0.389224    33A     -0.340038

  @DF-RHF Final Energy:  -431.74124865623764

   => Energetics <=

    Nuclear Repulsion Energy =            442.2575150660809413
    One-Electron Energy =               -1464.3276392853454126
    Two-Electron Energy =                 590.3288755630268270
    Total Energy =                       -431.7412486562376444
  Basis Set: (AUG-CC-PVTZ AUX)
    Blend: AUG-CC-PVTZ-RI
    Molecular point group: c1

    Geometry (in Angstrom), charge = 0, multiplicity = 1:

       Center              X                  Y                   Z               Mass
    ------------   -----------------  -----------------  -----------------  -----------------
         O           -1.426629757929     1.824215821760    -0.005002378023    15.994914619570
         N           -1.119939757929    -0.455197178240     0.009970621977    14.003074004430
         N            0.740629242071     1.042382821760     0.013024621977    14.003074004430
         N            2.889648242071     0.232667821760    -0.072521378023    14.003074004430
         C           -0.275660757929    -1.524947178240     0.002683621977    12.000000000000
         C            1.074238242071    -1.358988178240    -0.000580378023    12.000000000000
         C           -0.704220357929     0.693976521760     0.017717721977    12.000000000000
         C           -2.564033757929    -0.679608178240     0.003979621977    12.000000000000
         C            1.535356242071    -0.004176178240     0.003257621977    12.000000000000
         H           -0.754531757929    -2.500901178240    -0.006493378023     1.007825032230
         H            1.753060242071    -2.203948178240    -0.027928378023     1.007825032230
         H           -2.865795757929    -1.239427178240     0.892671621977     1.007825032230
         H           -2.860689757929    -1.226171178240    -0.894600378023     1.007825032230
         H           -3.028610757929     0.303218821760     0.010412621977     1.007825032230
         H            3.500419242071    -0.455204178240     0.350236621977     1.007825032230
         H            3.143079242071     1.196640821760     0.121048621977     1.007825032230

  Basis Set: AUG-CC-PVTZ
    Blend: AUG-CC-PVTZ
  Basis Set: (AUG-CC-PVTZ AUX)
    Blend: AUG-CC-PVTZ-JKFIT
	 Reference Energy          =    -431.7412486562376444 [Eh]
	 Singles Energy            =      -0.0000000000000000 [Eh]
	 Same-Spin Energy          =      -0.4524989884458102 [Eh]
	 Opposite-Spin Energy      =      -1.3786272817006218 [Eh]
	 Correlation Energy        =      -1.8311262701464319 [Eh]
	 Total Energy              =    -433.5723749263841000 [Eh]

	 ================> DF-SCS-MP2 Energies <==================
	-----------------------------------------------------------
	 SCS Same-Spin Scale       =       0.3333333333333333 [-]
	 SCS Opposite-Spin Scale   =       1.2000000000000000 [-]
	 SCS Same-Spin Energy      =      -0.1508329961486034 [Eh]
	 SCS Opposite-Spin Energy  =      -1.6543527380407461 [Eh]
	 SCS Correlation Energy    =      -1.8051857341893496 [Eh]
	 SCS Total Energy          =    -433.5464343904270095 [Eh]
	-----------------------------------------------------------

  Dipole Moment: [D]
     X:     1.8091      Y:    -6.9568      Z:     0.8405     Total:     7.2371

*** Psi4 exiting successfully. Buy a developer a beer!
