                               Psi4 1.3.2 release

  ==> Input File <==

--------------------------------------------------------------------------
#psi4
#
memory 32 gb

molecule  {
0 1
  O       -1.4243350     1.8531120    -0.0084660
  N       -1.1176450    -0.4263010     0.0065070
  N        0.7429240     1.0712790     0.0095610
  N        2.8919430     0.2615640    -0.0759850
  C       -0.2733660    -1.4960510    -0.0007800
  C        1.0765330    -1.3300920    -0.0040440
  C       -0.6338910     0.9109410     0.0155220
  C       -2.5617390    -0.6507120     0.0005160
  C        1.5376510     0.0247200    -0.0002060
  H       -0.7522370    -2.4720050    -0.0099570
  H        1.7553550    -2.1750520    -0.0313920
  H       -2.8635010    -1.2105310     0.8892080
  H       -2.8583950    -1.1972750    -0.8980640
  H       -3.0263160     0.3321150     0.0069490
  H        3.4829303    -0.4518093     0.3323850
  H        3.1176912     1.2360713     0.0981239
units angstrom
no_reorient  #important for SAPT in psi4, default
symmetry c1  #important for SAPT in psi4, default
}

set PROPERTIES_ORIGIN ["COM"]
properties('MP2/aug-cc-pvtz', properties = ['dipole'])
--------------------------------------------------------------------------

    Molecular point group: c1
  Charge       = 0
  Multiplicity = 1
  Basis Set: AUG-CC-PVTZ
    Blend: AUG-CC-PVTZ
  Basis Set: (AUG-CC-PVTZ AUX)
    Blend: AUG-CC-PVTZ-JKFIT

    Orbital Energies [Eh]
    ---------------------

    Doubly Occupied:

       1A    -20.503504     2A    -15.625269     3A    -15.591716
       4A    -15.543291     5A    -11.372182     6A    -11.348420
       7A    -11.327248     8A    -11.270432     9A    -11.245934
      10A     -1.382521    11A     -1.296156    12A     -1.267750
      13A     -1.170487    14A     -1.072663    15A     -0.964873
      16A     -0.899392    17A     -0.852402    18A     -0.761140
      19A     -0.722110    20A     -0.684905    21A     -0.677366
      22A     -0.655504    23A     -0.621678    24A     -0.601926
      25A     -0.592406    26A     -0.579857    27A     -0.559030
      28A     -0.521797    29A     -0.476247    30A     -0.440855
      31A     -0.419667    32A     -0.387230    33A     -0.339086

  @DF-RHF Final Energy:  -431.80068054366257

   => Energetics <=

    Nuclear Repulsion Energy =            441.0137696676856081
    One-Electron Energy =               -1462.0788097491038116
    Two-Electron Energy =                 589.2643595377555812
    Total Energy =                       -431.8006805436625655
  Basis Set: (AUG-CC-PVTZ AUX)
    Blend: AUG-CC-PVTZ-RI
    Molecular point group: c1

    Geometry (in Angstrom), charge = 0, multiplicity = 1:

       Center              X                  Y                   Z               Mass
    ------------   -----------------  -----------------  -----------------  -----------------
         O           -1.432775479667     1.806290386064    -0.004851255883    15.994914619570
         N           -1.126085479667    -0.473122613936     0.010121744117    14.003074004430
         N            0.734483520333     1.024457386064     0.013175744117    14.003074004430
         N            2.883502520333     0.214742386064    -0.072370255883    14.003074004430
         C           -0.281806479667    -1.542872613936     0.002834744117    12.000000000000
         C            1.068092520333    -1.376913613936    -0.000429255883    12.000000000000
         C           -0.642331479667     0.864119386064     0.019136744117    12.000000000000
         C           -2.570179479667    -0.697533613936     0.004130744117    12.000000000000
         C            1.529210520333    -0.022101613936     0.003408744117    12.000000000000
         H           -0.760677479667    -2.518826613936    -0.006342255883     1.007825032230
         H            1.746914520333    -2.221873613936    -0.027777255883     1.007825032230
         H           -2.871941479667    -1.257352613936     0.892822744117     1.007825032230
         H           -2.866835479667    -1.244096613936    -0.894449255883     1.007825032230
         H           -3.034756479667     0.285293386064     0.010563744117     1.007825032230
         H            3.474489820333    -0.498630913936     0.335999744117     1.007825032230
         H            3.109250720333     1.189249686064     0.101738644117     1.007825032230

  Basis Set: AUG-CC-PVTZ
    Blend: AUG-CC-PVTZ
  Basis Set: (AUG-CC-PVTZ AUX)
    Blend: AUG-CC-PVTZ-JKFIT
	 Reference Energy          =    -431.8006805436625655 [Eh]
	 Singles Energy            =      -0.0000000000000000 [Eh]
	 Same-Spin Energy          =      -0.4504489345501715 [Eh]
	 Opposite-Spin Energy      =      -1.3722062990836554 [Eh]
	 Correlation Energy        =      -1.8226552336338271 [Eh]
	 Total Energy              =    -433.6233357772964041 [Eh]

	 ================> DF-SCS-MP2 Energies <==================
	-----------------------------------------------------------
	 SCS Same-Spin Scale       =       0.3333333333333333 [-]
	 SCS Opposite-Spin Scale   =       1.2000000000000000 [-]
	 SCS Same-Spin Energy      =      -0.1501496448500572 [Eh]
	 SCS Opposite-Spin Energy  =      -1.6466475589003864 [Eh]
	 SCS Correlation Energy    =      -1.7967972037504436 [Eh]
	 SCS Total Energy          =    -433.5974777474129951 [Eh]
	-----------------------------------------------------------

  Dipole Moment: [D]
     X:     1.6939      Y:    -5.6446      Z:     0.7897     Total:     5.9460

*** Psi4 exiting successfully. Buy a developer a beer!
