                               Psi4 1.3.2 release

  ==> Input File <==

--------------------------------------------------------------------------
#psi4
#
memory 32 gb

molecule  {
0 1
  O       -1.4567454     1.8249627    -0.0076797
  N       -1.1176450    -0.4263010     0.0065070
  N        0.7476845     1.0231478     0.0108307
  N        2.8919430     0.2615640    -0.0759850
  C       -0.2733660    -1.4960510    -0.0007800
  C        1.0765330    -1.3300920    -0.0040440
  C       -0.6338910     0.9109410     0.0155220
  C       -2.5617390    -0.6507120     0.0005160
  C        1.5376510     0.0247200    -0.0002060
  H       -0.7522370    -2.4720050    -0.0099570
  H        1.7553550    -2.1750520    -0.0313920
  H       -2.8635010    -1.2105310     0.8892080
  H       -2.8583950    -1.1972750    -0.8980640
  H       -3.0263160     0.3321150     0.0069490
  H        3.5027140    -0.4263080     0.3467730
  H        3.1453740     1.2255370     0.1175850
units angstrom
no_reorient  #important for SAPT in psi4, default
symmetry c1  #important for SAPT in psi4, default
}

set PROPERTIES_ORIGIN ["COM"]
properties('MP2/aug-cc-pvtz', properties = ['dipole'])
--------------------------------------------------------------------------

    Molecular point group: c1
  Charge       = 0
  Multiplicity = 1
  Basis Set: AUG-CC-PVTZ
    Blend: AUG-CC-PVTZ
  Basis Set: (AUG-CC-PVTZ AUX)
    Blend: AUG-CC-PVTZ-JKFIT

    Orbital Energies [Eh]
    ---------------------

    Doubly Occupied:

       1A    -20.508874     2A    -15.622382     3A    -15.588702
       4A    -15.541058     5A    -11.377461     6A    -11.344033
       7A    -11.323679     8A    -11.268277     9A    -11.242906
      10A     -1.386783    11A     -1.301921    12A     -1.267667
      13A     -1.177183    14A     -1.070205    15A     -0.966110
      16A     -0.897182    17A     -0.858791    18A     -0.759716
      19A     -0.724465    20A     -0.686423    21A     -0.673391
      22A     -0.655482    23A     -0.624141    24A     -0.601985
      25A     -0.594341    26A     -0.583026    27A     -0.557331
      28A     -0.523288    29A     -0.475640    30A     -0.444908
      31A     -0.416051    32A     -0.392953    33A     -0.338306

  @DF-RHF Final Energy:  -431.79993473385696

   => Energetics <=

    Nuclear Repulsion Energy =            442.1505134676018542
    One-Electron Energy =               -1464.3115682146772087
    Two-Electron Energy =                 590.3611200132183967
    Total Energy =                       -431.7999347338569578
  Basis Set: (AUG-CC-PVTZ AUX)
    Blend: AUG-CC-PVTZ-RI
    Molecular point group: c1

    Geometry (in Angstrom), charge = 0, multiplicity = 1:

       Center              X                  Y                   Z               Mass
    ------------   -----------------  -----------------  -----------------  -----------------
         O           -1.461956185644     1.787010076461    -0.004580476719    15.994914619570
         N           -1.122855785644    -0.464253623539     0.009606223281    14.003074004430
         N            0.742473714356     0.985195176461     0.013929923281    14.003074004430
         N            2.886732214356     0.223611376461    -0.072885776719    14.003074004430
         C           -0.278576785644    -1.534003623539     0.002319223281    12.000000000000
         C            1.071322214356    -1.368044623539    -0.000944776719    12.000000000000
         C           -0.639101785644     0.872988376461     0.018621223281    12.000000000000
         C           -2.566949785644    -0.688664623539     0.003615223281    12.000000000000
         C            1.532440214356    -0.013232623539     0.002893223281    12.000000000000
         H           -0.757447785644    -2.509957623539    -0.006857776719     1.007825032230
         H            1.750144214356    -2.213004623539    -0.028292776719     1.007825032230
         H           -2.868711785644    -1.248483623539     0.892307223281     1.007825032230
         H           -2.863605785644    -1.235227623539    -0.894964776719     1.007825032230
         H           -3.031526785644     0.294162376461     0.010048223281     1.007825032230
         H            3.497503214356    -0.464260623539     0.349872223281     1.007825032230
         H            3.140163214356     1.187584376461     0.120684223281     1.007825032230

  Basis Set: AUG-CC-PVTZ
    Blend: AUG-CC-PVTZ
  Basis Set: (AUG-CC-PVTZ AUX)
    Blend: AUG-CC-PVTZ-JKFIT
	 Reference Energy          =    -431.7999347338569578 [Eh]
	 Singles Energy            =      -0.0000000000000000 [Eh]
	 Same-Spin Energy          =      -0.4502879588610738 [Eh]
	 Opposite-Spin Energy      =      -1.3714604804967303 [Eh]
	 Correlation Energy        =      -1.8217484393578041 [Eh]
	 Total Energy              =    -433.6216831732147625 [Eh]

	 ================> DF-SCS-MP2 Energies <==================
	-----------------------------------------------------------
	 SCS Same-Spin Scale       =       0.3333333333333333 [-]
	 SCS Opposite-Spin Scale   =       1.2000000000000000 [-]
	 SCS Same-Spin Energy      =      -0.1500959862870246 [Eh]
	 SCS Opposite-Spin Energy  =      -1.6457525765960763 [Eh]
	 SCS Correlation Energy    =      -1.7958485628831009 [Eh]
	 SCS Total Energy          =    -433.5957832967400805 [Eh]
	-----------------------------------------------------------

  Dipole Moment: [D]
     X:     1.6629      Y:    -5.3958      Z:     0.8349     Total:     5.7076

*** Psi4 exiting successfully. Buy a developer a beer!
