                               Psi4 1.3.2 release

  ==> Input File <==

--------------------------------------------------------------------------
#psi4
#
memory 32 gb

molecule  {
0 1
  O       -1.4243350     1.8531120    -0.0084660
  N       -1.1176450    -0.4263010     0.0065070
  N        0.7429240     1.0712790     0.0095610
  N        2.8919430     0.2615640    -0.0759850
  C       -0.2733660    -1.4960510    -0.0007800
  C        1.0765330    -1.3300920    -0.0040440
  C       -0.6338910     0.9109410     0.0155220
  C       -2.5617390    -0.6507120     0.0005160
  C        1.5376510     0.0247200    -0.0002060
  H       -0.7962854    -2.5617771    -0.0108011
  H        1.7553550    -2.1750520    -0.0313920
  H       -2.8635010    -1.2105310     0.8892080
  H       -2.8583950    -1.1972750    -0.8980640
  H       -3.0263160     0.3321150     0.0069490
  H        3.5027140    -0.4263080     0.3467730
  H        3.1453740     1.2255370     0.1175850
units angstrom
no_reorient  #important for SAPT in psi4, default
symmetry c1  #important for SAPT in psi4, default
}

set PROPERTIES_ORIGIN ["COM"]
properties('MP2/aug-cc-pvtz', properties = ['dipole'])
--------------------------------------------------------------------------

    Molecular point group: c1
  Charge       = 0
  Multiplicity = 1
  Basis Set: AUG-CC-PVTZ
    Blend: AUG-CC-PVTZ
  Basis Set: (AUG-CC-PVTZ AUX)
    Blend: AUG-CC-PVTZ-JKFIT

    Orbital Energies [Eh]
    ---------------------

    Doubly Occupied:

       1A    -20.504000     2A    -15.626233     3A    -15.591813
       4A    -15.543778     5A    -11.372856     6A    -11.349763
       7A    -11.337537     8A    -11.270384     9A    -11.246488
      10A     -1.382971    11A     -1.296159    12A     -1.267425
      13A     -1.170886    14A     -1.071257    15A     -0.965457
      16A     -0.891754    17A     -0.853807    18A     -0.759163
      19A     -0.716330    20A     -0.685976    21A     -0.667984
      22A     -0.655686    23A     -0.620897    24A     -0.595062
      25A     -0.589174    26A     -0.579861    27A     -0.559250
      28A     -0.522179    29A     -0.476609    30A     -0.441133
      31A     -0.419565    32A     -0.388120    33A     -0.339326

  @DF-RHF Final Energy:  -431.79346871743331

   => Energetics <=

    Nuclear Repulsion Energy =            440.4126496155251402
    One-Electron Energy =               -1460.8944666943662014
    Two-Electron Energy =                 588.6883483614076340
    Total Energy =                       -431.7934687174333703
  Basis Set: (AUG-CC-PVTZ AUX)
    Blend: AUG-CC-PVTZ-RI
    Molecular point group: c1

    Geometry (in Angstrom), charge = 0, multiplicity = 1:

       Center              X                  Y                   Z               Mass
    ------------   -----------------  -----------------  -----------------  -----------------
         O           -1.432803025459     1.806893225568    -0.005117236650    15.994914619570
         N           -1.126113025459    -0.472519774432     0.009855763350    14.003074004430
         N            0.734455974541     1.025060225568     0.012909763350    14.003074004430
         N            2.883474974541     0.215345225568    -0.072636236650    14.003074004430
         C           -0.281834025459    -1.542269774432     0.002568763350    12.000000000000
         C            1.068064974541    -1.376310774432    -0.000695236650    12.000000000000
         C           -0.642359025459     0.864722225568     0.018870763350    12.000000000000
         C           -2.570207025459    -0.696930774432     0.003864763350    12.000000000000
         C            1.529182974541    -0.021498774432     0.003142763350    12.000000000000
         H           -0.804753425459    -2.607995874432    -0.007452336650     1.007825032230
         H            1.746886974541    -2.221270774432    -0.028043236650     1.007825032230
         H           -2.871969025459    -1.256749774432     0.892556763350     1.007825032230
         H           -2.866863025459    -1.243493774432    -0.894715236650     1.007825032230
         H           -3.034784025459     0.285896225568     0.010297763350     1.007825032230
         H            3.494245974541    -0.472526774432     0.350121763350     1.007825032230
         H            3.136905974541     1.179318225568     0.120933763350     1.007825032230

  Basis Set: AUG-CC-PVTZ
    Blend: AUG-CC-PVTZ
  Basis Set: (AUG-CC-PVTZ AUX)
    Blend: AUG-CC-PVTZ-JKFIT
	 Reference Energy          =    -431.7934687174333135 [Eh]
	 Singles Energy            =      -0.0000000000000000 [Eh]
	 Same-Spin Energy          =      -0.4507148319698931 [Eh]
	 Opposite-Spin Energy      =      -1.3731520407504390 [Eh]
	 Correlation Energy        =      -1.8238668727203322 [Eh]
	 Total Energy              =    -433.6173355901536297 [Eh]

	 ================> DF-SCS-MP2 Energies <==================
	-----------------------------------------------------------
	 SCS Same-Spin Scale       =       0.3333333333333333 [-]
	 SCS Opposite-Spin Scale   =       1.2000000000000000 [-]
	 SCS Same-Spin Energy      =      -0.1502382773232977 [Eh]
	 SCS Opposite-Spin Energy  =      -1.6477824489005266 [Eh]
	 SCS Correlation Energy    =      -1.7980207262238244 [Eh]
	 SCS Total Energy          =    -433.5914894436571103 [Eh]
	-----------------------------------------------------------

  Dipole Moment: [D]
     X:     1.7075      Y:    -5.6112      Z:     0.8323     Total:     5.9240

*** Psi4 exiting successfully. Buy a developer a beer!
