                               Psi4 1.3.2 release

  ==> Input File <==

--------------------------------------------------------------------------
#psi4
#
memory 32 gb

molecule  {
0 1
  O       -1.4243350     1.8531120    -0.0084660
  N       -1.1176450    -0.4263010     0.0065070
  N        0.7247798     1.0572491     0.0096003
  N        2.8919430     0.2615640    -0.0759850
  C       -0.2733660    -1.4960510    -0.0007800
  C        1.0529589    -1.3218387    -0.0038647
  C       -0.6338910     0.9109410     0.0155220
  C       -2.5617390    -0.6507120     0.0005160
  C        1.5376510     0.0247200    -0.0002060
  H       -0.7522370    -2.4720050    -0.0099570
  H        1.7553550    -2.1750520    -0.0313920
  H       -2.8635010    -1.2105310     0.8892080
  H       -2.8583950    -1.1972750    -0.8980640
  H       -3.0263160     0.3321150     0.0069490
  H        3.5027140    -0.4263080     0.3467730
  H        3.1453740     1.2255370     0.1175850
units angstrom
no_reorient  #important for SAPT in psi4, default
symmetry c1  #important for SAPT in psi4, default
}

set PROPERTIES_ORIGIN ["COM"]
properties('MP2/aug-cc-pvtz', properties = ['dipole'])
--------------------------------------------------------------------------

    Molecular point group: c1
  Charge       = 0
  Multiplicity = 1
  Basis Set: AUG-CC-PVTZ
    Blend: AUG-CC-PVTZ
  Basis Set: (AUG-CC-PVTZ AUX)
    Blend: AUG-CC-PVTZ-JKFIT

    Orbital Energies [Eh]
    ---------------------

    Doubly Occupied:

       1A    -20.500796     2A    -15.622010     3A    -15.595009
       4A    -15.541482     5A    -11.369505     6A    -11.351729
       7A    -11.322658     8A    -11.268604     9A    -11.245332
      10A     -1.382273    11A     -1.296515    12A     -1.267026
      13A     -1.175116    14A     -1.076286    15A     -0.964512
      16A     -0.897381    17A     -0.858010    18A     -0.761647
      19A     -0.725253    20A     -0.685867    21A     -0.673594
      22A     -0.655022    23A     -0.619367    24A     -0.605488
      25A     -0.589716    26A     -0.580581    27A     -0.557625
      28A     -0.522020    29A     -0.477496    30A     -0.436907
      31A     -0.418501    32A     -0.388978    33A     -0.340296

  @DF-RHF Final Energy:  -431.80100881758881

   => Energetics <=

    Nuclear Repulsion Energy =            441.8103760995849711
    One-Electron Energy =               -1463.6775656929532943
    Two-Electron Energy =                 590.0661807757794577
    Total Energy =                       -431.8010088175888086
  Basis Set: (AUG-CC-PVTZ AUX)
    Blend: AUG-CC-PVTZ-RI
    Molecular point group: c1

    Geometry (in Angstrom), charge = 0, multiplicity = 1:

       Center              X                  Y                   Z               Mass
    ------------   -----------------  -----------------  -----------------  -----------------
         O           -1.428864316191     1.806948779852    -0.005145644269    15.994914619570
         N           -1.122174316191    -0.472464220148     0.009827355731    14.003074004430
         N            0.720250483809     1.011085879852     0.012920655731    14.003074004430
         N            2.887413683809     0.215400779852    -0.072664644269    14.003074004430
         C           -0.277895316191    -1.542214220148     0.002540355731    12.000000000000
         C            1.048429583809    -1.368001920148    -0.000544344269    12.000000000000
         C           -0.638420316191     0.864777779852     0.018842355731    12.000000000000
         C           -2.566268316191    -0.696875220148     0.003836355731    12.000000000000
         C            1.533121683809    -0.021443220148     0.003114355731    12.000000000000
         H           -0.756766316191    -2.518168220148    -0.006636644269     1.007825032230
         H            1.750825683809    -2.221215220148    -0.028071644269     1.007825032230
         H           -2.868030316191    -1.256694220148     0.892528355731     1.007825032230
         H           -2.862924316191    -1.243438220148    -0.894743644269     1.007825032230
         H           -3.030845316191     0.285951779852     0.010269355731     1.007825032230
         H            3.498184683809    -0.472471220148     0.350093355731     1.007825032230
         H            3.140844683809     1.179373779852     0.120905355731     1.007825032230

  Basis Set: AUG-CC-PVTZ
    Blend: AUG-CC-PVTZ
  Basis Set: (AUG-CC-PVTZ AUX)
    Blend: AUG-CC-PVTZ-JKFIT
	 Reference Energy          =    -431.8010088175888086 [Eh]
	 Singles Energy            =      -0.0000000000000000 [Eh]
	 Same-Spin Energy          =      -0.4503433688044677 [Eh]
	 Opposite-Spin Energy      =      -1.3715639304193759 [Eh]
	 Correlation Energy        =      -1.8219072992238434 [Eh]
	 Total Energy              =    -433.6229161168126325 [Eh]

	 ================> DF-SCS-MP2 Energies <==================
	-----------------------------------------------------------
	 SCS Same-Spin Scale       =       0.3333333333333333 [-]
	 SCS Opposite-Spin Scale   =       1.2000000000000000 [-]
	 SCS Same-Spin Energy      =      -0.1501144562681559 [Eh]
	 SCS Opposite-Spin Energy  =      -1.6458767165032511 [Eh]
	 SCS Correlation Energy    =      -1.7959911727714069 [Eh]
	 SCS Total Energy          =    -433.5969999903601888 [Eh]
	-----------------------------------------------------------

  Dipole Moment: [D]
     X:     1.8682      Y:    -5.6265      Z:     0.8337     Total:     5.9869

*** Psi4 exiting successfully. Buy a developer a beer!
