                               Psi4 1.3.2 release

  ==> Input File <==

--------------------------------------------------------------------------
#psi4
#
memory 32 gb

molecule  {
0 1
  O       -1.4243350     1.8531120    -0.0084660
  N       -1.1176450    -0.4263010     0.0065070
  N        0.7429240     1.0712790     0.0095610
  N        2.8919430     0.2615640    -0.0759850
  C       -0.2733660    -1.4960510    -0.0007800
  C        1.0765330    -1.3300920    -0.0040440
  C       -0.6338910     0.9109410     0.0155220
  C       -2.5617390    -0.6507120     0.0005160
  C        1.5469536    -0.0159767     0.0236090
  H       -0.7522370    -2.4720050    -0.0099570
  H        1.7553550    -2.1750520    -0.0313920
  H       -2.8635010    -1.2105310     0.8892080
  H       -2.8583950    -1.1972750    -0.8980640
  H       -3.0263160     0.3321150     0.0069490
  H        3.4741972    -0.4449240     0.3562050
  H        3.1453740     1.2255370     0.1175850
units angstrom
no_reorient  #important for SAPT in psi4, default
symmetry c1  #important for SAPT in psi4, default
}

set PROPERTIES_ORIGIN ["COM"]
properties('MP2/aug-cc-pvtz', properties = ['dipole'])
--------------------------------------------------------------------------

    Molecular point group: c1
  Charge       = 0
  Multiplicity = 1
  Basis Set: AUG-CC-PVTZ
    Blend: AUG-CC-PVTZ
  Basis Set: (AUG-CC-PVTZ AUX)
    Blend: AUG-CC-PVTZ-JKFIT

    Orbital Energies [Eh]
    ---------------------

    Doubly Occupied:

       1A    -20.499739     2A    -15.628227     3A    -15.593015
       4A    -15.542375     5A    -11.368302     6A    -11.349258
       7A    -11.332525     8A    -11.271316     9A    -11.245398
      10A     -1.379889    11A     -1.294239    12A     -1.266471
      13A     -1.162359    14A     -1.078454    15A     -0.967083
      16A     -0.904019    17A     -0.848871    18A     -0.760441
      19A     -0.725568    20A     -0.683331    21A     -0.672356
      22A     -0.655539    23A     -0.626216    24A     -0.604528
      25A     -0.589326    26A     -0.577121    27A     -0.559612
      28A     -0.521994    29A     -0.476388    30A     -0.437811
      31A     -0.417984    32A     -0.384058    33A     -0.339537

  @DF-RHF Final Energy:  -431.79603889999061

   => Energetics <=

    Nuclear Repulsion Energy =            440.7790372008101940
    One-Electron Energy =               -1461.6234523880707457
    Two-Electron Energy =                 589.0483762872700026
    Total Energy =                       -431.7960388999905490
  Basis Set: (AUG-CC-PVTZ AUX)
    Blend: AUG-CC-PVTZ-RI
    Molecular point group: c1

    Geometry (in Angstrom), charge = 0, multiplicity = 1:

       Center              X                  Y                   Z               Mass
    ------------   -----------------  -----------------  -----------------  -----------------
         O           -1.433820820459     1.810224835407    -0.007485212721    15.994914619570
         N           -1.127130820459    -0.469188164593     0.007487787279    14.003074004430
         N            0.733438179541     1.028391835407     0.010541787279    14.003074004430
         N            2.882457179541     0.218676835407    -0.075004212721    14.003074004430
         C           -0.282851820459    -1.538938164593     0.000200787279    12.000000000000
         C            1.067047179541    -1.372979164593    -0.003063212721    12.000000000000
         C           -0.643376820459     0.868053835407     0.016502787279    12.000000000000
         C           -2.571224820459    -0.693599164593     0.001496787279    12.000000000000
         C            1.537467779541    -0.058863864593     0.024589787279    12.000000000000
         H           -0.761722820459    -2.514892164593    -0.008976212721     1.007825032230
         H            1.745869179541    -2.217939164593    -0.030411212721     1.007825032230
         H           -2.872986820459    -1.253418164593     0.890188787279     1.007825032230
         H           -2.867880820459    -1.240162164593    -0.897083212721     1.007825032230
         H           -3.035801820459     0.289227835407     0.007929787279     1.007825032230
         H            3.464711379541    -0.487811164593     0.357185787279     1.007825032230
         H            3.135888179541     1.182649835407     0.118565787279     1.007825032230

  Basis Set: AUG-CC-PVTZ
    Blend: AUG-CC-PVTZ
  Basis Set: (AUG-CC-PVTZ AUX)
    Blend: AUG-CC-PVTZ-JKFIT
	 Reference Energy          =    -431.7960388999906058 [Eh]
	 Singles Energy            =      -0.0000000000000000 [Eh]
	 Same-Spin Energy          =      -0.4513450776936654 [Eh]
	 Opposite-Spin Energy      =      -1.3734007562818951 [Eh]
	 Correlation Energy        =      -1.8247458339755604 [Eh]
	 Total Energy              =    -433.6207847339661612 [Eh]

	 ================> DF-SCS-MP2 Energies <==================
	-----------------------------------------------------------
	 SCS Same-Spin Scale       =       0.3333333333333333 [-]
	 SCS Opposite-Spin Scale   =       1.2000000000000000 [-]
	 SCS Same-Spin Energy      =      -0.1504483592312218 [Eh]
	 SCS Opposite-Spin Energy  =      -1.6480809075382741 [Eh]
	 SCS Correlation Energy    =      -1.7985292667694959 [Eh]
	 SCS Total Energy          =    -433.5945681667600979 [Eh]
	-----------------------------------------------------------

  Dipole Moment: [D]
     X:     1.6717      Y:    -5.8225      Z:     0.8537     Total:     6.1176

*** Psi4 exiting successfully. Buy a developer a beer!
