                               Psi4 1.4a3.dev225

  ==> Input File <==

--------------------------------------------------------------------------
#psi4
#
memory 32 gb

molecule  {
0 1
  O       -1.4602810    -1.8042760    -0.0008590
  N       -1.1067000     0.4494610     0.0014260
  N        0.7338450    -1.0777760     0.0056990
  N        2.8872480    -0.2944040    -0.0665390
  C       -0.2576190     1.5082170    -0.0002850
  C        1.0914800     1.3228940    -0.0047970
  C       -0.6316600    -0.8954310    -0.0014820
  C       -2.5563510     0.6193970     0.0049040
  C        1.5404980    -0.0347530    -0.0000590
  H       -0.7147670     2.4940890    -0.0022110
  H        1.7746080     2.1637920    -0.0246520
  H       -2.7731033     1.6374911     0.0041865
  H       -2.9802500     0.1433220     0.8903410
  H       -2.9840040     0.1411790    -0.8774920
  H        3.5206970     0.4000120     0.3068300
  H        3.1306380    -1.2574880     0.1361150
units angstrom
no_reorient  #important for SAPT in psi4, default
symmetry c1  #important for SAPT in psi4, default
}

set PROPERTIES_ORIGIN ["COM"]
properties('MP2/aug-cc-pvtz', properties = ['dipole'])
--------------------------------------------------------------------------

    Molecular point group: c1
  Charge       = 0
  Multiplicity = 1
  Basis Set: AUG-CC-PVTZ
    Blend: AUG-CC-PVTZ
  Basis Set: (AUG-CC-PVTZ AUX)
    Blend: AUG-CC-PVTZ-JKFIT

    Orbital Energies [Eh]
    ---------------------

    Doubly Occupied:

       1A    -20.502615     2A    -15.625756     3A    -15.591467
       4A    -15.542293     5A    -11.368796     6A    -11.349374
       7A    -11.328246     8A    -11.267445     9A    -11.243378
      10A     -1.382825    11A     -1.295303    12A     -1.267841
      13A     -1.171546    14A     -1.072804    15A     -0.969187
      16A     -0.899262    17A     -0.855767    18A     -0.759783
      19A     -0.724881    20A     -0.687039    21A     -0.674297
      22A     -0.654833    23A     -0.622452    24A     -0.602704
      25A     -0.594608    26A     -0.576936    27A     -0.569491
      28A     -0.516738    29A     -0.480040    30A     -0.442423
      31A     -0.418154    32A     -0.384865    33A     -0.337313

  @DF-RHF Final Energy:  -431.80229744942358

   => Energetics <=

    Nuclear Repulsion Energy =            441.8204028946689732
    One-Electron Energy =               -1463.6844730657032869
    Two-Electron Energy =                 590.0617727216107369
    Total Energy =                       -431.8022974494235768
  Basis Set: (AUG-CC-PVTZ AUX)
    Blend: AUG-CC-PVTZ-RI
    Molecular point group: c1

    Geometry (in Angstrom), charge = 0, multiplicity = 1:

       Center              X                  Y                   Z               Mass
    ------------   -----------------  -----------------  -----------------  -----------------
         O           -1.468710036541    -1.758145101490     0.002578097011    15.994914619570
         N           -1.115129036541     0.495591898510     0.004863097011    14.003074004430
         N            0.725415963459    -1.031645101490     0.009136097011    14.003074004430
         N            2.878818963459    -0.248273101490    -0.063101902989    14.003074004430
         C           -0.266048036541     1.554347898510     0.003152097011    12.000000000000
         C            1.083050963459     1.369024898510    -0.001359902989    12.000000000000
         C           -0.640089036541    -0.849300101490     0.001955097011    12.000000000000
         C           -2.564780036541     0.665527898510     0.008341097011    12.000000000000
         C            1.532068963459     0.011377898510     0.003378097011    12.000000000000
         H           -0.723196036541     2.540219898510     0.001226097011     1.007825032230
         H            1.766178963459     2.209922898510    -0.021214902989     1.007825032230
         H           -2.781532336541     1.683621998510     0.007623597011     1.007825032230
         H           -2.988679036541     0.189452898510     0.893778097011     1.007825032230
         H           -2.992433036541     0.187309898510    -0.874054902989     1.007825032230
         H            3.512267963459     0.446142898510     0.310267097011     1.007825032230
         H            3.122208963459    -1.211357101490     0.139552097011     1.007825032230

  Basis Set: AUG-CC-PVTZ
    Blend: AUG-CC-PVTZ
  Basis Set: (AUG-CC-PVTZ AUX)
    Blend: AUG-CC-PVTZ-JKFIT
	 Reference Energy          =    -431.8022974494235768 [Eh]
	 Singles Energy            =      -0.0000000000000000 [Eh]
	 Same-Spin Energy          =      -0.4503966724488930 [Eh]
	 Opposite-Spin Energy      =      -1.3715944317288495 [Eh]
	 Correlation Energy        =      -1.8219911041777426 [Eh]
	 Total Energy              =    -433.6242885536013318 [Eh]

	 ================> DF-SCS-MP2 Energies <==================
	-----------------------------------------------------------
	 SCS Same-Spin Scale       =       0.3333333333333333 [-]
	 SCS Opposite-Spin Scale   =       1.2000000000000000 [-]
	 SCS Same-Spin Energy      =      -0.1501322241496310 [Eh]
	 SCS Opposite-Spin Energy  =      -1.6459133180746195 [Eh]
	 SCS Correlation Energy    =      -1.7960455422242505 [Eh]
	 SCS Total Energy          =    -433.5983429916478258 [Eh]
	-----------------------------------------------------------

  Dipole Moment: [D]
     X:     1.7878      Y:     5.6273      Z:     0.7692     Total:     5.9544

*** Psi4 exiting successfully. Buy a developer a beer!
