                               Psi4 1.3.2 release

  ==> Input File <==

--------------------------------------------------------------------------
#psi4
#
memory 32 gb

molecule  {
0 1
  O       -1.4243350     1.8531120    -0.0084660
  N       -1.1176450    -0.4263010     0.0065070
  N        0.7429240     1.0712790     0.0095610
  N        2.8919430     0.2615640    -0.0759850
  C       -0.2702668    -1.5195756    -0.0014494
  C        1.0765330    -1.3300920    -0.0040440
  C       -0.6338910     0.9109410     0.0155220
  C       -2.5617390    -0.6507120     0.0005160
  C        1.5376510     0.0247200    -0.0002060
  H       -0.7522370    -2.4720050    -0.0099570
  H        1.7404977    -2.1867684    -0.0316299
  H       -2.8635010    -1.2105310     0.8892080
  H       -2.8583950    -1.1972750    -0.8980640
  H       -3.0263160     0.3321150     0.0069490
  H        3.5027140    -0.4263080     0.3467730
  H        3.1453740     1.2255370     0.1175850
units angstrom
no_reorient  #important for SAPT in psi4, default
symmetry c1  #important for SAPT in psi4, default
}

set PROPERTIES_ORIGIN ["COM"]
properties('MP2/aug-cc-pvtz', properties = ['dipole'])
--------------------------------------------------------------------------

    Molecular point group: c1
  Charge       = 0
  Multiplicity = 1
  Basis Set: AUG-CC-PVTZ
    Blend: AUG-CC-PVTZ
  Basis Set: (AUG-CC-PVTZ AUX)
    Blend: AUG-CC-PVTZ-JKFIT

    Orbital Energies [Eh]
    ---------------------

    Doubly Occupied:

       1A    -20.502929     2A    -15.623435     3A    -15.592430
       4A    -15.544418     5A    -11.371840     6A    -11.350801
       7A    -11.327134     8A    -11.268763     9A    -11.248069
      10A     -1.380739    11A     -1.294057    12A     -1.264131
      13A     -1.170772    14A     -1.073518    15A     -0.962629
      16A     -0.900126    17A     -0.852987    18A     -0.757997
      19A     -0.725535    20A     -0.684526    21A     -0.675914
      22A     -0.652722    23A     -0.622970    24A     -0.605813
      25A     -0.590729    26A     -0.579345    27A     -0.555618
      28A     -0.521724    29A     -0.473553    30A     -0.440917
      31A     -0.420132    32A     -0.387722    33A     -0.339983

  @DF-RHF Final Energy:  -431.79955600430458

   => Energetics <=

    Nuclear Repulsion Energy =            440.4433273130591147
    One-Electron Energy =               -1460.9578123327371486
    Two-Electron Energy =                 588.7149290153734000
    Total Energy =                       -431.7995560043045771
  Basis Set: (AUG-CC-PVTZ AUX)
    Blend: AUG-CC-PVTZ-RI
    Molecular point group: c1

    Geometry (in Angstrom), charge = 0, multiplicity = 1:

       Center              X                  Y                   Z               Mass
    ------------   -----------------  -----------------  -----------------  -----------------
         O           -1.433335653804     1.808521487869    -0.005057889768    15.994914619570
         N           -1.126645653804    -0.470891512131     0.009915110232    14.003074004430
         N            0.733923346196     1.026688487869     0.012969110232    14.003074004430
         N            2.882942346196     0.216973487869    -0.072576889768    14.003074004430
         C           -0.279267453804    -1.564166112131     0.001958710232    12.000000000000
         C            1.067532346196    -1.374682512131    -0.000635889768    12.000000000000
         C           -0.642891653804     0.866350487869     0.018930110232    12.000000000000
         C           -2.570739653804    -0.695302512131     0.003924110232    12.000000000000
         C            1.528650346196    -0.019870512131     0.003202110232    12.000000000000
         H           -0.761237653804    -2.516595512131    -0.006548889768     1.007825032230
         H            1.731497046196    -2.231358912131    -0.028221789768     1.007825032230
         H           -2.872501653804    -1.255121512131     0.892616110232     1.007825032230
         H           -2.867395653804    -1.241865512131    -0.894655889768     1.007825032230
         H           -3.035316653804     0.287524487869     0.010357110232     1.007825032230
         H            3.493713346196    -0.470898512131     0.350181110232     1.007825032230
         H            3.136373346196     1.180946487869     0.120993110232     1.007825032230

  Basis Set: AUG-CC-PVTZ
    Blend: AUG-CC-PVTZ
  Basis Set: (AUG-CC-PVTZ AUX)
    Blend: AUG-CC-PVTZ-JKFIT
	 Reference Energy          =    -431.7995560043045771 [Eh]
	 Singles Energy            =      -0.0000000000000000 [Eh]
	 Same-Spin Energy          =      -0.4503689293625056 [Eh]
	 Opposite-Spin Energy      =      -1.3725391532838469 [Eh]
	 Correlation Energy        =      -1.8229080826463524 [Eh]
	 Total Energy              =    -433.6224640869509130 [Eh]

	 ================> DF-SCS-MP2 Energies <==================
	-----------------------------------------------------------
	 SCS Same-Spin Scale       =       0.3333333333333333 [-]
	 SCS Opposite-Spin Scale   =       1.2000000000000000 [-]
	 SCS Same-Spin Energy      =      -0.1501229764541685 [Eh]
	 SCS Opposite-Spin Energy  =      -1.6470469839406163 [Eh]
	 SCS Correlation Energy    =      -1.7971699603947848 [Eh]
	 SCS Total Energy          =    -433.5967259646993739 [Eh]
	-----------------------------------------------------------

  Dipole Moment: [D]
     X:     1.7816      Y:    -5.6630      Z:     0.8324     Total:     5.9947

*** Psi4 exiting successfully. Buy a developer a beer!
