                               Psi4 1.3.2 release

  ==> Input File <==

--------------------------------------------------------------------------
#psi4
#
memory 32 gb

molecule  {
0 1
  O       -1.4243350     1.8531120    -0.0084660
  N       -1.1176450    -0.4263010     0.0065070
  N        0.7429240     1.0712790     0.0095610
  N        2.8919430     0.2615640    -0.0759850
  C       -0.2733660    -1.4960510    -0.0007800
  C        1.0779294    -1.3418775    -0.0041821
  C       -0.6338910     0.9109410     0.0155220
  C       -2.5617390    -0.6507120     0.0005160
  C        1.5376510     0.0247200    -0.0002060
  H       -0.7437018    -2.4761461    -0.0100361
  H        1.7553550    -2.1750520    -0.0313920
  H       -2.8635010    -1.2105310     0.8892080
  H       -2.8583950    -1.1972750    -0.8980640
  H       -3.0263160     0.3321150     0.0069490
  H        3.5027140    -0.4263080     0.3467730
  H        3.1453740     1.2255370     0.1175850
units angstrom
no_reorient  #important for SAPT in psi4, default
symmetry c1  #important for SAPT in psi4, default
}

set PROPERTIES_ORIGIN ["COM"]
properties('MP2/aug-cc-pvtz', properties = ['dipole'])
--------------------------------------------------------------------------

    Molecular point group: c1
  Charge       = 0
  Multiplicity = 1
  Basis Set: AUG-CC-PVTZ
    Blend: AUG-CC-PVTZ
  Basis Set: (AUG-CC-PVTZ AUX)
    Blend: AUG-CC-PVTZ-JKFIT

    Orbital Energies [Eh]
    ---------------------

    Doubly Occupied:

       1A    -20.503951     2A    -15.625210     3A    -15.591815
       4A    -15.543937     5A    -11.372525     6A    -11.350311
       7A    -11.326612     8A    -11.270320     9A    -11.246023
      10A     -1.382646    11A     -1.295646    12A     -1.267262
      13A     -1.170782    14A     -1.072316    15A     -0.964822
      16A     -0.898069    17A     -0.854120    18A     -0.758562
      19A     -0.723637    20A     -0.686807    21A     -0.675026
      22A     -0.655299    23A     -0.621773    24A     -0.600438
      25A     -0.593110    26A     -0.579506    27A     -0.559400
      28A     -0.521786    29A     -0.476263    30A     -0.441181
      31A     -0.419723    32A     -0.387723    33A     -0.339213

  @DF-RHF Final Energy:  -431.80106892323073

   => Energetics <=

    Nuclear Repulsion Energy =            440.6992308656695059
    One-Electron Energy =               -1461.4489708267774404
    Two-Electron Energy =                 588.9486710378772614
    Total Energy =                       -431.8010689232306731
  Basis Set: (AUG-CC-PVTZ AUX)
    Blend: AUG-CC-PVTZ-RI
    Molecular point group: c1

    Geometry (in Angstrom), charge = 0, multiplicity = 1:

       Center              X                  Y                   Z               Mass
    ------------   -----------------  -----------------  -----------------  -----------------
         O           -1.433360777540     1.807334017302    -0.005110150279    15.994914619570
         N           -1.126670777540    -0.472078982698     0.009862849721    14.003074004430
         N            0.733898222460     1.025501017302     0.012916849721    14.003074004430
         N            2.882917222460     0.215786017302    -0.072629150279    14.003074004430
         C           -0.282391777540    -1.541828982698     0.002575849721    12.000000000000
         C            1.068903622460    -1.387655482698    -0.000826250279    12.000000000000
         C           -0.642916777540     0.865163017302     0.018877849721    12.000000000000
         C           -2.570764777540    -0.696489982698     0.003871849721    12.000000000000
         C            1.528625222460    -0.021057982698     0.003149849721    12.000000000000
         H           -0.752727577540    -2.521924082698    -0.006680250279     1.007825032230
         H            1.746329222460    -2.220829982698    -0.028036150279     1.007825032230
         H           -2.872526777540    -1.256308982698     0.892563849721     1.007825032230
         H           -2.867420777540    -1.243052982698    -0.894708150279     1.007825032230
         H           -3.035341777540     0.286337017302     0.010304849721     1.007825032230
         H            3.493688222460    -0.472085982698     0.350128849721     1.007825032230
         H            3.136348222460     1.179759017302     0.120940849721     1.007825032230

  Basis Set: AUG-CC-PVTZ
    Blend: AUG-CC-PVTZ
  Basis Set: (AUG-CC-PVTZ AUX)
    Blend: AUG-CC-PVTZ-JKFIT
	 Reference Energy          =    -431.8010689232307300 [Eh]
	 Singles Energy            =      -0.0000000000000000 [Eh]
	 Same-Spin Energy          =      -0.4502070960610551 [Eh]
	 Opposite-Spin Energy      =      -1.3720291722572591 [Eh]
	 Correlation Energy        =      -1.8222362683183142 [Eh]
	 Total Energy              =    -433.6233051915490364 [Eh]

	 ================> DF-SCS-MP2 Energies <==================
	-----------------------------------------------------------
	 SCS Same-Spin Scale       =       0.3333333333333333 [-]
	 SCS Opposite-Spin Scale   =       1.2000000000000000 [-]
	 SCS Same-Spin Energy      =      -0.1500690320203517 [Eh]
	 SCS Opposite-Spin Energy  =      -1.6464350067087108 [Eh]
	 SCS Correlation Energy    =      -1.7965040387290625 [Eh]
	 SCS Total Energy          =    -433.5975729619597701 [Eh]
	-----------------------------------------------------------

  Dipole Moment: [D]
     X:     1.7259      Y:    -5.6107      Z:     0.8315     Total:     5.9287

*** Psi4 exiting successfully. Buy a developer a beer!
