                               Psi4 1.3.2 release

  ==> Input File <==

--------------------------------------------------------------------------
#psi4
#
memory 32 gb

molecule  {
0 1
  O       -1.4243350     1.8531120    -0.0084660
  N       -1.1176450    -0.4263010     0.0065070
  N        0.7429240     1.0712790     0.0095610
  N        2.8898442     0.2733885    -0.0755840
  C       -0.2733660    -1.4960510    -0.0007800
  C        1.0647514    -1.3260268    -0.0032423
  C       -0.6338910     0.9109410     0.0155220
  C       -2.5617390    -0.6507120     0.0005160
  C        1.5376510     0.0247200    -0.0002060
  H       -0.7522370    -2.4720050    -0.0099570
  H        1.7553550    -2.1750520    -0.0313920
  H       -2.8635010    -1.2105310     0.8892080
  H       -2.8583950    -1.1972750    -0.8980640
  H       -3.0263160     0.3321150     0.0069490
  H        3.5027140    -0.4263080     0.3467730
  H        3.1453740     1.2255370     0.1175850
units angstrom
no_reorient  #important for SAPT in psi4, default
symmetry c1  #important for SAPT in psi4, default
}

set PROPERTIES_ORIGIN ["COM"]
properties('MP2/aug-cc-pvtz', properties = ['dipole'])
--------------------------------------------------------------------------

    Molecular point group: c1
  Charge       = 0
  Multiplicity = 1
  Basis Set: AUG-CC-PVTZ
    Blend: AUG-CC-PVTZ
  Basis Set: (AUG-CC-PVTZ AUX)
    Blend: AUG-CC-PVTZ-JKFIT

    Orbital Energies [Eh]
    ---------------------

    Doubly Occupied:

       1A    -20.503148     2A    -15.624273     3A    -15.592083
       4A    -15.543281     5A    -11.371749     6A    -11.349487
       7A    -11.325390     8A    -11.269985     9A    -11.246260
      10A     -1.382263    11A     -1.296243    12A     -1.267520
      13A     -1.170463    14A     -1.074750    15A     -0.964842
      16A     -0.899070    17A     -0.853662    18A     -0.760332
      19A     -0.724147    20A     -0.683902    21A     -0.673847
      22A     -0.655285    23A     -0.621591    24A     -0.604351
      25A     -0.590752    26A     -0.579657    27A     -0.558762
      28A     -0.521777    29A     -0.477081    30A     -0.440431
      31A     -0.419338    32A     -0.387659    33A     -0.339876

  @DF-RHF Final Energy:  -431.80100061129144

   => Energetics <=

    Nuclear Repulsion Energy =            441.1341391660425302
    One-Electron Energy =               -1462.3237625716164985
    Two-Electron Energy =                 589.3886227942824689
    Total Energy =                       -431.8010006112914425
  Basis Set: (AUG-CC-PVTZ AUX)
    Blend: AUG-CC-PVTZ-RI
    Molecular point group: c1

    Geometry (in Angstrom), charge = 0, multiplicity = 1:

       Center              X                  Y                   Z               Mass
    ------------   -----------------  -----------------  -----------------  -----------------
         O           -1.431792495544     1.804455683823    -0.005245866729    15.994914619570
         N           -1.125102495544    -0.474957316177     0.009727133271    14.003074004430
         N            0.735466504456     1.022622683823     0.012781133271    14.003074004430
         N            2.882386704456     0.224732183823    -0.072363866729    14.003074004430
         C           -0.280823495544    -1.544707316177     0.002440133271    12.000000000000
         C            1.057293904456    -1.374683116177    -0.000022166729    12.000000000000
         C           -0.641348495544     0.862284683823     0.018742133271    12.000000000000
         C           -2.569196495544    -0.699368316177     0.003736133271    12.000000000000
         C            1.530193504456    -0.023936316177     0.003014133271    12.000000000000
         H           -0.759694495544    -2.520661316177    -0.006736866729     1.007825032230
         H            1.747897504456    -2.223708316177    -0.028171866729     1.007825032230
         H           -2.870958495544    -1.259187316177     0.892428133271     1.007825032230
         H           -2.865852495544    -1.245931316177    -0.894843866729     1.007825032230
         H           -3.033773495544     0.283458683823     0.010169133271     1.007825032230
         H            3.495256504456    -0.474964316177     0.349993133271     1.007825032230
         H            3.137916504456     1.176880683823     0.120805133271     1.007825032230

  Basis Set: AUG-CC-PVTZ
    Blend: AUG-CC-PVTZ
  Basis Set: (AUG-CC-PVTZ AUX)
    Blend: AUG-CC-PVTZ-JKFIT
	 Reference Energy          =    -431.8010006112914425 [Eh]
	 Singles Energy            =      -0.0000000000000000 [Eh]
	 Same-Spin Energy          =      -0.4502929083440251 [Eh]
	 Opposite-Spin Energy      =      -1.3719865176702042 [Eh]
	 Correlation Energy        =      -1.8222794260142292 [Eh]
	 Total Energy              =    -433.6232800373056762 [Eh]

	 ================> DF-SCS-MP2 Energies <==================
	-----------------------------------------------------------
	 SCS Same-Spin Scale       =       0.3333333333333333 [-]
	 SCS Opposite-Spin Scale   =       1.2000000000000000 [-]
	 SCS Same-Spin Energy      =      -0.1500976361146750 [Eh]
	 SCS Opposite-Spin Energy  =      -1.6463838212042450 [Eh]
	 SCS Correlation Energy    =      -1.7964814573189201 [Eh]
	 SCS Total Energy          =    -433.5974820686103612 [Eh]
	-----------------------------------------------------------

  Dipole Moment: [D]
     X:     1.7348      Y:    -5.6450      Z:     0.8295     Total:     5.9635

*** Psi4 exiting successfully. Buy a developer a beer!
