                               Psi4 1.3.2 release

  ==> Input File <==

--------------------------------------------------------------------------
#psi4
#
memory 32 gb

molecule  {
0 1
  O       -1.4243350     1.8531120    -0.0084660
  N       -1.1361865    -0.4411978     0.0063442
  N        0.7429240     1.0712790     0.0095610
  N        2.8919430     0.2615640    -0.0759850
  C       -0.2733660    -1.4960510    -0.0007800
  C        1.0765330    -1.3300920    -0.0040440
  C       -0.6338910     0.9109410     0.0155220
  C       -2.5617390    -0.6507120     0.0005160
  C        1.5376510     0.0247200    -0.0002060
  H       -0.7691975    -2.4634989    -0.0099198
  H        1.7553550    -2.1750520    -0.0313920
  H       -2.8635010    -1.2105310     0.8892080
  H       -2.8583950    -1.1972750    -0.8980640
  H       -3.0263160     0.3321150     0.0069490
  H        3.5027140    -0.4263080     0.3467730
  H        3.1453740     1.2255370     0.1175850
units angstrom
no_reorient  #important for SAPT in psi4, default
symmetry c1  #important for SAPT in psi4, default
}

set PROPERTIES_ORIGIN ["COM"]
properties('MP2/aug-cc-pvtz', properties = ['dipole'])
--------------------------------------------------------------------------

    Molecular point group: c1
  Charge       = 0
  Multiplicity = 1
  Basis Set: AUG-CC-PVTZ
    Blend: AUG-CC-PVTZ
  Basis Set: (AUG-CC-PVTZ AUX)
    Blend: AUG-CC-PVTZ-JKFIT

    Orbital Energies [Eh]
    ---------------------

    Doubly Occupied:

       1A    -20.505800     2A    -15.624729     3A    -15.592157
       4A    -15.544599     5A    -11.374414     6A    -11.350139
       7A    -11.327284     8A    -11.268461     9A    -11.245826
      10A     -1.382033    11A     -1.296387    12A     -1.268935
      13A     -1.171973    14A     -1.073044    15A     -0.965373
      16A     -0.896256    17A     -0.854118    18A     -0.758692
      19A     -0.722659    20A     -0.687812    21A     -0.673755
      22A     -0.656032    23A     -0.622744    24A     -0.602213
      25A     -0.594289    26A     -0.579924    27A     -0.559067
      28A     -0.521212    29A     -0.476310    30A     -0.441957
      31A     -0.420221    32A     -0.388376    33A     -0.338379

  @DF-RHF Final Energy:  -431.79991903437815

   => Energetics <=

    Nuclear Repulsion Energy =            440.6581842437278169
    One-Electron Energy =               -1461.3458663289600281
    Two-Electron Energy =                 588.8877630508540051
    Total Energy =                       -431.7999190343781493
  Basis Set: (AUG-CC-PVTZ AUX)
    Blend: AUG-CC-PVTZ-RI
    Molecular point group: c1

    Geometry (in Angstrom), charge = 0, multiplicity = 1:

       Center              X                  Y                   Z               Mass
    ------------   -----------------  -----------------  -----------------  -----------------
         O           -1.430945195981     1.807769242807    -0.005106109860    15.994914619570
         N           -1.142796695981    -0.486540557193     0.009704090140    14.003074004430
         N            0.736313804019     1.025936242807     0.012920890140    14.003074004430
         N            2.885332804019     0.216221242807    -0.072625109860    14.003074004430
         C           -0.279976195981    -1.541393757193     0.002579890140    12.000000000000
         C            1.069922804019    -1.375434757193    -0.000684109860    12.000000000000
         C           -0.640501195981     0.865598242807     0.018881890140    12.000000000000
         C           -2.568349195981    -0.696054757193     0.003875890140    12.000000000000
         C            1.531040804019    -0.020622757193     0.003153890140    12.000000000000
         H           -0.775807695981    -2.508841657193    -0.006559909860     1.007825032230
         H            1.748744804019    -2.220394757193    -0.028032109860     1.007825032230
         H           -2.870111195981    -1.255873757193     0.892567890140     1.007825032230
         H           -2.865005195981    -1.242617757193    -0.894704109860     1.007825032230
         H           -3.032926195981     0.286772242807     0.010308890140     1.007825032230
         H            3.496103804019    -0.471650757193     0.350132890140     1.007825032230
         H            3.138763804019     1.180194242807     0.120944890140     1.007825032230

  Basis Set: AUG-CC-PVTZ
    Blend: AUG-CC-PVTZ
  Basis Set: (AUG-CC-PVTZ AUX)
    Blend: AUG-CC-PVTZ-JKFIT
	 Reference Energy          =    -431.7999190343781493 [Eh]
	 Singles Energy            =      -0.0000000000000000 [Eh]
	 Same-Spin Energy          =      -0.4505446898492713 [Eh]
	 Opposite-Spin Energy      =      -1.3724208195682936 [Eh]
	 Correlation Energy        =      -1.8229655094175650 [Eh]
	 Total Energy              =    -433.6228845437956920 [Eh]

	 ================> DF-SCS-MP2 Energies <==================
	-----------------------------------------------------------
	 SCS Same-Spin Scale       =       0.3333333333333333 [-]
	 SCS Opposite-Spin Scale   =       1.2000000000000000 [-]
	 SCS Same-Spin Energy      =      -0.1501815632830904 [Eh]
	 SCS Opposite-Spin Energy  =      -1.6469049834819522 [Eh]
	 SCS Correlation Energy    =      -1.7970865467650428 [Eh]
	 SCS Total Energy          =    -433.5970055811432076 [Eh]
	-----------------------------------------------------------

  Dipole Moment: [D]
     X:     1.7291      Y:    -5.5374      Z:     0.8318     Total:     5.8604

*** Psi4 exiting successfully. Buy a developer a beer!
