                               Psi4 1.3.2 release

  ==> Input File <==

--------------------------------------------------------------------------
#psi4
#
memory 32 gb

molecule  {
0 1
  O       -1.4243350     1.8531120    -0.0084660
  N       -1.1176450    -0.4263010     0.0065070
  N        0.7429240     1.0712790     0.0095610
  N        2.8919430     0.2615640    -0.0759850
  C       -0.2733660    -1.4960510    -0.0007800
  C        1.0765330    -1.3300920    -0.0040440
  C       -0.6338910     0.9109410     0.0155220
  C       -2.5617390    -0.6507120     0.0005160
  C        1.4901052     0.0399776     0.0011990
  H       -0.7522370    -2.4720050    -0.0099570
  H        1.7254535    -2.1982430    -0.0308894
  H       -2.8635010    -1.2105310     0.8892080
  H       -2.8583950    -1.1972750    -0.8980640
  H       -3.0263160     0.3321150     0.0069490
  H        3.5027140    -0.4263080     0.3467730
  H        3.1453740     1.2255370     0.1175850
units angstrom
no_reorient  #important for SAPT in psi4, default
symmetry c1  #important for SAPT in psi4, default
}

set PROPERTIES_ORIGIN ["COM"]
properties('MP2/aug-cc-pvtz', properties = ['dipole'])
--------------------------------------------------------------------------

    Molecular point group: c1
  Charge       = 0
  Multiplicity = 1
  Basis Set: AUG-CC-PVTZ
    Blend: AUG-CC-PVTZ
  Basis Set: (AUG-CC-PVTZ AUX)
    Blend: AUG-CC-PVTZ-JKFIT

    Orbital Energies [Eh]
    ---------------------

    Doubly Occupied:

       1A    -20.508771     2A    -15.627260     3A    -15.582725
       4A    -15.548050     5A    -11.377047     6A    -11.347154
       7A    -11.326153     8A    -11.272232     9A    -11.246445
      10A     -1.388267    11A     -1.299617    12A     -1.264638
      13A     -1.171053    14A     -1.074919    15A     -0.966777
      16A     -0.900218    17A     -0.856102    18A     -0.757579
      19A     -0.721192    20A     -0.680325    21A     -0.670985
      22A     -0.658417    23A     -0.622616    24A     -0.600936
      25A     -0.595347    26A     -0.582728    27A     -0.559316
      28A     -0.517102    29A     -0.478053    30A     -0.449017
      31A     -0.424476    32A     -0.393061    33A     -0.341081

  @DF-RHF Final Energy:  -431.79812131807716

   => Energetics <=

    Nuclear Repulsion Energy =            441.4508243385070614
    One-Electron Energy =               -1462.8785779754084615
    Two-Electron Energy =                 589.6296323188241786
    Total Energy =                       -431.7981213180771647
  Basis Set: (AUG-CC-PVTZ AUX)
    Blend: AUG-CC-PVTZ-RI
    Molecular point group: c1

    Geometry (in Angstrom), charge = 0, multiplicity = 1:

       Center              X                  Y                   Z               Mass
    ------------   -----------------  -----------------  -----------------  -----------------
         O           -1.428354785891     1.804892622048    -0.005262905900    15.994914619570
         N           -1.121664785891    -0.474520377952     0.009710094100    14.003074004430
         N            0.738904214109     1.023059622048     0.012764094100    14.003074004430
         N            2.887923214109     0.213344622048    -0.072781905900    14.003074004430
         C           -0.277385785891    -1.544270377952     0.002423094100    12.000000000000
         C            1.072513214109    -1.378311377952    -0.000840905900    12.000000000000
         C           -0.637910785891     0.862721622048     0.018725094100    12.000000000000
         C           -2.565758785891    -0.698931377952     0.003719094100    12.000000000000
         C            1.486085414109    -0.008241777952     0.004402094100    12.000000000000
         H           -0.756256785891    -2.520224377952    -0.006753905900     1.007825032230
         H            1.721433714109    -2.246462377952    -0.027686305900     1.007825032230
         H           -2.867520785891    -1.258750377952     0.892411094100     1.007825032230
         H           -2.862414785891    -1.245494377952    -0.894860905900     1.007825032230
         H           -3.030335785891     0.283895622048     0.010152094100     1.007825032230
         H            3.498694214109    -0.474527377952     0.349976094100     1.007825032230
         H            3.141354214109     1.177317622048     0.120788094100     1.007825032230

  Basis Set: AUG-CC-PVTZ
    Blend: AUG-CC-PVTZ
  Basis Set: (AUG-CC-PVTZ AUX)
    Blend: AUG-CC-PVTZ-JKFIT
	 Reference Energy          =    -431.7981213180771647 [Eh]
	 Singles Energy            =      -0.0000000000000000 [Eh]
	 Same-Spin Energy          =      -0.4499675524887834 [Eh]
	 Opposite-Spin Energy      =      -1.3719029464975989 [Eh]
	 Correlation Energy        =      -1.8218704989863823 [Eh]
	 Total Energy              =    -433.6199918170635215 [Eh]

	 ================> DF-SCS-MP2 Energies <==================
	-----------------------------------------------------------
	 SCS Same-Spin Scale       =       0.3333333333333333 [-]
	 SCS Opposite-Spin Scale   =       1.2000000000000000 [-]
	 SCS Same-Spin Energy      =      -0.1499891841629278 [Eh]
	 SCS Opposite-Spin Energy  =      -1.6462835357971186 [Eh]
	 SCS Correlation Energy    =      -1.7962727199600463 [Eh]
	 SCS Total Energy          =    -433.5943940380371942 [Eh]
	-----------------------------------------------------------

  Dipole Moment: [D]
     X:     1.2601      Y:    -5.5706      Z:     0.8478     Total:     5.7739

*** Psi4 exiting successfully. Buy a developer a beer!
