                               Psi4 1.3.2 release

  ==> Input File <==

--------------------------------------------------------------------------
#psi4
#
memory 32 gb

molecule  {
0 1
  O       -1.4243350     1.8531120    -0.0084660
  N       -1.1176450    -0.4263010     0.0065070
  N        0.7429240     1.0712790     0.0095610
  N        2.8958310     0.2378619    -0.0767697
  C       -0.2733660    -1.4960510    -0.0007800
  C        1.1002007    -1.3379126    -0.0056465
  C       -0.6338910     0.9109410     0.0155220
  C       -2.5617390    -0.6507120     0.0005160
  C        1.5376510     0.0247200    -0.0002060
  H       -0.7522370    -2.4720050    -0.0099570
  H        1.7553550    -2.1750520    -0.0313920
  H       -2.8635010    -1.2105310     0.8892080
  H       -2.8583950    -1.1972750    -0.8980640
  H       -3.0263160     0.3321150     0.0069490
  H        3.5027140    -0.4263080     0.3467730
  H        3.1453740     1.2255370     0.1175850
units angstrom
no_reorient  #important for SAPT in psi4, default
symmetry c1  #important for SAPT in psi4, default
}

set PROPERTIES_ORIGIN ["COM"]
properties('MP2/aug-cc-pvtz', properties = ['dipole'])
--------------------------------------------------------------------------

    Molecular point group: c1
  Charge       = 0
  Multiplicity = 1
  Basis Set: AUG-CC-PVTZ
    Blend: AUG-CC-PVTZ
  Basis Set: (AUG-CC-PVTZ AUX)
    Blend: AUG-CC-PVTZ-JKFIT

    Orbital Energies [Eh]
    ---------------------

    Doubly Occupied:

       1A    -20.504471     2A    -15.627655     3A    -15.590384
       4A    -15.544209     5A    -11.373267     6A    -11.348946
       7A    -11.330822     8A    -11.271452     9A    -11.245470
      10A     -1.383282    11A     -1.295658    12A     -1.267399
      13A     -1.171299    14A     -1.068688    15A     -0.966238
      16A     -0.900158    17A     -0.854113    18A     -0.756261
      19A     -0.723702    20A     -0.690094    21A     -0.674040
      22A     -0.655987    23A     -0.623332    24A     -0.595734
      25A     -0.595163    26A     -0.580043    27A     -0.559386
      28A     -0.522140    29A     -0.474848    30A     -0.441768
      31A     -0.420571    32A     -0.388185    33A     -0.337203

  @DF-RHF Final Energy:  -431.79823466788645

   => Energetics <=

    Nuclear Repulsion Energy =            440.5034957925574872
    One-Electron Energy =               -1461.0395251338027265
    Two-Electron Energy =                 588.7377946733588487
    Total Energy =                       -431.7982346678863905
  Basis Set: (AUG-CC-PVTZ AUX)
    Blend: AUG-CC-PVTZ-RI
    Molecular point group: c1

    Geometry (in Angstrom), charge = 0, multiplicity = 1:

       Center              X                  Y                   Z               Mass
    ------------   -----------------  -----------------  -----------------  -----------------
         O           -1.435864378114     1.809574161183    -0.004882407267    15.994914619570
         N           -1.129174378114    -0.469838838817     0.010090592733    14.003074004430
         N            0.731394621886     1.027741161183     0.013144592733    14.003074004430
         N            2.884301621886     0.194324061183    -0.073186107267    14.003074004430
         C           -0.284895378114    -1.539588838817     0.002803592733    12.000000000000
         C            1.088671321886    -1.381450438817    -0.002062907267    12.000000000000
         C           -0.645420378114     0.867403161183     0.019105592733    12.000000000000
         C           -2.573268378114    -0.694249838817     0.004099592733    12.000000000000
         C            1.526121621886    -0.018817838817     0.003377592733    12.000000000000
         H           -0.763766378114    -2.515542838817    -0.006373407267     1.007825032230
         H            1.743825621886    -2.218589838817    -0.027808407267     1.007825032230
         H           -2.875030378114    -1.254068838817     0.892791592733     1.007825032230
         H           -2.869924378114    -1.240812838817    -0.894480407267     1.007825032230
         H           -3.037845378114     0.288577161183     0.010532592733     1.007825032230
         H            3.491184621886    -0.469845838817     0.350356592733     1.007825032230
         H            3.133844621886     1.181999161183     0.121168592733     1.007825032230

  Basis Set: AUG-CC-PVTZ
    Blend: AUG-CC-PVTZ
  Basis Set: (AUG-CC-PVTZ AUX)
    Blend: AUG-CC-PVTZ-JKFIT
	 Reference Energy          =    -431.7982346678864474 [Eh]
	 Singles Energy            =      -0.0000000000000000 [Eh]
	 Same-Spin Energy          =      -0.4506180797206872 [Eh]
	 Opposite-Spin Energy      =      -1.3726505209741693 [Eh]
	 Correlation Energy        =      -1.8232686006948566 [Eh]
	 Total Energy              =    -433.6215032685813071 [Eh]

	 ================> DF-SCS-MP2 Energies <==================
	-----------------------------------------------------------
	 SCS Same-Spin Scale       =       0.3333333333333333 [-]
	 SCS Opposite-Spin Scale   =       1.2000000000000000 [-]
	 SCS Same-Spin Energy      =      -0.1502060265735624 [Eh]
	 SCS Opposite-Spin Energy  =      -1.6471806251690031 [Eh]
	 SCS Correlation Energy    =      -1.7973866517425656 [Eh]
	 SCS Total Energy          =    -433.5956213196290037 [Eh]
	-----------------------------------------------------------

  Dipole Moment: [D]
     X:     1.6365      Y:    -5.6074      Z:     0.8381     Total:     5.9011

*** Psi4 exiting successfully. Buy a developer a beer!
