                               Psi4 1.3.2 release

  ==> Input File <==

--------------------------------------------------------------------------
#psi4
#
memory 32 gb

molecule  {
0 1
  O       -1.4243350     1.8531120    -0.0084660
  N       -1.1176450    -0.4263010     0.0065070
  N        0.7429240     1.0712790     0.0095610
  N        2.8919430     0.2615640    -0.0759850
  C       -0.2733660    -1.4960510    -0.0007800
  C        1.0765330    -1.3300920    -0.0040440
  C       -0.6338910     0.9109410     0.0155220
  C       -2.5617390    -0.6507120     0.0005160
  C        1.5355828     0.0349412    -0.0061753
  H       -0.7522370    -2.4720050    -0.0099570
  H        1.7553550    -2.1750520    -0.0313920
  H       -2.8635010    -1.2105310     0.8892080
  H       -2.8583950    -1.1972750    -0.8980640
  H       -3.0263160     0.3321150     0.0069490
  H        3.5097283    -0.4215222     0.3443341
  H        3.1453740     1.2255370     0.1175850
units angstrom
no_reorient  #important for SAPT in psi4, default
symmetry c1  #important for SAPT in psi4, default
}

set PROPERTIES_ORIGIN ["COM"]
properties('MP2/aug-cc-pvtz', properties = ['dipole'])
--------------------------------------------------------------------------

    Molecular point group: c1
  Charge       = 0
  Multiplicity = 1
  Basis Set: AUG-CC-PVTZ
    Blend: AUG-CC-PVTZ
  Basis Set: (AUG-CC-PVTZ AUX)
    Blend: AUG-CC-PVTZ-JKFIT

    Orbital Energies [Eh]
    ---------------------

    Doubly Occupied:

       1A    -20.504539     2A    -15.624732     3A    -15.591125
       4A    -15.543819     5A    -11.373233     6A    -11.349198
       7A    -11.325914     8A    -11.270275     9A    -11.246078
      10A     -1.383296    11A     -1.296607    12A     -1.267722
      13A     -1.172693    14A     -1.071244    15A     -0.964935
      16A     -0.898187    17A     -0.854904    18A     -0.758564
      19A     -0.723557    20A     -0.687097    21A     -0.673686
      22A     -0.655509    23A     -0.621148    24A     -0.600906
      25A     -0.593006    26A     -0.580494    27A     -0.558914
      28A     -0.521895    29A     -0.476243    30A     -0.441541
      31A     -0.420070    32A     -0.388859    33A     -0.338732

  @DF-RHF Final Energy:  -431.80132779440987

   => Energetics <=

    Nuclear Repulsion Energy =            440.9514841626711359
    One-Electron Energy =               -1461.9481844056188038
    Two-Electron Energy =                 589.1953724485377961
    Total Energy =                       -431.8013277944098718
  Basis Set: (AUG-CC-PVTZ AUX)
    Blend: AUG-CC-PVTZ-RI
    Molecular point group: c1

    Geometry (in Angstrom), charge = 0, multiplicity = 1:

       Center              X                  Y                   Z               Mass
    ------------   -----------------  -----------------  -----------------  -----------------
         O           -1.433016075987     1.805150429190    -0.004531601621    15.994914619570
         N           -1.126326075987    -0.474262570810     0.010441398379    14.003074004430
         N            0.734242924013     1.023317429190     0.013495398379    14.003074004430
         N            2.883261924013     0.213602429190    -0.072050601621    14.003074004430
         C           -0.282047075987    -1.544012570810     0.003154398379    12.000000000000
         C            1.067851924013    -1.378053570810    -0.000109601621    12.000000000000
         C           -0.642572075987     0.862979429190     0.019456398379    12.000000000000
         C           -2.570420075987    -0.698673570810     0.004450398379    12.000000000000
         C            1.526901724013    -0.013020370810    -0.002240901621    12.000000000000
         H           -0.760918075987    -2.519966570810    -0.006022601621     1.007825032230
         H            1.746673924013    -2.223013570810    -0.027457601621     1.007825032230
         H           -2.872182075987    -1.258492570810     0.893142398379     1.007825032230
         H           -2.867076075987    -1.245236570810    -0.894129601621     1.007825032230
         H           -3.034997075987     0.284153429190     0.010883398379     1.007825032230
         H            3.501047224013    -0.469483770810     0.348268498379     1.007825032230
         H            3.136692924013     1.177575429190     0.121519398379     1.007825032230

  Basis Set: AUG-CC-PVTZ
    Blend: AUG-CC-PVTZ
  Basis Set: (AUG-CC-PVTZ AUX)
    Blend: AUG-CC-PVTZ-JKFIT
	 Reference Energy          =    -431.8013277944098718 [Eh]
	 Singles Energy            =      -0.0000000000000000 [Eh]
	 Same-Spin Energy          =      -0.4501695994141699 [Eh]
	 Opposite-Spin Energy      =      -1.3719128097322693 [Eh]
	 Correlation Energy        =      -1.8220824091464392 [Eh]
	 Total Energy              =    -433.6234102035563183 [Eh]

	 ================> DF-SCS-MP2 Energies <==================
	-----------------------------------------------------------
	 SCS Same-Spin Scale       =       0.3333333333333333 [-]
	 SCS Opposite-Spin Scale   =       1.2000000000000000 [-]
	 SCS Same-Spin Energy      =      -0.1500565331380566 [Eh]
	 SCS Opposite-Spin Energy  =      -1.6462953716787230 [Eh]
	 SCS Correlation Energy    =      -1.7963519048167795 [Eh]
	 SCS Total Energy          =    -433.5976796992266600 [Eh]
	-----------------------------------------------------------

  Dipole Moment: [D]
     X:     1.7096      Y:    -5.5838      Z:     0.8264     Total:     5.8978

*** Psi4 exiting successfully. Buy a developer a beer!
