                               Psi4 1.3.2 release

  ==> Input File <==

--------------------------------------------------------------------------
#psi4
#
memory 32 gb

molecule  {
0 1
  O       -1.4243350     1.8531120    -0.0084660
  N       -1.0797962    -0.3974894     0.0068259
  N        0.7429240     1.0712790     0.0095610
  N        2.8919430     0.2615640    -0.0759850
  C       -0.2733660    -1.4960510    -0.0007800
  C        1.0765330    -1.3300920    -0.0040440
  C       -0.6338910     0.9109410     0.0155220
  C       -2.5617390    -0.6507120     0.0005160
  C        1.5376510     0.0247200    -0.0002060
  H       -0.7178836    -2.4881229    -0.0100230
  H        1.7553550    -2.1750520    -0.0313920
  H       -2.8635010    -1.2105310     0.8892080
  H       -2.8583950    -1.1972750    -0.8980640
  H       -3.0263160     0.3321150     0.0069490
  H        3.5027140    -0.4263080     0.3467730
  H        3.1453740     1.2255370     0.1175850
units angstrom
no_reorient  #important for SAPT in psi4, default
symmetry c1  #important for SAPT in psi4, default
}

set PROPERTIES_ORIGIN ["COM"]
properties('MP2/aug-cc-pvtz', properties = ['dipole'])
--------------------------------------------------------------------------

    Molecular point group: c1
  Charge       = 0
  Multiplicity = 1
  Basis Set: AUG-CC-PVTZ
    Blend: AUG-CC-PVTZ
  Basis Set: (AUG-CC-PVTZ AUX)
    Blend: AUG-CC-PVTZ-JKFIT

    Orbital Energies [Eh]
    ---------------------

    Doubly Occupied:

       1A    -20.499135     2A    -15.626519     3A    -15.590218
       4A    -15.541547     5A    -11.367675     6A    -11.347450
       7A    -11.327287     8A    -11.274524     9A    -11.246399
      10A     -1.384200    11A     -1.295500    12A     -1.264935
      13A     -1.168038    14A     -1.072863    15A     -0.965595
      16A     -0.904910    17A     -0.853066    18A     -0.760336
      19A     -0.725776    20A     -0.681978    21A     -0.674482
      22A     -0.655088    23A     -0.620590    24A     -0.601741
      25A     -0.588799    26A     -0.579917    27A     -0.556453
      28A     -0.523458    29A     -0.475760    30A     -0.438618
      31A     -0.418203    32A     -0.386604    33A     -0.340183

  @DF-RHF Final Energy:  -431.79851154337308

   => Energetics <=

    Nuclear Repulsion Energy =            441.4697840417055090
    One-Electron Energy =               -1463.0208944657249504
    Two-Electron Energy =                 589.7525988806463602
    Total Energy =                       -431.7985115433731380
  Basis Set: (AUG-CC-PVTZ AUX)
    Blend: AUG-CC-PVTZ-RI
    Molecular point group: c1

    Geometry (in Angstrom), charge = 0, multiplicity = 1:

       Center              X                  Y                   Z               Mass
    ------------   -----------------  -----------------  -----------------  -----------------
         O           -1.437672849088     1.803073573642    -0.005159215017    15.994914619570
         N           -1.093134049088    -0.447527826358     0.010132684983    14.003074004430
         N            0.729586150912     1.021240573642     0.012867784983    14.003074004430
         N            2.878605150912     0.211525573642    -0.072678215017    14.003074004430
         C           -0.286703849088    -1.546089426358     0.002526784983    12.000000000000
         C            1.063195150912    -1.380130426358    -0.000737215017    12.000000000000
         C           -0.647228849088     0.860902573642     0.018828784983    12.000000000000
         C           -2.575076849088    -0.700750426358     0.003822784983    12.000000000000
         C            1.524313150912    -0.025318426358     0.003100784983    12.000000000000
         H           -0.731221449088    -2.538161326358    -0.006716215017     1.007825032230
         H            1.742017150912    -2.225090426358    -0.028085215017     1.007825032230
         H           -2.876838849088    -1.260569426358     0.892514784983     1.007825032230
         H           -2.871732849088    -1.247313426358    -0.894757215017     1.007825032230
         H           -3.039653849088     0.282076573642     0.010255784983     1.007825032230
         H            3.489376150912    -0.476346426358     0.350079784983     1.007825032230
         H            3.132036150912     1.175498573642     0.120891784983     1.007825032230

  Basis Set: AUG-CC-PVTZ
    Blend: AUG-CC-PVTZ
  Basis Set: (AUG-CC-PVTZ AUX)
    Blend: AUG-CC-PVTZ-JKFIT
	 Reference Energy          =    -431.7985115433730812 [Eh]
	 Singles Energy            =      -0.0000000000000000 [Eh]
	 Same-Spin Energy          =      -0.4503036173459304 [Eh]
	 Opposite-Spin Energy      =      -1.3721076124957736 [Eh]
	 Correlation Energy        =      -1.8224112298417041 [Eh]
	 Total Energy              =    -433.6209227732147724 [Eh]

	 ================> DF-SCS-MP2 Energies <==================
	-----------------------------------------------------------
	 SCS Same-Spin Scale       =       0.3333333333333333 [-]
	 SCS Opposite-Spin Scale   =       1.2000000000000000 [-]
	 SCS Same-Spin Energy      =      -0.1501012057819768 [Eh]
	 SCS Opposite-Spin Energy  =      -1.6465291349949283 [Eh]
	 SCS Correlation Energy    =      -1.7966303407769051 [Eh]
	 SCS Total Energy          =    -433.5951418841499958 [Eh]
	-----------------------------------------------------------

  Dipole Moment: [D]
     X:     1.6514      Y:    -5.8189      Z:     0.8337     Total:     6.1059

*** Psi4 exiting successfully. Buy a developer a beer!
