                               Psi4 1.3.2 release

  ==> Input File <==

--------------------------------------------------------------------------
#psi4
#
memory 32 gb

molecule  {
0 1
  O       -1.4243350     1.8531120    -0.0084660
  N       -1.0706809    -0.4423666     0.0061169
  N        0.7476789     1.0231326     0.0091180
  N        2.8919430     0.2615640    -0.0759850
  C       -0.2733660    -1.4960510    -0.0007800
  C        1.0765330    -1.3300920    -0.0040440
  C       -0.6338910     0.9109410     0.0155220
  C       -2.5617390    -0.6507120     0.0005160
  C        1.5376510     0.0247200    -0.0002060
  H       -0.7522370    -2.4720050    -0.0099570
  H        1.7553550    -2.1750520    -0.0313920
  H       -2.8635010    -1.2105310     0.8892080
  H       -2.8583950    -1.1972750    -0.8980640
  H       -3.0263160     0.3321150     0.0069490
  H        3.5027140    -0.4263080     0.3467730
  H        3.1453740     1.2255370     0.1175850
units angstrom
no_reorient  #important for SAPT in psi4, default
symmetry c1  #important for SAPT in psi4, default
}

set PROPERTIES_ORIGIN ["COM"]
properties('MP2/aug-cc-pvtz', properties = ['dipole'])
--------------------------------------------------------------------------

    Molecular point group: c1
  Charge       = 0
  Multiplicity = 1
  Basis Set: AUG-CC-PVTZ
    Blend: AUG-CC-PVTZ
  Basis Set: (AUG-CC-PVTZ AUX)
    Blend: AUG-CC-PVTZ-JKFIT

    Orbital Energies [Eh]
    ---------------------

    Doubly Occupied:

       1A    -20.511820     2A    -15.626491     3A    -15.585252
       4A    -15.536996     5A    -11.378464     6A    -11.339794
       7A    -11.320514     8A    -11.275689     9A    -11.237929
      10A     -1.387749    11A     -1.305805    12A     -1.270496
      13A     -1.173726    14A     -1.067441    15A     -0.966374
      16A     -0.902559    17A     -0.858909    18A     -0.759500
      19A     -0.726504    20A     -0.683735    21A     -0.669419
      22A     -0.656786    23A     -0.623938    24A     -0.602238
      25A     -0.586796    26A     -0.582885    27A     -0.565194
      28A     -0.523522    29A     -0.484347    30A     -0.445041
      31A     -0.413580    32A     -0.390371    33A     -0.335498

  @DF-RHF Final Energy:  -431.79713774072138

   => Energetics <=

    Nuclear Repulsion Energy =            442.3826552314138780
    One-Electron Energy =               -1464.7688651620846940
    Two-Electron Energy =                 590.5890721899494338
    Total Energy =                       -431.7971377407213822
  Basis Set: (AUG-CC-PVTZ AUX)
    Blend: AUG-CC-PVTZ-RI
    Molecular point group: c1

    Geometry (in Angstrom), charge = 0, multiplicity = 1:

       Center              X                  Y                   Z               Mass
    ------------   -----------------  -----------------  -----------------  -----------------
         O           -1.438949073375     1.813359704496    -0.005030755361    15.994914619570
         N           -1.085294973375    -0.482118895504     0.009552144639    14.003074004430
         N            0.733064826625     0.983380304496     0.012553244639    14.003074004430
         N            2.877328926625     0.221811704496    -0.072549755361    14.003074004430
         C           -0.287980073375    -1.535803295504     0.002655244639    12.000000000000
         C            1.061918926625    -1.369844295504    -0.000608755361    12.000000000000
         C           -0.648505073375     0.871188704496     0.018957244639    12.000000000000
         C           -2.576353073375    -0.690464295504     0.003951244639    12.000000000000
         C            1.523036926625    -0.015032295504     0.003229244639    12.000000000000
         H           -0.766851073375    -2.511757295504    -0.006521755361     1.007825032230
         H            1.740740926625    -2.214804295504    -0.027956755361     1.007825032230
         H           -2.878115073375    -1.250283295504     0.892643244639     1.007825032230
         H           -2.873009073375    -1.237027295504    -0.894628755361     1.007825032230
         H           -3.040930073375     0.292362704496     0.010384244639     1.007825032230
         H            3.488099926625    -0.466060295504     0.350208244639     1.007825032230
         H            3.130759926625     1.185784704496     0.121020244639     1.007825032230

  Basis Set: AUG-CC-PVTZ
    Blend: AUG-CC-PVTZ
  Basis Set: (AUG-CC-PVTZ AUX)
    Blend: AUG-CC-PVTZ-JKFIT
	 Reference Energy          =    -431.7971377407213822 [Eh]
	 Singles Energy            =      -0.0000000000000000 [Eh]
	 Same-Spin Energy          =      -0.4505376909422850 [Eh]
	 Opposite-Spin Energy      =      -1.3716705918344021 [Eh]
	 Correlation Energy        =      -1.8222082827766872 [Eh]
	 Total Energy              =    -433.6193460234980535 [Eh]

	 ================> DF-SCS-MP2 Energies <==================
	-----------------------------------------------------------
	 SCS Same-Spin Scale       =       0.3333333333333333 [-]
	 SCS Opposite-Spin Scale   =       1.2000000000000000 [-]
	 SCS Same-Spin Energy      =      -0.1501792303140950 [Eh]
	 SCS Opposite-Spin Energy  =      -1.6460047102012825 [Eh]
	 SCS Correlation Energy    =      -1.7961839405153774 [Eh]
	 SCS Total Energy          =    -433.5933216812367732 [Eh]
	-----------------------------------------------------------

  Dipole Moment: [D]
     X:     1.3184      Y:    -5.4382      Z:     0.8394     Total:     5.6583

*** Psi4 exiting successfully. Buy a developer a beer!
