                               Psi4 1.3.2 release

  ==> Input File <==

--------------------------------------------------------------------------
#psi4
#
memory 32 gb

molecule  {
0 1
  O       -1.4243350     1.8531120    -0.0084660
  N       -1.1176450    -0.4263010     0.0065070
  N        0.7429240     1.0712790     0.0095610
  N        2.8919430     0.2615640    -0.0759850
  C       -0.2802009    -1.4251756    -0.0004898
  C        1.0765330    -1.3300920    -0.0040440
  C       -0.6338910     0.9109410     0.0155220
  C       -2.5617390    -0.6507120     0.0005160
  C        1.4661137     0.0469955     0.0000855
  H       -0.7522370    -2.4720050    -0.0099570
  H        1.7553550    -2.1750520    -0.0313920
  H       -2.8635010    -1.2105310     0.8892080
  H       -2.8583950    -1.1972750    -0.8980640
  H       -3.0263160     0.3321150     0.0069490
  H        3.5027140    -0.4263080     0.3467730
  H        3.1453740     1.2255370     0.1175850
units angstrom
no_reorient  #important for SAPT in psi4, default
symmetry c1  #important for SAPT in psi4, default
}

set PROPERTIES_ORIGIN ["COM"]
properties('MP2/aug-cc-pvtz', properties = ['dipole'])
--------------------------------------------------------------------------

    Molecular point group: c1
  Charge       = 0
  Multiplicity = 1
  Basis Set: AUG-CC-PVTZ
    Blend: AUG-CC-PVTZ
  Basis Set: (AUG-CC-PVTZ AUX)
    Blend: AUG-CC-PVTZ-JKFIT

    Orbital Energies [Eh]
    ---------------------

    Doubly Occupied:

       1A    -20.513605     2A    -15.633811     3A    -15.575614
       4A    -15.547856     5A    -11.380804     6A    -11.341863
       7A    -11.326438     8A    -11.278314     9A    -11.241257
      10A     -1.398038    11A     -1.312537    12A     -1.273134
      13A     -1.167355    14A     -1.074527    15A     -0.975993
      16A     -0.903243    17A     -0.857009    18A     -0.759259
      19A     -0.721682    20A     -0.677742    21A     -0.668766
      22A     -0.659937    23A     -0.627778    24A     -0.602998
      25A     -0.586706    26A     -0.583813    27A     -0.565099
      28A     -0.515431    29A     -0.488470    30A     -0.452829
      31A     -0.424410    32A     -0.394387    33A     -0.339190

  @DF-RHF Final Energy:  -431.78849474051873

   => Energetics <=

    Nuclear Repulsion Energy =            443.2149473669290387
    One-Electron Energy =               -1466.2670957171524151
    Two-Electron Energy =                 591.2636536097047610
    Total Energy =                       -431.7884947405186722
  Basis Set: (AUG-CC-PVTZ AUX)
    Blend: AUG-CC-PVTZ-RI
    Molecular point group: c1

    Geometry (in Angstrom), charge = 0, multiplicity = 1:

       Center              X                  Y                   Z               Mass
    ------------   -----------------  -----------------  -----------------  -----------------
         O           -1.425637815826     1.797231496134    -0.005179855978    15.994914619570
         N           -1.118947815826    -0.482181503866     0.009793144022    14.003074004430
         N            0.741621184174     1.015398496134     0.012847144022    14.003074004430
         N            2.890640184174     0.205683496134    -0.072698855978    14.003074004430
         C           -0.281503715826    -1.481056103866     0.002796344022    12.000000000000
         C            1.075230184174    -1.385972503866    -0.000757855978    12.000000000000
         C           -0.635193815826     0.855060496134     0.018808144022    12.000000000000
         C           -2.563041815826    -0.706592503866     0.003802144022    12.000000000000
         C            1.464810884174    -0.008885003866     0.003371644022    12.000000000000
         H           -0.753539815826    -2.527885503866    -0.006670855978     1.007825032230
         H            1.754052184174    -2.230932503866    -0.028105855978     1.007825032230
         H           -2.864803815826    -1.266411503866     0.892494144022     1.007825032230
         H           -2.859697815826    -1.253155503866    -0.894777855978     1.007825032230
         H           -3.027618815826     0.276234496134     0.010235144022     1.007825032230
         H            3.501411184174    -0.482188503866     0.350059144022     1.007825032230
         H            3.144071184174     1.169656496134     0.120871144022     1.007825032230

  Basis Set: AUG-CC-PVTZ
    Blend: AUG-CC-PVTZ
  Basis Set: (AUG-CC-PVTZ AUX)
    Blend: AUG-CC-PVTZ-JKFIT
	 Reference Energy          =    -431.7884947405187290 [Eh]
	 Singles Energy            =      -0.0000000000000000 [Eh]
	 Same-Spin Energy          =      -0.4501182729279157 [Eh]
	 Opposite-Spin Energy      =      -1.3714075260627245 [Eh]
	 Correlation Energy        =      -1.8215257989906402 [Eh]
	 Total Energy              =    -433.6100205395093781 [Eh]

	 ================> DF-SCS-MP2 Energies <==================
	-----------------------------------------------------------
	 SCS Same-Spin Scale       =       0.3333333333333333 [-]
	 SCS Opposite-Spin Scale   =       1.2000000000000000 [-]
	 SCS Same-Spin Energy      =      -0.1500394243093052 [Eh]
	 SCS Opposite-Spin Energy  =      -1.6456890312752694 [Eh]
	 SCS Correlation Energy    =      -1.7957284555845747 [Eh]
	 SCS Total Energy          =    -433.5842231961033235 [Eh]
	-----------------------------------------------------------

  Dipole Moment: [D]
     X:     0.8008      Y:    -5.4260      Z:     0.8529     Total:     5.5507

*** Psi4 exiting successfully. Buy a developer a beer!
