                               Psi4 1.3.2 release

  ==> Input File <==

--------------------------------------------------------------------------
#psi4
#
memory 32 gb

molecule  {
0 1
  O       -1.4243350     1.8531120    -0.0084660
  N       -1.1176450    -0.4263010     0.0065070
  N        0.7429240     1.0712790     0.0095610
  N        2.8919430     0.2615640    -0.0759850
  C       -0.2733660    -1.4960510    -0.0007800
  C        1.0765330    -1.3300920    -0.0040440
  C       -0.7045410     0.9344271     0.0154203
  C       -2.5715062    -0.5748270     0.0009053
  C        1.5376510     0.0247200    -0.0002060
  H       -0.7522370    -2.4720050    -0.0099570
  H        1.7553550    -2.1750520    -0.0313920
  H       -2.8635010    -1.2105310     0.8892080
  H       -2.8583950    -1.1972750    -0.8980640
  H       -3.0263160     0.3321150     0.0069490
  H        3.5027140    -0.4263080     0.3467730
  H        3.1453740     1.2255370     0.1175850
units angstrom
no_reorient  #important for SAPT in psi4, default
symmetry c1  #important for SAPT in psi4, default
}

set PROPERTIES_ORIGIN ["COM"]
properties('MP2/aug-cc-pvtz', properties = ['dipole'])
--------------------------------------------------------------------------

    Molecular point group: c1
  Charge       = 0
  Multiplicity = 1
  Basis Set: AUG-CC-PVTZ
    Blend: AUG-CC-PVTZ
  Basis Set: (AUG-CC-PVTZ AUX)
    Blend: AUG-CC-PVTZ-JKFIT

    Orbital Energies [Eh]
    ---------------------

    Doubly Occupied:

       1A    -20.521757     2A    -15.622201     3A    -15.584319
       4A    -15.536783     5A    -11.372839     6A    -11.339442
       7A    -11.325087     8A    -11.272566     9A    -11.243063
      10A     -1.421771    11A     -1.302458    12A     -1.261899
      13A     -1.152478    14A     -1.070733    15A     -0.963261
      16A     -0.898102    17A     -0.841159    18A     -0.754798
      19A     -0.721700    20A     -0.683195    21A     -0.672974
      22A     -0.651778    23A     -0.641283    24A     -0.599277
      25A     -0.587324    26A     -0.585972    27A     -0.569247
      28A     -0.533110    29A     -0.477510    30A     -0.458854
      31A     -0.405907    32A     -0.380096    33A     -0.337224

  @DF-RHF Final Energy:  -431.78696362250616

   => Energetics <=

    Nuclear Repulsion Energy =            441.0177720350607160
    One-Electron Energy =               -1462.0291398461222343
    Two-Electron Energy =                 589.2244041885553543
    Total Energy =                       -431.7869636225061640
  Basis Set: (AUG-CC-PVTZ AUX)
    Blend: AUG-CC-PVTZ-RI
    Molecular point group: c1

    Geometry (in Angstrom), charge = 0, multiplicity = 1:

       Center              X                  Y                   Z               Mass
    ------------   -----------------  -----------------  -----------------  -----------------
         O           -1.425441588307     1.796634638230    -0.005151635678    15.994914619570
         N           -1.118751588307    -0.482778361770     0.009821364322    14.003074004430
         N            0.741817411693     1.014801638230     0.012875364322    14.003074004430
         N            2.890836411693     0.205086638230    -0.072670635678    14.003074004430
         C           -0.274472588307    -1.552528361770     0.002534364322    12.000000000000
         C            1.075426411693    -1.386569361770    -0.000729635678    12.000000000000
         C           -0.705647588307     0.877949738230     0.018734664322    12.000000000000
         C           -2.572612788307    -0.631304361770     0.004219664322    12.000000000000
         C            1.536544411693    -0.031757361770     0.003108364322    12.000000000000
         H           -0.753343588307    -2.528482361770    -0.006642635678     1.007825032230
         H            1.754248411693    -2.231529361770    -0.028077635678     1.007825032230
         H           -2.864607588307    -1.267008361770     0.892522364322     1.007825032230
         H           -2.859501588307    -1.253752361770    -0.894749635678     1.007825032230
         H           -3.027422588307     0.275637638230     0.010263364322     1.007825032230
         H            3.501607411693    -0.482785361770     0.350087364322     1.007825032230
         H            3.144267411693     1.169059638230     0.120899364322     1.007825032230

  Basis Set: AUG-CC-PVTZ
    Blend: AUG-CC-PVTZ
  Basis Set: (AUG-CC-PVTZ AUX)
    Blend: AUG-CC-PVTZ-JKFIT
	 Reference Energy          =    -431.7869636225061640 [Eh]
	 Singles Energy            =      -0.0000000000000000 [Eh]
	 Same-Spin Energy          =      -0.4493770291734714 [Eh]
	 Opposite-Spin Energy      =      -1.3714636786202801 [Eh]
	 Correlation Energy        =      -1.8208407077937514 [Eh]
	 Total Energy              =    -433.6078043302999276 [Eh]

	 ================> DF-SCS-MP2 Energies <==================
	-----------------------------------------------------------
	 SCS Same-Spin Scale       =       0.3333333333333333 [-]
	 SCS Opposite-Spin Scale   =       1.2000000000000000 [-]
	 SCS Same-Spin Energy      =      -0.1497923430578238 [Eh]
	 SCS Opposite-Spin Energy  =      -1.6457564143443359 [Eh]
	 SCS Correlation Energy    =      -1.7955487574021598 [Eh]
	 SCS Total Energy          =    -433.5825123799083372 [Eh]
	-----------------------------------------------------------

  Dipole Moment: [D]
     X:     1.1085      Y:    -5.1907      Z:     0.8345     Total:     5.3730

*** Psi4 exiting successfully. Buy a developer a beer!
