                               Psi4 1.3.2 release

  ==> Input File <==

--------------------------------------------------------------------------
#psi4
#
memory 32 gb

molecule  {
0 1
  O       -1.3739565     1.8932080    -0.0072336
  N       -1.0470231    -0.4497895     0.0084705
  N        0.7429240     1.0712790     0.0095610
  N        2.8919430     0.2615640    -0.0759850
  C       -0.2733660    -1.4960510    -0.0007800
  C        1.0765330    -1.3300920    -0.0040440
  C       -0.6338910     0.9109410     0.0155220
  C       -2.5617390    -0.6507120     0.0005160
  C        1.5376510     0.0247200    -0.0002060
  H       -0.7522370    -2.4720050    -0.0099570
  H        1.7553550    -2.1750520    -0.0313920
  H       -2.8635010    -1.2105310     0.8892080
  H       -2.8583950    -1.1972750    -0.8980640
  H       -3.0263160     0.3321150     0.0069490
  H        3.5027140    -0.4263080     0.3467730
  H        3.1453740     1.2255370     0.1175850
units angstrom
no_reorient  #important for SAPT in psi4, default
symmetry c1  #important for SAPT in psi4, default
}

set PROPERTIES_ORIGIN ["COM"]
properties('MP2/aug-cc-pvtz', properties = ['dipole'])
--------------------------------------------------------------------------

    Molecular point group: c1
  Charge       = 0
  Multiplicity = 1
  Basis Set: AUG-CC-PVTZ
    Blend: AUG-CC-PVTZ
  Basis Set: (AUG-CC-PVTZ AUX)
    Blend: AUG-CC-PVTZ-JKFIT

    Orbital Energies [Eh]
    ---------------------

    Doubly Occupied:

       1A    -20.507793     2A    -15.631360     3A    -15.586172
       4A    -15.537561     5A    -11.374109     6A    -11.342635
       7A    -11.322162     8A    -11.281550     9A    -11.238259
      10A     -1.384847    11A     -1.305848    12A     -1.267797
      13A     -1.165314    14A     -1.068377    15A     -0.966297
      16A     -0.906703    17A     -0.854386    18A     -0.758306
      19A     -0.727631    20A     -0.680219    21A     -0.669046
      22A     -0.657768    23A     -0.621286    24A     -0.600283
      25A     -0.584611    26A     -0.580822    27A     -0.568175
      28A     -0.521886    29A     -0.488747    30A     -0.439194
      31A     -0.416679    32A     -0.383790    33A     -0.334550

  @DF-RHF Final Energy:  -431.79185276552624

   => Energetics <=

    Nuclear Repulsion Energy =            441.3526127109356025
    One-Electron Energy =               -1462.7406111053519453
    Two-Electron Energy =                 589.5961456288902127
    Total Energy =                       -431.7918527655261869
  Basis Set: (AUG-CC-PVTZ AUX)
    Blend: AUG-CC-PVTZ-RI
    Molecular point group: c1

    Geometry (in Angstrom), charge = 0, multiplicity = 1:

       Center              X                  Y                   Z               Mass
    ------------   -----------------  -----------------  -----------------  -----------------
         O           -1.397130527222     1.843767580213    -0.004269118529    15.994914619570
         N           -1.070197127222    -0.499229919787     0.011434981471    14.003074004430
         N            0.719749972778     1.021838580213     0.012525481471    14.003074004430
         N            2.868768972778     0.212123580213    -0.073020518529    14.003074004430
         C           -0.296540027222    -1.545491419787     0.002184481471    12.000000000000
         C            1.053358972778    -1.379532419787    -0.001079518529    12.000000000000
         C           -0.657065027222     0.861500580213     0.018486481471    12.000000000000
         C           -2.584913027222    -0.700152419787     0.003480481471    12.000000000000
         C            1.514476972778    -0.024720419787     0.002758481471    12.000000000000
         H           -0.775411027222    -2.521445419787    -0.006992518529     1.007825032230
         H            1.732180972778    -2.224492419787    -0.028427518529     1.007825032230
         H           -2.886675027222    -1.259971419787     0.892172481471     1.007825032230
         H           -2.881569027222    -1.246715419787    -0.895099518529     1.007825032230
         H           -3.049490027222     0.282674580213     0.009913481471     1.007825032230
         H            3.479539972778    -0.475748419787     0.349737481471     1.007825032230
         H            3.122199972778     1.176096580213     0.120549481471     1.007825032230

  Basis Set: AUG-CC-PVTZ
    Blend: AUG-CC-PVTZ
  Basis Set: (AUG-CC-PVTZ AUX)
    Blend: AUG-CC-PVTZ-JKFIT
	 Reference Energy          =    -431.7918527655262437 [Eh]
	 Singles Energy            =      -0.0000000000000000 [Eh]
	 Same-Spin Energy          =      -0.4509439619576255 [Eh]
	 Opposite-Spin Energy      =      -1.3728396201838835 [Eh]
	 Correlation Energy        =      -1.8237835821415089 [Eh]
	 Total Energy              =    -433.6156363476677598 [Eh]

	 ================> DF-SCS-MP2 Energies <==================
	-----------------------------------------------------------
	 SCS Same-Spin Scale       =       0.3333333333333333 [-]
	 SCS Opposite-Spin Scale   =       1.2000000000000000 [-]
	 SCS Same-Spin Energy      =      -0.1503146539858752 [Eh]
	 SCS Opposite-Spin Energy  =      -1.6474075442206602 [Eh]
	 SCS Correlation Energy    =      -1.7977221982065352 [Eh]
	 SCS Total Energy          =    -433.5895749637327867 [Eh]
	-----------------------------------------------------------

  Dipole Moment: [D]
     X:     1.1766      Y:    -5.6840      Z:     0.8301     Total:     5.8636

*** Psi4 exiting successfully. Buy a developer a beer!
