                               Psi4 1.3.2 release

  ==> Input File <==

--------------------------------------------------------------------------
#psi4
#
memory 32 gb

molecule  {
0 1
  O       -1.4243350     1.8531120    -0.0084660
  N       -1.1176450    -0.4263010     0.0065070
  N        0.7429240     1.0712790     0.0095610
  N        2.8919430     0.2615640    -0.0759850
  C       -0.2733660    -1.4960510    -0.0007800
  C        1.0815009    -1.3773010    -0.0045949
  C       -0.6338910     0.9109410     0.0155220
  C       -2.5617390    -0.6507120     0.0005160
  C        1.5376510     0.0247200    -0.0002060
  H       -0.7178838    -2.4881204    -0.0102693
  H        1.7553550    -2.1750520    -0.0313920
  H       -2.8635010    -1.2105310     0.8892080
  H       -2.8583950    -1.1972750    -0.8980640
  H       -3.0263160     0.3321150     0.0069490
  H        3.5027140    -0.4263080     0.3467730
  H        3.1453740     1.2255370     0.1175850
units angstrom
no_reorient  #important for SAPT in psi4, default
symmetry c1  #important for SAPT in psi4, default
}

set PROPERTIES_ORIGIN ["COM"]
properties('MP2/aug-cc-pvtz', properties = ['dipole'])
--------------------------------------------------------------------------

    Molecular point group: c1
  Charge       = 0
  Multiplicity = 1
  Basis Set: AUG-CC-PVTZ
    Blend: AUG-CC-PVTZ
  Basis Set: (AUG-CC-PVTZ AUX)
    Blend: AUG-CC-PVTZ-JKFIT

    Orbital Energies [Eh]
    ---------------------

    Doubly Occupied:

       1A    -20.505090     2A    -15.624816     3A    -15.592646
       4A    -15.545017     5A    -11.373386     6A    -11.353237
       7A    -11.325012     8A    -11.269943     9A    -11.246279
      10A     -1.382907    11A     -1.294661    12A     -1.266788
      13A     -1.171093    14A     -1.071317    15A     -0.963685
      16A     -0.894401    17A     -0.855353    18A     -0.757440
      19A     -0.723370    20A     -0.691080    21A     -0.677196
      22A     -0.654775    23A     -0.622319    24A     -0.598648
      25A     -0.591332    26A     -0.578650    27A     -0.559929
      28A     -0.521509    29A     -0.476270    30A     -0.442000
      31A     -0.419450    32A     -0.387507    33A     -0.339898

  @DF-RHF Final Energy:  -431.79876044883986

   => Energetics <=

    Nuclear Repulsion Energy =            440.0571559615978572
    One-Electron Energy =               -1460.1578268846158153
    Two-Electron Energy =                 588.3019104741781575
    Total Energy =                       -431.7987604488398574
  Basis Set: (AUG-CC-PVTZ AUX)
    Blend: AUG-CC-PVTZ-RI
    Molecular point group: c1

    Geometry (in Angstrom), charge = 0, multiplicity = 1:

       Center              X                  Y                   Z               Mass
    ------------   -----------------  -----------------  -----------------  -----------------
         O           -1.433911542181     1.810829569860    -0.005068660834    15.994914619570
         N           -1.127221542181    -0.468583430140     0.009904339166    14.003074004430
         N            0.733347457819     1.028996569860     0.012958339166    14.003074004430
         N            2.882366457819     0.219281569860    -0.072587660834    14.003074004430
         C           -0.282942542181    -1.538333430140     0.002617339166    12.000000000000
         C            1.071924357819    -1.419583430140    -0.001197560834    12.000000000000
         C           -0.643467542181     0.868658569860     0.018919339166    12.000000000000
         C           -2.571315542181    -0.692994430140     0.003913339166    12.000000000000
         C            1.528074457819    -0.017562430140     0.003191339166    12.000000000000
         H           -0.727460342181    -2.530402830140    -0.006871960834     1.007825032230
         H            1.745778457819    -2.217334430140    -0.027994660834     1.007825032230
         H           -2.873077542181    -1.252813430140     0.892605339166     1.007825032230
         H           -2.867971542181    -1.239557430140    -0.894666660834     1.007825032230
         H           -3.035892542181     0.289832569860     0.010346339166     1.007825032230
         H            3.493137457819    -0.468590430140     0.350170339166     1.007825032230
         H            3.135797457819     1.183254569860     0.120982339166     1.007825032230

  Basis Set: AUG-CC-PVTZ
    Blend: AUG-CC-PVTZ
  Basis Set: (AUG-CC-PVTZ AUX)
    Blend: AUG-CC-PVTZ-JKFIT
	 Reference Energy          =    -431.7987604488398574 [Eh]
	 Singles Energy            =      -0.0000000000000000 [Eh]
	 Same-Spin Energy          =      -0.4497458829146478 [Eh]
	 Opposite-Spin Energy      =      -1.3717905430506723 [Eh]
	 Correlation Energy        =      -1.8215364259653199 [Eh]
	 Total Energy              =    -433.6202968748051489 [Eh]

	 ================> DF-SCS-MP2 Energies <==================
	-----------------------------------------------------------
	 SCS Same-Spin Scale       =       0.3333333333333333 [-]
	 SCS Opposite-Spin Scale   =       1.2000000000000000 [-]
	 SCS Same-Spin Energy      =      -0.1499152943048826 [Eh]
	 SCS Opposite-Spin Energy  =      -1.6461486516608066 [Eh]
	 SCS Correlation Energy    =      -1.7960639459656891 [Eh]
	 SCS Total Energy          =    -433.5948243948055278 [Eh]
	-----------------------------------------------------------

  Dipole Moment: [D]
     X:     1.7902      Y:    -5.5411      Z:     0.8288     Total:     5.8818

*** Psi4 exiting successfully. Buy a developer a beer!
