                               Psi4 1.3.2 release

  ==> Input File <==

--------------------------------------------------------------------------
#psi4
#
memory 32 gb

molecule  {
0 1
  O       -1.4243350     1.8531120    -0.0084660
  N       -1.1724754    -0.4719508     0.0060121
  N        0.7429240     1.0712790     0.0095610
  N        2.8919430     0.2615640    -0.0759850
  C       -0.2733660    -1.4960510    -0.0007800
  C        1.0765330    -1.3300920    -0.0040440
  C       -0.6338910     0.9109410     0.0155220
  C       -2.5617390    -0.6507120     0.0005160
  C        1.5376510     0.0247200    -0.0002060
  H       -0.8026603    -2.4456053    -0.0098371
  H        1.7553550    -2.1750520    -0.0313920
  H       -2.8635010    -1.2105310     0.8892080
  H       -2.8583950    -1.1972750    -0.8980640
  H       -3.0263160     0.3321150     0.0069490
  H        3.5027140    -0.4263080     0.3467730
  H        3.1453740     1.2255370     0.1175850
units angstrom
no_reorient  #important for SAPT in psi4, default
symmetry c1  #important for SAPT in psi4, default
}

set PROPERTIES_ORIGIN ["COM"]
properties('MP2/aug-cc-pvtz', properties = ['dipole'])
--------------------------------------------------------------------------

    Molecular point group: c1
  Charge       = 0
  Multiplicity = 1
  Basis Set: AUG-CC-PVTZ
    Blend: AUG-CC-PVTZ
  Basis Set: (AUG-CC-PVTZ AUX)
    Blend: AUG-CC-PVTZ-JKFIT

    Orbital Energies [Eh]
    ---------------------

    Doubly Occupied:

       1A    -20.510264     2A    -15.623260     3A    -15.593398
       4A    -15.546675     5A    -11.378492     6A    -11.351847
       7A    -11.327624     8A    -11.264575     9A    -11.245647
      10A     -1.381403    11A     -1.297505    12A     -1.272439
      13A     -1.174458    14A     -1.074469    15A     -0.966134
      16A     -0.889443    17A     -0.855118    18A     -0.758732
      19A     -0.720458    20A     -0.692213    21A     -0.672674
      22A     -0.657761    23A     -0.624306    24A     -0.605096
      25A     -0.596759    26A     -0.580505    27A     -0.556879
      28A     -0.520211    29A     -0.475876    30A     -0.444061
      31A     -0.420408    32A     -0.389414    33A     -0.337073

  @DF-RHF Final Energy:  -431.79296825748543

   => Energetics <=

    Nuclear Repulsion Energy =            440.1706920965816607
    One-Electron Energy =               -1460.3169655866659014
    Two-Electron Energy =                 588.3533052325988137
    Total Energy =                       -431.7929682574854269
  Basis Set: (AUG-CC-PVTZ AUX)
    Blend: AUG-CC-PVTZ-RI
    Molecular point group: c1

    Geometry (in Angstrom), charge = 0, multiplicity = 1:

       Center              X                  Y                   Z               Mass
    ------------   -----------------  -----------------  -----------------  -----------------
         O           -1.426612191705     1.811068511214    -0.005069590481    15.994914619570
         N           -1.174752591705    -0.513994288786     0.009408509519    14.003074004430
         N            0.740646808295     1.029235511214     0.012957409519    14.003074004430
         N            2.889665808295     0.219520511214    -0.072588590481    14.003074004430
         C           -0.275643191705    -1.538094488786     0.002616409519    12.000000000000
         C            1.074255808295    -1.372135488786    -0.000647590481    12.000000000000
         C           -0.636168191705     0.868897511214     0.018918409519    12.000000000000
         C           -2.564016191705    -0.692755488786     0.003912409519    12.000000000000
         C            1.535373808295    -0.017323488786     0.003190409519    12.000000000000
         H           -0.804937491705    -2.487648788786    -0.006440690481     1.007825032230
         H            1.753077808295    -2.217095488786    -0.027995590481     1.007825032230
         H           -2.865778191705    -1.252574488786     0.892604409519     1.007825032230
         H           -2.860672191705    -1.239318488786    -0.894667590481     1.007825032230
         H           -3.028593191705     0.290071511214     0.010345409519     1.007825032230
         H            3.500436808295    -0.468351488786     0.350169409519     1.007825032230
         H            3.143096808295     1.183493511214     0.120981409519     1.007825032230

  Basis Set: AUG-CC-PVTZ
    Blend: AUG-CC-PVTZ
  Basis Set: (AUG-CC-PVTZ AUX)
    Blend: AUG-CC-PVTZ-JKFIT
	 Reference Energy          =    -431.7929682574854269 [Eh]
	 Singles Energy            =      -0.0000000000000000 [Eh]
	 Same-Spin Energy          =      -0.4511096222922246 [Eh]
	 Opposite-Spin Energy      =      -1.3734009824718445 [Eh]
	 Correlation Energy        =      -1.8245106047640691 [Eh]
	 Total Energy              =    -433.6174788622494702 [Eh]

	 ================> DF-SCS-MP2 Energies <==================
	-----------------------------------------------------------
	 SCS Same-Spin Scale       =       0.3333333333333333 [-]
	 SCS Opposite-Spin Scale   =       1.2000000000000000 [-]
	 SCS Same-Spin Energy      =      -0.1503698740974082 [Eh]
	 SCS Opposite-Spin Energy  =      -1.6480811789662133 [Eh]
	 SCS Correlation Energy    =      -1.7984510530636215 [Eh]
	 SCS Total Energy          =    -433.5914193105490426 [Eh]
	-----------------------------------------------------------

  Dipole Moment: [D]
     X:     1.7794      Y:    -5.3422      Z:     0.8306     Total:     5.6917

*** Psi4 exiting successfully. Buy a developer a beer!
