                               Psi4 1.3.2 release

  ==> Input File <==

--------------------------------------------------------------------------
#psi4
#
memory 32 gb

molecule  {
0 1
  O       -1.4243350     1.8531120    -0.0084660
  N       -1.1176450    -0.4263010     0.0065070
  N        0.7429240     1.0712790     0.0095610
  N        2.8919430     0.2615640    -0.0759850
  C       -0.3112147    -1.5248622    -0.0011430
  C        1.0765330    -1.3300920    -0.0040440
  C       -0.6338910     0.9109410     0.0155220
  C       -2.5530259    -0.7009718     0.0000884
  C        1.5376510     0.0247200    -0.0002060
  H       -0.7522370    -2.4720050    -0.0099570
  H        1.7553550    -2.1750520    -0.0313920
  H       -2.8635010    -1.2105310     0.8892080
  H       -2.8583950    -1.1972750    -0.8980640
  H       -3.0263160     0.3321150     0.0069490
  H        3.5027140    -0.4263080     0.3467730
  H        3.1453740     1.2255370     0.1175850
units angstrom
no_reorient  #important for SAPT in psi4, default
symmetry c1  #important for SAPT in psi4, default
}

set PROPERTIES_ORIGIN ["COM"]
properties('MP2/aug-cc-pvtz', properties = ['dipole'])
--------------------------------------------------------------------------

    Molecular point group: c1
  Charge       = 0
  Multiplicity = 1
  Basis Set: AUG-CC-PVTZ
    Blend: AUG-CC-PVTZ
  Basis Set: (AUG-CC-PVTZ AUX)
    Blend: AUG-CC-PVTZ-JKFIT

    Orbital Energies [Eh]
    ---------------------

    Doubly Occupied:

       1A    -20.504610     2A    -15.628202     3A    -15.590463
       4A    -15.543719     5A    -11.374508     6A    -11.348513
       7A    -11.330457     8A    -11.269980     9A    -11.248691
      10A     -1.382903    11A     -1.295684    12A     -1.268610
      13A     -1.170550    14A     -1.063344    15A     -0.964931
      16A     -0.907001    17A     -0.851623    18A     -0.756489
      19A     -0.727947    20A     -0.685721    21A     -0.678747
      22A     -0.661309    23A     -0.623789    24A     -0.604201
      25A     -0.590843    26A     -0.583540    27A     -0.540082
      28A     -0.523482    29A     -0.475461    30A     -0.440485
      31A     -0.421497    32A     -0.387806    33A     -0.334440

  @DF-RHF Final Energy:  -431.79207098392999

   => Energetics <=

    Nuclear Repulsion Energy =            440.1273518904836237
    One-Electron Energy =               -1460.2795879923953635
    Two-Electron Energy =                 588.3601651179817509
    Total Energy =                       -431.7920709839299889
  Basis Set: (AUG-CC-PVTZ AUX)
    Blend: AUG-CC-PVTZ-RI
    Molecular point group: c1

    Geometry (in Angstrom), charge = 0, multiplicity = 1:

       Center              X                  Y                   Z               Mass
    ------------   -----------------  -----------------  -----------------  -----------------
         O           -1.430362302800     1.813757010144    -0.005048177238    15.994914619570
         N           -1.123672302800    -0.465655989856     0.009924822762    14.003074004430
         N            0.736896697200     1.031924010144     0.012978822762    14.003074004430
         N            2.885915697200     0.222209010144    -0.072567177238    14.003074004430
         C           -0.317242002800    -1.564217189856     0.002274822762    12.000000000000
         C            1.070505697200    -1.369446989856    -0.000626177238    12.000000000000
         C           -0.639918302800     0.871586010144     0.018939822762    12.000000000000
         C           -2.559053202800    -0.740326789856     0.003506222762    12.000000000000
         C            1.531623697200    -0.014634989856     0.003211822762    12.000000000000
         H           -0.758264302800    -2.511359989856    -0.006539177238     1.007825032230
         H            1.749327697200    -2.214406989856    -0.027974177238     1.007825032230
         H           -2.869528302800    -1.249885989856     0.892625822762     1.007825032230
         H           -2.864422302800    -1.236629989856    -0.894646177238     1.007825032230
         H           -3.032343302800     0.292760010144     0.010366822762     1.007825032230
         H            3.496686697200    -0.465662989856     0.350190822762     1.007825032230
         H            3.139346697200     1.186182010144     0.121002822762     1.007825032230

  Basis Set: AUG-CC-PVTZ
    Blend: AUG-CC-PVTZ
  Basis Set: (AUG-CC-PVTZ AUX)
    Blend: AUG-CC-PVTZ-JKFIT
	 Reference Energy          =    -431.7920709839299889 [Eh]
	 Singles Energy            =      -0.0000000000000000 [Eh]
	 Same-Spin Energy          =      -0.4511789615791796 [Eh]
	 Opposite-Spin Energy      =      -1.3736728267170204 [Eh]
	 Correlation Energy        =      -1.8248517882962001 [Eh]
	 Total Energy              =    -433.6169227722261894 [Eh]

	 ================> DF-SCS-MP2 Energies <==================
	-----------------------------------------------------------
	 SCS Same-Spin Scale       =       0.3333333333333333 [-]
	 SCS Opposite-Spin Scale   =       1.2000000000000000 [-]
	 SCS Same-Spin Energy      =      -0.1503929871930599 [Eh]
	 SCS Opposite-Spin Energy  =      -1.6484073920604245 [Eh]
	 SCS Correlation Energy    =      -1.7988003792534843 [Eh]
	 SCS Total Energy          =    -433.5908713631834530 [Eh]
	-----------------------------------------------------------

  Dipole Moment: [D]
     X:     1.6467      Y:    -5.6472      Z:     0.8320     Total:     5.9409

*** Psi4 exiting successfully. Buy a developer a beer!
