                               Psi4 1.4a3.dev225

  ==> Input File <==

--------------------------------------------------------------------------
#psi4
#
memory 32 gb

molecule  {
0 1
  O       -1.4602810    -1.8042760    -0.0008590
  N       -1.1067000     0.4494610     0.0014260
  N        0.7338450    -1.0777760     0.0056990
  N        2.8872480    -0.2944040    -0.0665390
  C       -0.2576190     1.5082170    -0.0002850
  C        1.0914800     1.3228940    -0.0047970
  C       -0.6316600    -0.8954310    -0.0014820
  C       -2.5563510     0.6193970     0.0049040
  C        1.5247979     0.0127178    -0.0002247
  H       -0.7147670     2.4940890    -0.0022110
  H        1.7746080     2.1637920    -0.0246520
  H       -2.7835150     1.6863950     0.0041520
  H       -2.9802500     0.1433220     0.8903410
  H       -2.9840040     0.1411790    -0.8774920
  H        3.5206970     0.4000120     0.3068300
  H        3.1306380    -1.2574880     0.1361150
units angstrom
no_reorient  #important for SAPT in psi4, default
symmetry c1  #important for SAPT in psi4, default
}

set PROPERTIES_ORIGIN ["COM"]
properties('MP2/aug-cc-pvtz', properties = ['dipole'])
--------------------------------------------------------------------------

    Molecular point group: c1
  Charge       = 0
  Multiplicity = 1
  Basis Set: AUG-CC-PVTZ
    Blend: AUG-CC-PVTZ
  Basis Set: (AUG-CC-PVTZ AUX)
    Blend: AUG-CC-PVTZ-JKFIT

    Orbital Energies [Eh]
    ---------------------

    Doubly Occupied:

       1A    -20.500363     2A    -15.631486     3A    -15.587806
       4A    -15.543115     5A    -11.366476     6A    -11.348483
       7A    -11.335158     8A    -11.275889     9A    -11.242489
      10A     -1.382470    11A     -1.294073    12A     -1.261519
      13A     -1.162074    14A     -1.081963    15A     -0.969177
      16A     -0.905631    17A     -0.850431    18A     -0.758605
      19A     -0.726763    20A     -0.681176    21A     -0.668957
      22A     -0.656898    23A     -0.628418    24A     -0.603854
      25A     -0.588987    26A     -0.574896    27A     -0.566661
      28A     -0.513805    29A     -0.480978    30A     -0.443224
      31A     -0.418593    32A     -0.382274    33A     -0.339999

  @DF-RHF Final Energy:  -431.79787170893331

   => Energetics <=

    Nuclear Repulsion Energy =            441.6461765080599093
    One-Electron Energy =               -1463.3427172235412854
    Two-Electron Energy =                 589.8986690065480616
    Total Energy =                       -431.7978717089333713
  Basis Set: (AUG-CC-PVTZ AUX)
    Blend: AUG-CC-PVTZ-RI
    Molecular point group: c1

    Geometry (in Angstrom), charge = 0, multiplicity = 1:

       Center              X                  Y                   Z               Mass
    ------------   -----------------  -----------------  -----------------  -----------------
         O           -1.467119631116    -1.763094258375     0.002594274746    15.994914619570
         N           -1.113538631116     0.490642741625     0.004879274746    14.003074004430
         N            0.727006368884    -1.036594258375     0.009152274746    14.003074004430
         N            2.880409368884    -0.253222258375    -0.063085725254    14.003074004430
         C           -0.264457631116     1.549398741625     0.003168274746    12.000000000000
         C            1.084641368884     1.364075741625    -0.001343725254    12.000000000000
         C           -0.638498631116    -0.854249258375     0.001971274746    12.000000000000
         C           -2.563189631116     0.660578741625     0.008357274746    12.000000000000
         C            1.517959268884     0.053899541625     0.003228574746    12.000000000000
         H           -0.721605631116     2.535270741625     0.001242274746     1.007825032230
         H            1.767769368884     2.204973741625    -0.021198725254     1.007825032230
         H           -2.790353631116     1.727576741625     0.007605274746     1.007825032230
         H           -2.987088631116     0.184503741625     0.893794274746     1.007825032230
         H           -2.990842631116     0.182360741625    -0.874038725254     1.007825032230
         H            3.513858368884     0.441193741625     0.310283274746     1.007825032230
         H            3.123799368884    -1.216306258375     0.139568274746     1.007825032230

  Basis Set: AUG-CC-PVTZ
    Blend: AUG-CC-PVTZ
  Basis Set: (AUG-CC-PVTZ AUX)
    Blend: AUG-CC-PVTZ-JKFIT
	 Reference Energy          =    -431.7978717089333145 [Eh]
	 Singles Energy            =      -0.0000000000000000 [Eh]
	 Same-Spin Energy          =      -0.4513297319274589 [Eh]
	 Opposite-Spin Energy      =      -1.3731447405649577 [Eh]
	 Correlation Energy        =      -1.8244744724924167 [Eh]
	 Total Energy              =    -433.6223461814257121 [Eh]

	 ================> DF-SCS-MP2 Energies <==================
	-----------------------------------------------------------
	 SCS Same-Spin Scale       =       0.3333333333333333 [-]
	 SCS Opposite-Spin Scale   =       1.2000000000000000 [-]
	 SCS Same-Spin Energy      =      -0.1504432439758196 [Eh]
	 SCS Opposite-Spin Energy  =      -1.6477736886779493 [Eh]
	 SCS Correlation Energy    =      -1.7982169326537689 [Eh]
	 SCS Total Energy          =    -433.5960886415870732 [Eh]
	-----------------------------------------------------------

  Dipole Moment: [D]
     X:     1.5520      Y:     5.8409      Z:     0.7715     Total:     6.0926

*** Psi4 exiting successfully. Buy a developer a beer!
