                               Psi4 1.4a3.dev225

  ==> Input File <==

--------------------------------------------------------------------------
#psi4
#
memory 32 gb

molecule  {
0 1
  O       -1.4602810    -1.8042760    -0.0008590
  N       -1.1067000     0.4494610     0.0014260
  N        0.7338450    -1.0777760     0.0056990
  N        2.8872480    -0.2944040    -0.0665390
  C       -0.2576190     1.5082170    -0.0002850
  C        1.0914800     1.3228940    -0.0047970
  C       -0.6316600    -0.8954310    -0.0014820
  C       -2.5563510     0.6193970     0.0049040
  C        1.5404980    -0.0347530    -0.0000590
  H       -0.7147670     2.4940890    -0.0022110
  H        1.7872166     2.1793126    -0.0250185
  H       -2.7835150     1.6863950     0.0041520
  H       -2.9802500     0.1433220     0.8903410
  H       -2.9840040     0.1411790    -0.8774920
  H        3.5206970     0.4000120     0.3068300
  H        3.1306380    -1.2574880     0.1361150
units angstrom
no_reorient  #important for SAPT in psi4, default
symmetry c1  #important for SAPT in psi4, default
}

set PROPERTIES_ORIGIN ["COM"]
properties('MP2/aug-cc-pvtz', properties = ['dipole'])
--------------------------------------------------------------------------

    Molecular point group: c1
  Charge       = 0
  Multiplicity = 1
  Basis Set: AUG-CC-PVTZ
    Blend: AUG-CC-PVTZ
  Basis Set: (AUG-CC-PVTZ AUX)
    Blend: AUG-CC-PVTZ-JKFIT

    Orbital Energies [Eh]
    ---------------------

    Doubly Occupied:

       1A    -20.503021     2A    -15.626268     3A    -15.591581
       4A    -15.542650     5A    -11.369288     6A    -11.349733
       7A    -11.328355     8A    -11.273626     9A    -11.245664
      10A     -1.383227    11A     -1.295531    12A     -1.267917
      13A     -1.171691    14A     -1.071948    15A     -0.964983
      16A     -0.898547    17A     -0.854948    18A     -0.759599
      19A     -0.723821    20A     -0.685268    21A     -0.673302
      22A     -0.655340    23A     -0.621522    24A     -0.601639
      25A     -0.589187    26A     -0.576497    27A     -0.565976
      28A     -0.517064    29A     -0.480340    30A     -0.442642
      31A     -0.418418    32A     -0.385127    33A     -0.337600

  @DF-RHF Final Energy:  -431.80263007659448

   => Energetics <=

    Nuclear Repulsion Energy =            441.4787320796451127
    One-Electron Energy =               -1463.0180852489177141
    Two-Electron Energy =                 589.7367230926780621
    Total Energy =                       -431.8026300765944825
  Basis Set: (AUG-CC-PVTZ AUX)
    Blend: AUG-CC-PVTZ-RI
    Molecular point group: c1

    Geometry (in Angstrom), charge = 0, multiplicity = 1:

       Center              X                  Y                   Z               Mass
    ------------   -----------------  -----------------  -----------------  -----------------
         O           -1.468727740924    -1.758664285792     0.002581328591    15.994914619570
         N           -1.115146740924     0.495072714208     0.004866328591    14.003074004430
         N            0.725398259076    -1.032164285792     0.009139328591    14.003074004430
         N            2.878801259076    -0.248792285792    -0.063098671409    14.003074004430
         C           -0.266065740924     1.553828714208     0.003155328591    12.000000000000
         C            1.083033259076     1.368505714208    -0.001356671409    12.000000000000
         C           -0.640106740924    -0.849819285792     0.001958328591    12.000000000000
         C           -2.564797740924     0.665008714208     0.008344328591    12.000000000000
         C            1.532051259076     0.010858714208     0.003381328591    12.000000000000
         H           -0.723213740924     2.539700714208     0.001229328591     1.007825032230
         H            1.778769859076     2.224924314208    -0.021578171409     1.007825032230
         H           -2.791961740924     1.732006714208     0.007592328591     1.007825032230
         H           -2.988696740924     0.188933714208     0.893781328591     1.007825032230
         H           -2.992450740924     0.186790714208    -0.874051671409     1.007825032230
         H            3.512250259076     0.445623714208     0.310270328591     1.007825032230
         H            3.122191259076    -1.211876285792     0.139555328591     1.007825032230

  Basis Set: AUG-CC-PVTZ
    Blend: AUG-CC-PVTZ
  Basis Set: (AUG-CC-PVTZ AUX)
    Blend: AUG-CC-PVTZ-JKFIT
	 Reference Energy          =    -431.8026300765944825 [Eh]
	 Singles Energy            =      -0.0000000000000000 [Eh]
	 Same-Spin Energy          =      -0.4504522366057688 [Eh]
	 Opposite-Spin Energy      =      -1.3720422138540556 [Eh]
	 Correlation Energy        =      -1.8224944504598244 [Eh]
	 Total Energy              =    -433.6251245270543109 [Eh]

	 ================> DF-SCS-MP2 Energies <==================
	-----------------------------------------------------------
	 SCS Same-Spin Scale       =       0.3333333333333333 [-]
	 SCS Opposite-Spin Scale   =       1.2000000000000000 [-]
	 SCS Same-Spin Energy      =      -0.1501507455352563 [Eh]
	 SCS Opposite-Spin Energy  =      -1.6464506566248667 [Eh]
	 SCS Correlation Energy    =      -1.7966014021601229 [Eh]
	 SCS Total Energy          =    -433.5992314787546320 [Eh]
	-----------------------------------------------------------

  Dipole Moment: [D]
     X:     1.8031      Y:     5.6052      Z:     0.7688     Total:     5.9380

*** Psi4 exiting successfully. Buy a developer a beer!
