                               Psi4 1.3.2 release

  ==> Input File <==

--------------------------------------------------------------------------
#psi4
#
memory 32 gb

molecule  {
0 1
  O       -1.4243350     1.8531120    -0.0084660
  N       -1.1176450    -0.4263010     0.0065070
  N        0.7429240     1.0712790     0.0095610
  N        2.8919430     0.2615640    -0.0759850
  C       -0.2733660    -1.4960510    -0.0007800
  C        1.0765330    -1.3300920    -0.0040440
  C       -0.6338910     0.9109410     0.0155220
  C       -2.5617390    -0.6507120     0.0005160
  C        1.5376510     0.0247200    -0.0002060
  H       -0.7522370    -2.4720050    -0.0099570
  H        1.7553550    -2.1750520    -0.0313920
  H       -2.8635010    -1.2105310     0.8892080
  H       -2.8583950    -1.1972750    -0.8980640
  H       -3.0263160     0.3321150     0.0069490
  H        3.5123283    -0.4132411     0.3537749
  H        3.1591017     1.2198286     0.1272286
units angstrom
no_reorient  #important for SAPT in psi4, default
symmetry c1  #important for SAPT in psi4, default
}

set PROPERTIES_ORIGIN ["COM"]
properties('MP2/aug-cc-pvtz', properties = ['dipole'])
--------------------------------------------------------------------------

    Molecular point group: c1
  Charge       = 0
  Multiplicity = 1
  Basis Set: AUG-CC-PVTZ
    Blend: AUG-CC-PVTZ
  Basis Set: (AUG-CC-PVTZ AUX)
    Blend: AUG-CC-PVTZ-JKFIT

    Orbital Energies [Eh]
    ---------------------

    Doubly Occupied:

       1A    -20.503612     2A    -15.625453     3A    -15.591404
       4A    -15.543716     5A    -11.372277     6A    -11.349685
       7A    -11.327206     8A    -11.270488     9A    -11.246002
      10A     -1.382616    11A     -1.295941    12A     -1.267305
      13A     -1.170807    14A     -1.072726    15A     -0.965493
      16A     -0.899393    17A     -0.854377    18A     -0.757993
      19A     -0.724676    20A     -0.686233    21A     -0.672256
      22A     -0.655499    23A     -0.622133    24A     -0.601597
      25A     -0.592332    26A     -0.579768    27A     -0.559141
      28A     -0.521926    29A     -0.476300    30A     -0.440887
      31A     -0.419807    32A     -0.388107    33A     -0.338956

  @DF-RHF Final Energy:  -431.80087007732851

   => Energetics <=

    Nuclear Repulsion Energy =            440.8719947700878379
    One-Electron Energy =               -1461.7935081574278229
    Two-Electron Energy =                 589.1206433100114737
    Total Energy =                       -431.8008700773284545
  Basis Set: (AUG-CC-PVTZ AUX)
    Blend: AUG-CC-PVTZ-RI
    Molecular point group: c1

    Geometry (in Angstrom), charge = 0, multiplicity = 1:

       Center              X                  Y                   Z               Mass
    ------------   -----------------  -----------------  -----------------  -----------------
         O           -1.433346111362     1.806110469276    -0.005258181876    15.994914619570
         N           -1.126656111362    -0.473302530724     0.009714818124    14.003074004430
         N            0.733912888638     1.024277469276     0.012768818124    14.003074004430
         N            2.882931888638     0.214562469276    -0.072777181876    14.003074004430
         C           -0.282377111362    -1.543052530724     0.002427818124    12.000000000000
         C            1.067521888638    -1.377093530724    -0.000836181876    12.000000000000
         C           -0.642902111362     0.863939469276     0.018729818124    12.000000000000
         C           -2.570750111362    -0.697713530724     0.003723818124    12.000000000000
         C            1.528639888638    -0.022281530724     0.003001818124    12.000000000000
         H           -0.761248111362    -2.519006530724    -0.006749181876     1.007825032230
         H            1.746343888638    -2.222053530724    -0.028184181876     1.007825032230
         H           -2.872512111362    -1.257532530724     0.892415818124     1.007825032230
         H           -2.867406111362    -1.244276530724    -0.894856181876     1.007825032230
         H           -3.035327111362     0.285113469276     0.010156818124     1.007825032230
         H            3.503317188638    -0.460242630724     0.356982718124     1.007825032230
         H            3.150090588638     1.172827069276     0.130436418124     1.007825032230

  Basis Set: AUG-CC-PVTZ
    Blend: AUG-CC-PVTZ
  Basis Set: (AUG-CC-PVTZ AUX)
    Blend: AUG-CC-PVTZ-JKFIT
	 Reference Energy          =    -431.8008700773285113 [Eh]
	 Singles Energy            =      -0.0000000000000000 [Eh]
	 Same-Spin Energy          =      -0.4503691649090782 [Eh]
	 Opposite-Spin Energy      =      -1.3721639604685676 [Eh]
	 Correlation Energy        =      -1.8225331253776458 [Eh]
	 Total Energy              =    -433.6234032027061289 [Eh]

	 ================> DF-SCS-MP2 Energies <==================
	-----------------------------------------------------------
	 SCS Same-Spin Scale       =       0.3333333333333333 [-]
	 SCS Opposite-Spin Scale   =       1.2000000000000000 [-]
	 SCS Same-Spin Energy      =      -0.1501230549696927 [Eh]
	 SCS Opposite-Spin Energy  =      -1.6465967525622811 [Eh]
	 SCS Correlation Energy    =      -1.7967198075319739 [Eh]
	 SCS Total Energy          =    -433.5975898848604970 [Eh]
	-----------------------------------------------------------

  Dipole Moment: [D]
     X:     1.7067      Y:    -5.6273      Z:     0.8533     Total:     5.9420

*** Psi4 exiting successfully. Buy a developer a beer!
