                               Psi4 1.3.2 release

  ==> Input File <==

--------------------------------------------------------------------------
#psi4
#
memory 32 gb

molecule  {
0 1
  O       -1.4243350     1.8531120    -0.0084660
  N       -1.1176450    -0.4263010     0.0065070
  N        0.7429240     1.0712790     0.0095610
  N        2.8919430     0.2615640    -0.0759850
  C       -0.2733660    -1.4960510    -0.0007800
  C        1.0765330    -1.3300920    -0.0040440
  C       -0.6573032     0.9191803     0.0154908
  C       -2.5654361    -0.6254751     0.0006440
  C        1.5376510     0.0247200    -0.0002060
  H       -0.7522370    -2.4720050    -0.0099570
  H        1.7553550    -2.1750520    -0.0313920
  H       -2.8635010    -1.2105310     0.8892080
  H       -2.8583950    -1.1972750    -0.8980640
  H       -3.0263160     0.3321150     0.0069490
  H        3.5027140    -0.4263080     0.3467730
  H        3.1453740     1.2255370     0.1175850
units angstrom
no_reorient  #important for SAPT in psi4, default
symmetry c1  #important for SAPT in psi4, default
}

set PROPERTIES_ORIGIN ["COM"]
properties('MP2/aug-cc-pvtz', properties = ['dipole'])
--------------------------------------------------------------------------

    Molecular point group: c1
  Charge       = 0
  Multiplicity = 1
  Basis Set: AUG-CC-PVTZ
    Blend: AUG-CC-PVTZ
  Basis Set: (AUG-CC-PVTZ AUX)
    Blend: AUG-CC-PVTZ-JKFIT

    Orbital Energies [Eh]
    ---------------------

    Doubly Occupied:

       1A    -20.509686     2A    -15.624158     3A    -15.589101
       4A    -15.541418     5A    -11.372499     6A    -11.345988
       7A    -11.326452     8A    -11.270942     9A    -11.244925
      10A     -1.393582    11A     -1.299230    12A     -1.265822
      13A     -1.164495    14A     -1.071977    15A     -0.964365
      16A     -0.898855    17A     -0.849357    18A     -0.757448
      19A     -0.722820    20A     -0.684271    21A     -0.673410
      22A     -0.653572    23A     -0.627464    24A     -0.601152
      25A     -0.591725    26A     -0.576310    27A     -0.568469
      28A     -0.524764    29A     -0.477506    30A     -0.446651
      31A     -0.416065    32A     -0.385462    33A     -0.338590

  @DF-RHF Final Energy:  -431.80024678990168

   => Energetics <=

    Nuclear Repulsion Energy =            440.9251973852516358
    One-Electron Energy =               -1461.8938284457494774
    Two-Electron Energy =                 589.1683842705961069
    Total Energy =                       -431.8002467899017347
  Basis Set: (AUG-CC-PVTZ AUX)
    Blend: AUG-CC-PVTZ-RI
    Molecular point group: c1

    Geometry (in Angstrom), charge = 0, multiplicity = 1:

       Center              X                  Y                   Z               Mass
    ------------   -----------------  -----------------  -----------------  -----------------
         O           -1.430556735965     1.802957568666    -0.005133327507    15.994914619570
         N           -1.123866735965    -0.476455431334     0.009839672493    14.003074004430
         N            0.736702264035     1.021124568666     0.012893672493    14.003074004430
         N            2.885721264035     0.211409568666    -0.072652327507    14.003074004430
         C           -0.279587735965    -1.546205431334     0.002552672493    12.000000000000
         C            1.070311264035    -1.380246431334    -0.000711327507    12.000000000000
         C           -0.663524935965     0.869025868666     0.018823472493    12.000000000000
         C           -2.571657835965    -0.675629531334     0.003976672493    12.000000000000
         C            1.531429264035    -0.025434431334     0.003126672493    12.000000000000
         H           -0.758458735965    -2.522159431334    -0.006624327507     1.007825032230
         H            1.749133264035    -2.225206431334    -0.028059327507     1.007825032230
         H           -2.869722735965    -1.260685431334     0.892540672493     1.007825032230
         H           -2.864616735965    -1.247429431334    -0.894731327507     1.007825032230
         H           -3.032537735965     0.281960568666     0.010281672493     1.007825032230
         H            3.496492264035    -0.476462431334     0.350105672493     1.007825032230
         H            3.139152264035     1.175382568666     0.120917672493     1.007825032230

  Basis Set: AUG-CC-PVTZ
    Blend: AUG-CC-PVTZ
  Basis Set: (AUG-CC-PVTZ AUX)
    Blend: AUG-CC-PVTZ-JKFIT
	 Reference Energy          =    -431.8002467899016779 [Eh]
	 Singles Energy            =      -0.0000000000000000 [Eh]
	 Same-Spin Energy          =      -0.4499658823368881 [Eh]
	 Opposite-Spin Energy      =      -1.3717401209670625 [Eh]
	 Correlation Energy        =      -1.8217060033039507 [Eh]
	 Total Energy              =    -433.6219527932056508 [Eh]

	 ================> DF-SCS-MP2 Energies <==================
	-----------------------------------------------------------
	 SCS Same-Spin Scale       =       0.3333333333333333 [-]
	 SCS Opposite-Spin Scale   =       1.2000000000000000 [-]
	 SCS Same-Spin Energy      =      -0.1499886274456294 [Eh]
	 SCS Opposite-Spin Energy  =      -1.6460881451604750 [Eh]
	 SCS Correlation Energy    =      -1.7960767726061042 [Eh]
	 SCS Total Energy          =    -433.5963235625077914 [Eh]
	-----------------------------------------------------------

  Dipole Moment: [D]
     X:     1.5037      Y:    -5.4856      Z:     0.8332     Total:     5.7486

*** Psi4 exiting successfully. Buy a developer a beer!
