                               Psi4 1.3.2 release

  ==> Input File <==

--------------------------------------------------------------------------
#psi4
#
memory 32 gb

molecule  {
0 1
  O       -1.4243350     1.8531120    -0.0084660
  N       -1.1176450    -0.4263010     0.0065070
  N        0.7429240     1.0712790     0.0095610
  N        2.8919430     0.2615640    -0.0759850
  C       -0.2667523    -1.5430605    -0.0009785
  C        1.0765330    -1.3300920    -0.0040440
  C       -0.6338910     0.9109410     0.0155220
  C       -2.5617390    -0.6507120     0.0005160
  C        1.5846523     0.0078025    -0.0004062
  H       -0.7522370    -2.4720050    -0.0099570
  H        1.7553550    -2.1750520    -0.0313920
  H       -2.8635010    -1.2105310     0.8892080
  H       -2.8583950    -1.1972750    -0.8980640
  H       -3.0263160     0.3321150     0.0069490
  H        3.5027140    -0.4263080     0.3467730
  H        3.1453740     1.2255370     0.1175850
units angstrom
no_reorient  #important for SAPT in psi4, default
symmetry c1  #important for SAPT in psi4, default
}

set PROPERTIES_ORIGIN ["COM"]
properties('MP2/aug-cc-pvtz', properties = ['dipole'])
--------------------------------------------------------------------------

    Molecular point group: c1
  Charge       = 0
  Multiplicity = 1
  Basis Set: AUG-CC-PVTZ
    Blend: AUG-CC-PVTZ
  Basis Set: (AUG-CC-PVTZ AUX)
    Blend: AUG-CC-PVTZ-JKFIT

    Orbital Energies [Eh]
    ---------------------

    Doubly Occupied:

       1A    -20.497101     2A    -15.619558     3A    -15.602106
       4A    -15.540491     5A    -11.366612     6A    -11.354383
       7A    -11.328380     8A    -11.265312     9A    -11.250201
      10A     -1.373729    11A     -1.296998    12A     -1.264034
      13A     -1.164005    14A     -1.072405    15A     -0.958780
      16A     -0.901329    17A     -0.850335    18A     -0.760774
      19A     -0.732843    20A     -0.686269    21A     -0.678323
      22A     -0.647318    23A     -0.628028    24A     -0.607028
      25A     -0.585585    26A     -0.577041    27A     -0.550710
      28A     -0.526523    29A     -0.469573    30A     -0.432563
      31A     -0.414594    32A     -0.380875    33A     -0.338703

  @DF-RHF Final Energy:  -431.79177295954872

   => Energetics <=

    Nuclear Repulsion Energy =            439.5023872180248077
    One-Electron Energy =               -1459.1432997615875138
    Two-Electron Energy =                 587.8491395840139830
    Total Energy =                       -431.7917729595487799
  Basis Set: (AUG-CC-PVTZ AUX)
    Blend: AUG-CC-PVTZ-RI
    Molecular point group: c1

    Geometry (in Angstrom), charge = 0, multiplicity = 1:

       Center              X                  Y                   Z               Mass
    ------------   -----------------  -----------------  -----------------  -----------------
         O           -1.438302618170     1.812303871001    -0.005085781915    15.994914619570
         N           -1.131612618170    -0.467109128999     0.009887218085    14.003074004430
         N            0.728956381830     1.030470871001     0.012941218085    14.003074004430
         N            2.877975381830     0.220755871001    -0.072604781915    14.003074004430
         C           -0.280719918170    -1.583868628999     0.002401718085    12.000000000000
         C            1.062565381830    -1.370900128999    -0.000663781915    12.000000000000
         C           -0.647858618170     0.870132871001     0.018902218085    12.000000000000
         C           -2.575706618170    -0.691520128999     0.003896218085    12.000000000000
         C            1.570684681830    -0.033005628999     0.002974018085    12.000000000000
         H           -0.766204618170    -2.512813128999    -0.006576781915     1.007825032230
         H            1.741387381830    -2.215860128999    -0.028011781915     1.007825032230
         H           -2.877468618170    -1.251339128999     0.892588218085     1.007825032230
         H           -2.872362618170    -1.238083128999    -0.894683781915     1.007825032230
         H           -3.040283618170     0.291306871001     0.010329218085     1.007825032230
         H            3.488746381830    -0.467116128999     0.350153218085     1.007825032230
         H            3.131406381830     1.184728871001     0.120965218085     1.007825032230

  Basis Set: AUG-CC-PVTZ
    Blend: AUG-CC-PVTZ
  Basis Set: (AUG-CC-PVTZ AUX)
    Blend: AUG-CC-PVTZ-JKFIT
	 Reference Energy          =    -431.7917729595487231 [Eh]
	 Singles Energy            =      -0.0000000000000000 [Eh]
	 Same-Spin Energy          =      -0.4509630823864392 [Eh]
	 Opposite-Spin Energy      =      -1.3735954386853504 [Eh]
	 Correlation Energy        =      -1.8245585210717896 [Eh]
	 Total Energy              =    -433.6163314806204880 [Eh]

	 ================> DF-SCS-MP2 Energies <==================
	-----------------------------------------------------------
	 SCS Same-Spin Scale       =       0.3333333333333333 [-]
	 SCS Opposite-Spin Scale   =       1.2000000000000000 [-]
	 SCS Same-Spin Energy      =      -0.1503210274621464 [Eh]
	 SCS Opposite-Spin Energy  =      -1.6483145264224204 [Eh]
	 SCS Correlation Energy    =      -1.7986355538845669 [Eh]
	 SCS Total Energy          =    -433.5904085134333172 [Eh]
	-----------------------------------------------------------

  Dipole Moment: [D]
     X:     2.2930      Y:    -5.7497      Z:     0.8175     Total:     6.2438

*** Psi4 exiting successfully. Buy a developer a beer!
