                               Psi4 1.3.2 release

  ==> Input File <==

--------------------------------------------------------------------------
#psi4
#
memory 32 gb

molecule  {
0 1
  O       -1.4243350     1.8531120    -0.0084660
  N       -1.1176450    -0.4263010     0.0065070
  N        0.7429240     1.0712790     0.0095610
  N        2.8919430     0.2615640    -0.0759850
  C       -0.2733660    -1.4960510    -0.0007800
  C        1.0765330    -1.3300920    -0.0040440
  C       -0.6338910     0.9109410     0.0155220
  C       -2.5617390    -0.6507120     0.0005160
  C        1.4167012     0.1839963     0.0012804
  H       -0.7522370    -2.4720050    -0.0099570
  H        1.7553550    -2.1750520    -0.0313920
  H       -2.8635010    -1.2105310     0.8892080
  H       -2.8583950    -1.1972750    -0.8980640
  H       -3.0263160     0.3321150     0.0069490
  H        3.5027140    -0.4263080     0.3467730
  H        3.1453740     1.2255370     0.1175850
units angstrom
no_reorient  #important for SAPT in psi4, default
symmetry c1  #important for SAPT in psi4, default
}

set PROPERTIES_ORIGIN ["COM"]
properties('MP2/aug-cc-pvtz', properties = ['dipole'])
--------------------------------------------------------------------------

    Molecular point group: c1
  Charge       = 0
  Multiplicity = 1
  Basis Set: AUG-CC-PVTZ
    Blend: AUG-CC-PVTZ
  Basis Set: (AUG-CC-PVTZ AUX)
    Blend: AUG-CC-PVTZ-JKFIT

    Orbital Energies [Eh]
    ---------------------

    Doubly Occupied:

       1A    -20.527523     2A    -15.624786     3A    -15.567121
       4A    -15.552173     5A    -11.396039     6A    -11.335079
       7A    -11.311762     8A    -11.273536     9A    -11.247648
      10A     -1.411000    11A     -1.336688    12A     -1.278842
      13A     -1.168513    14A     -1.059077    15A     -0.970344
      16A     -0.893589    17A     -0.867572    18A     -0.750278
      19A     -0.715664    20A     -0.687943    21A     -0.666468
      22A     -0.661999    23A     -0.622118    24A     -0.605404
      25A     -0.602744    26A     -0.593860    27A     -0.556661
      28A     -0.521429    29A     -0.481395    30A     -0.461130
      31A     -0.424591    32A     -0.404602    33A     -0.337184

  @DF-RHF Final Energy:  -431.73455383923590

   => Energetics <=

    Nuclear Repulsion Energy =            442.9675210356014645
    One-Electron Energy =               -1465.5746244073000071
    Two-Electron Energy =                 590.8725495324625854
    Total Energy =                       -431.7345538392359003
  Basis Set: (AUG-CC-PVTZ AUX)
    Blend: AUG-CC-PVTZ-RI
    Molecular point group: c1

    Geometry (in Angstrom), charge = 0, multiplicity = 1:

       Center              X                  Y                   Z               Mass
    ------------   -----------------  -----------------  -----------------  -----------------
         O           -1.421552291713     1.790886448123    -0.005266666265    15.994914619570
         N           -1.114862291713    -0.488526551877     0.009706333735    14.003074004430
         N            0.745706708287     1.009053448123     0.012760333735    14.003074004430
         N            2.894725708287     0.199338448123    -0.072785666265    14.003074004430
         C           -0.270583291713    -1.558276551877     0.002419333735    12.000000000000
         C            1.079315708287    -1.392317551877    -0.000844666265    12.000000000000
         C           -0.631108291713     0.848715448123     0.018721333735    12.000000000000
         C           -2.558956291713    -0.712937551877     0.003715333735    12.000000000000
         C            1.419483908287     0.121770748123     0.004479733735    12.000000000000
         H           -0.749454291713    -2.534230551877    -0.006757666265     1.007825032230
         H            1.758137708287    -2.237277551877    -0.028192666265     1.007825032230
         H           -2.860718291713    -1.272756551877     0.892407333735     1.007825032230
         H           -2.855612291713    -1.259500551877    -0.894864666265     1.007825032230
         H           -3.023533291713     0.269889448123     0.010148333735     1.007825032230
         H            3.505496708287    -0.488533551877     0.349972333735     1.007825032230
         H            3.148156708287     1.163311448123     0.120784333735     1.007825032230

  Basis Set: AUG-CC-PVTZ
    Blend: AUG-CC-PVTZ
  Basis Set: (AUG-CC-PVTZ AUX)
    Blend: AUG-CC-PVTZ-JKFIT
	 Reference Energy          =    -431.7345538392359003 [Eh]
	 Singles Energy            =      -0.0000000000000000 [Eh]
	 Same-Spin Energy          =      -0.4477586565716251 [Eh]
	 Opposite-Spin Energy      =      -1.3705955320044938 [Eh]
	 Correlation Energy        =      -1.8183541885761190 [Eh]
	 Total Energy              =    -433.5529080278120091 [Eh]

	 ================> DF-SCS-MP2 Energies <==================
	-----------------------------------------------------------
	 SCS Same-Spin Scale       =       0.3333333333333333 [-]
	 SCS Opposite-Spin Scale   =       1.2000000000000000 [-]
	 SCS Same-Spin Energy      =      -0.1492528855238750 [Eh]
	 SCS Opposite-Spin Energy  =      -1.6447146384053926 [Eh]
	 SCS Correlation Energy    =      -1.7939675239292676 [Eh]
	 SCS Total Energy          =    -433.5285213631651686 [Eh]
	-----------------------------------------------------------

  Dipole Moment: [D]
     X:     0.6001      Y:    -4.7858      Z:     0.8767     Total:     4.9023

*** Psi4 exiting successfully. Buy a developer a beer!
