                               Psi4 1.3.2 release

  ==> Input File <==

--------------------------------------------------------------------------
#psi4
#
memory 32 gb

molecule  {
0 1
  O       -1.3909817     1.8801366    -0.0076515
  N       -1.0706991    -0.4423715     0.0078136
  N        0.7429240     1.0712790     0.0095610
  N        2.8919430     0.2615640    -0.0759850
  C       -0.2733660    -1.4960510    -0.0007800
  C        1.0765330    -1.3300920    -0.0040440
  C       -0.6338910     0.9109410     0.0155220
  C       -2.5617390    -0.6507120     0.0005160
  C        1.5376510     0.0247200    -0.0002060
  H       -0.7522370    -2.4720050    -0.0099570
  H        1.7553550    -2.1750520    -0.0313920
  H       -2.8635010    -1.2105310     0.8892080
  H       -2.8583950    -1.1972750    -0.8980640
  H       -3.0263160     0.3321150     0.0069490
  H        3.5027140    -0.4263080     0.3467730
  H        3.1453740     1.2255370     0.1175850
units angstrom
no_reorient  #important for SAPT in psi4, default
symmetry c1  #important for SAPT in psi4, default
}

set PROPERTIES_ORIGIN ["COM"]
properties('MP2/aug-cc-pvtz', properties = ['dipole'])
--------------------------------------------------------------------------

    Molecular point group: c1
  Charge       = 0
  Multiplicity = 1
  Basis Set: AUG-CC-PVTZ
    Blend: AUG-CC-PVTZ
  Basis Set: (AUG-CC-PVTZ AUX)
    Blend: AUG-CC-PVTZ-JKFIT

    Orbital Energies [Eh]
    ---------------------

    Doubly Occupied:

       1A    -20.506400     2A    -15.629447     3A    -15.587957
       4A    -15.539552     5A    -11.373363     6A    -11.344854
       7A    -11.323921     8A    -11.277895     9A    -11.240865
      10A     -1.383847    11A     -1.301803    12A     -1.268154
      13A     -1.167000    14A     -1.069807    15A     -0.965920
      16A     -0.904054    17A     -0.854395    18A     -0.758548
      19A     -0.726186    20A     -0.681806    21A     -0.670994
      22A     -0.656822    23A     -0.621579    24A     -0.600101
      25A     -0.586784    26A     -0.580348    27A     -0.566690
      28A     -0.521931    29A     -0.484630    30A     -0.439660
      31A     -0.418027    32A     -0.385182    33A     -0.336143

  @DF-RHF Final Energy:  -431.79706498077906

   => Energetics <=

    Nuclear Repulsion Energy =            441.1834659485649013
    One-Electron Energy =               -1462.4117385316428681
    Two-Electron Energy =                 589.4312076022989686
    Total Energy =                       -431.7970649807790551
  Basis Set: (AUG-CC-PVTZ AUX)
    Blend: AUG-CC-PVTZ-RI
    Molecular point group: c1

    Geometry (in Angstrom), charge = 0, multiplicity = 1:

       Center              X                  Y                   Z               Mass
    ------------   -----------------  -----------------  -----------------  -----------------
         O           -1.409327175690     1.831537392746    -0.004560015232    15.994914619570
         N           -1.089044575690    -0.490970707254     0.010905084768    14.003074004430
         N            0.724578524310     1.022679792746     0.012652484768    14.003074004430
         N            2.873597524310     0.212964792746    -0.072893515232    14.003074004430
         C           -0.291711475690    -1.544650207254     0.002311484768    12.000000000000
         C            1.058187524310    -1.378691207254    -0.000952515232    12.000000000000
         C           -0.652236475690     0.862341792746     0.018613484768    12.000000000000
         C           -2.580084475690    -0.699311207254     0.003607484768    12.000000000000
         C            1.519305524310    -0.023879207254     0.002885484768    12.000000000000
         H           -0.770582475690    -2.520604207254    -0.006865515232     1.007825032230
         H            1.737009524310    -2.223651207254    -0.028300515232     1.007825032230
         H           -2.881846475690    -1.259130207254     0.892299484768     1.007825032230
         H           -2.876740475690    -1.245874207254    -0.894972515232     1.007825032230
         H           -3.044661475690     0.283515792746     0.010040484768     1.007825032230
         H            3.484368524310    -0.474907207254     0.349864484768     1.007825032230
         H            3.127028524310     1.176937792746     0.120676484768     1.007825032230

  Basis Set: AUG-CC-PVTZ
    Blend: AUG-CC-PVTZ
  Basis Set: (AUG-CC-PVTZ AUX)
    Blend: AUG-CC-PVTZ-JKFIT
	 Reference Energy          =    -431.7970649807790551 [Eh]
	 Singles Energy            =      -0.0000000000000000 [Eh]
	 Same-Spin Energy          =      -0.4506807238170723 [Eh]
	 Opposite-Spin Energy      =      -1.3724622991880067 [Eh]
	 Correlation Energy        =      -1.8231430230050789 [Eh]
	 Total Energy              =    -433.6202080037841142 [Eh]

	 ================> DF-SCS-MP2 Energies <==================
	-----------------------------------------------------------
	 SCS Same-Spin Scale       =       0.3333333333333333 [-]
	 SCS Opposite-Spin Scale   =       1.2000000000000000 [-]
	 SCS Same-Spin Energy      =      -0.1502269079390241 [Eh]
	 SCS Opposite-Spin Energy  =      -1.6469547590256080 [Eh]
	 SCS Correlation Energy    =      -1.7971816669646321 [Eh]
	 SCS Total Energy          =    -433.5942466477436597 [Eh]
	-----------------------------------------------------------

  Dipole Moment: [D]
     X:     1.3506      Y:    -5.6688      Z:     0.8309     Total:     5.8864

*** Psi4 exiting successfully. Buy a developer a beer!
