                               Psi4 1.4a3.dev225

  ==> Input File <==

--------------------------------------------------------------------------
#psi4
#
memory 32 gb

molecule  {
0 1
  O       -1.4602810    -1.8042760    -0.0008590
  N       -1.1067000     0.4494610     0.0014260
  N        0.7338450    -1.0777760     0.0056990
  N        2.8872480    -0.2944040    -0.0665390
  C       -0.2576190     1.5082170    -0.0002850
  C        1.0914800     1.3228940    -0.0047970
  C       -0.6316600    -0.8954310    -0.0014820
  C       -2.5563510     0.6193970     0.0049040
  C        1.5404980    -0.0347530    -0.0000590
  H       -0.7147670     2.4940890    -0.0022110
  H        1.8061295     2.2025935    -0.0255682
  H       -2.7835150     1.6863950     0.0041520
  H       -2.9802500     0.1433220     0.8903410
  H       -2.9840040     0.1411790    -0.8774920
  H        3.5206970     0.4000120     0.3068300
  H        3.1306380    -1.2574880     0.1361150
units angstrom
no_reorient  #important for SAPT in psi4, default
symmetry c1  #important for SAPT in psi4, default
}

set PROPERTIES_ORIGIN ["COM"]
properties('MP2/aug-cc-pvtz', properties = ['dipole'])
--------------------------------------------------------------------------

    Molecular point group: c1
  Charge       = 0
  Multiplicity = 1
  Basis Set: AUG-CC-PVTZ
    Blend: AUG-CC-PVTZ
  Basis Set: (AUG-CC-PVTZ AUX)
    Blend: AUG-CC-PVTZ-JKFIT

    Orbital Energies [Eh]
    ---------------------

    Doubly Occupied:

       1A    -20.503111     2A    -15.626408     3A    -15.591558
       4A    -15.542875     5A    -11.369409     6A    -11.350040
       7A    -11.328571     8A    -11.273715     9A    -11.248959
      10A     -1.383345    11A     -1.295625    12A     -1.268005
      13A     -1.171790    14A     -1.071185    15A     -0.964797
      16A     -0.898314    17A     -0.854462    18A     -0.759688
      19A     -0.722885    20A     -0.684190    21A     -0.671669
      22A     -0.655463    23A     -0.620119    24A     -0.601296
      25A     -0.587419    26A     -0.576593    27A     -0.565493
      28A     -0.517113    29A     -0.480474    30A     -0.442669
      31A     -0.418471    32A     -0.385218    33A     -0.337713

  @DF-RHF Final Energy:  -431.80077076930712

   => Energetics <=

    Nuclear Repulsion Energy =            441.3261769625027569
    One-Electron Energy =               -1462.7166157850176660
    Two-Electron Energy =                 589.5896680532077880
    Total Energy =                       -431.8007707693070643
  Basis Set: (AUG-CC-PVTZ AUX)
    Blend: AUG-CC-PVTZ-RI
    Molecular point group: c1

    Geometry (in Angstrom), charge = 0, multiplicity = 1:

       Center              X                  Y                   Z               Mass
    ------------   -----------------  -----------------  -----------------  -----------------
         O           -1.468880156244    -1.758851901959     0.002585758514    15.994914619570
         N           -1.115299156244     0.494885098041     0.004870758514    14.003074004430
         N            0.725245843756    -1.032351901959     0.009143758514    14.003074004430
         N            2.878648843756    -0.248979901959    -0.063094241486    14.003074004430
         C           -0.266218156244     1.553641098041     0.003159758514    12.000000000000
         C            1.082880843756     1.368318098041    -0.001352241486    12.000000000000
         C           -0.640259156244    -0.850006901959     0.001962758514    12.000000000000
         C           -2.564950156244     0.664821098041     0.008348758514    12.000000000000
         C            1.531898843756     0.010671098041     0.003385758514    12.000000000000
         H           -0.723366156244     2.539513098041     0.001233758514     1.007825032230
         H            1.797530343756     2.248017598041    -0.022123441486     1.007825032230
         H           -2.792114156244     1.731819098041     0.007596758514     1.007825032230
         H           -2.988849156244     0.188746098041     0.893785758514     1.007825032230
         H           -2.992603156244     0.186603098041    -0.874047241486     1.007825032230
         H            3.512097843756     0.445436098041     0.310274758514     1.007825032230
         H            3.122038843756    -1.212063901959     0.139559758514     1.007825032230

  Basis Set: AUG-CC-PVTZ
    Blend: AUG-CC-PVTZ
  Basis Set: (AUG-CC-PVTZ AUX)
    Blend: AUG-CC-PVTZ-JKFIT
	 Reference Energy          =    -431.8007707693071211 [Eh]
	 Singles Energy            =      -0.0000000000000000 [Eh]
	 Same-Spin Energy          =      -0.4505188707582206 [Eh]
	 Opposite-Spin Energy      =      -1.3722901394307372 [Eh]
	 Correlation Energy        =      -1.8228090101889578 [Eh]
	 Total Energy              =    -433.6235797794960831 [Eh]

	 ================> DF-SCS-MP2 Energies <==================
	-----------------------------------------------------------
	 SCS Same-Spin Scale       =       0.3333333333333333 [-]
	 SCS Opposite-Spin Scale   =       1.2000000000000000 [-]
	 SCS Same-Spin Energy      =      -0.1501729569194069 [Eh]
	 SCS Opposite-Spin Energy  =      -1.6467481673168847 [Eh]
	 SCS Correlation Energy    =      -1.7969211242362915 [Eh]
	 SCS Total Energy          =    -433.5976918935434128 [Eh]
	-----------------------------------------------------------

  Dipole Moment: [D]
     X:     1.8010      Y:     5.6002      Z:     0.7682     Total:     5.9326

*** Psi4 exiting successfully. Buy a developer a beer!
