                               Psi4 1.3.2 release

  ==> Input File <==

--------------------------------------------------------------------------
#psi4
#
memory 32 gb

molecule  {
0 1
  O       -1.4243350     1.8531120    -0.0084660
  N       -1.1059570    -0.4304709     0.0064084
  N        0.7442702     1.0592584     0.0094496
  N        2.8919430     0.2615640    -0.0759850
  C       -0.2733660    -1.4960510    -0.0007800
  C        1.0765330    -1.3300920    -0.0040440
  C       -0.6338910     0.9109410     0.0155220
  C       -2.5617390    -0.6507120     0.0005160
  C        1.5376510     0.0247200    -0.0002060
  H       -0.7522370    -2.4720050    -0.0099570
  H        1.7553550    -2.1750520    -0.0313920
  H       -2.8635010    -1.2105310     0.8892080
  H       -2.8583950    -1.1972750    -0.8980640
  H       -3.0263160     0.3321150     0.0069490
  H        3.5027140    -0.4263080     0.3467730
  H        3.1453740     1.2255370     0.1175850
units angstrom
no_reorient  #important for SAPT in psi4, default
symmetry c1  #important for SAPT in psi4, default
}

set PROPERTIES_ORIGIN ["COM"]
properties('MP2/aug-cc-pvtz', properties = ['dipole'])
--------------------------------------------------------------------------

    Molecular point group: c1
  Charge       = 0
  Multiplicity = 1
  Basis Set: AUG-CC-PVTZ
    Blend: AUG-CC-PVTZ
  Basis Set: (AUG-CC-PVTZ AUX)
    Blend: AUG-CC-PVTZ-JKFIT

    Orbital Energies [Eh]
    ---------------------

    Doubly Occupied:

       1A    -20.505626     2A    -15.625688     3A    -15.589949
       4A    -15.541940     5A    -11.373735     6A    -11.346915
       7A    -11.325567     8A    -11.271790     9A    -11.243981
      10A     -1.383796    11A     -1.298280    12A     -1.268087
      13A     -1.171495    14A     -1.071384    15A     -0.965550
      16A     -0.899906    17A     -0.855229    18A     -0.759124
      19A     -0.724411    20A     -0.684904    21A     -0.673317
      22A     -0.655725    23A     -0.622332    24A     -0.601115
      25A     -0.591697    26A     -0.580647    27A     -0.560951
      28A     -0.522254    29A     -0.478240    30A     -0.441625
      31A     -0.418603    32A     -0.388474    33A     -0.338222

  @DF-RHF Final Energy:  -431.80125064104658

   => Energetics <=

    Nuclear Repulsion Energy =            441.2746504168630963
    One-Electron Energy =               -1462.5906817307418351
    Two-Electron Energy =                 589.5147806728322166
    Total Energy =                       -431.8012506410465221
  Basis Set: (AUG-CC-PVTZ AUX)
    Blend: AUG-CC-PVTZ-RI
    Molecular point group: c1

    Geometry (in Angstrom), charge = 0, multiplicity = 1:

       Center              X                  Y                   Z               Mass
    ------------   -----------------  -----------------  -----------------  -----------------
         O           -1.434617465901     1.807982649728    -0.005100525002    15.994914619570
         N           -1.116239465901    -0.475600250272     0.009773874998    14.003074004430
         N            0.733987734099     1.014129049728     0.012815074998    14.003074004430
         N            2.881660534099     0.216434649728    -0.072619525002    14.003074004430
         C           -0.283648465901    -1.541180350272     0.002585474998    12.000000000000
         C            1.066250534099    -1.375221350272    -0.000678525002    12.000000000000
         C           -0.644173465901     0.865811649728     0.018887474998    12.000000000000
         C           -2.572021465901    -0.695841350272     0.003881474998    12.000000000000
         C            1.527368534099    -0.020409350272     0.003159474998    12.000000000000
         H           -0.762519465901    -2.517134350272    -0.006591525002     1.007825032230
         H            1.745072534099    -2.220181350272    -0.028026525002     1.007825032230
         H           -2.873783465901    -1.255660350272     0.892573474998     1.007825032230
         H           -2.868677465901    -1.242404350272    -0.894698525002     1.007825032230
         H           -3.036598465901     0.286985649728     0.010314474998     1.007825032230
         H            3.492431534099    -0.471437350272     0.350138474998     1.007825032230
         H            3.135091534099     1.180407649728     0.120950474998     1.007825032230

  Basis Set: AUG-CC-PVTZ
    Blend: AUG-CC-PVTZ
  Basis Set: (AUG-CC-PVTZ AUX)
    Blend: AUG-CC-PVTZ-JKFIT
	 Reference Energy          =    -431.8012506410465789 [Eh]
	 Singles Energy            =      -0.0000000000000000 [Eh]
	 Same-Spin Energy          =      -0.4503816091195841 [Eh]
	 Opposite-Spin Energy      =      -1.3719586736834859 [Eh]
	 Correlation Energy        =      -1.8223402828030699 [Eh]
	 Total Energy              =    -433.6235909238496333 [Eh]

	 ================> DF-SCS-MP2 Energies <==================
	-----------------------------------------------------------
	 SCS Same-Spin Scale       =       0.3333333333333333 [-]
	 SCS Opposite-Spin Scale   =       1.2000000000000000 [-]
	 SCS Same-Spin Energy      =      -0.1501272030398614 [Eh]
	 SCS Opposite-Spin Energy  =      -1.6463504084201830 [Eh]
	 SCS Correlation Energy    =      -1.7964776114600443 [Eh]
	 SCS Total Energy          =    -433.5977282525066130 [Eh]
	-----------------------------------------------------------

  Dipole Moment: [D]
     X:     1.6059      Y:    -5.5859      Z:     0.8342     Total:     5.8717

*** Psi4 exiting successfully. Buy a developer a beer!
