                               Psi4 1.3.2 release

  ==> Input File <==

--------------------------------------------------------------------------
#psi4
#
memory 32 gb

molecule  {
0 1
  O       -1.4243350     1.8531120    -0.0084660
  N       -1.1724752    -0.4719537     0.0064656
  N        0.7429240     1.0712790     0.0095610
  N        2.8919430     0.2615640    -0.0759850
  C       -0.2733660    -1.4960510    -0.0007800
  C        1.0833677    -1.4009672    -0.0043811
  C       -0.6338910     0.9109410     0.0155220
  C       -2.5617390    -0.6507120     0.0005160
  C        1.5376510     0.0247200    -0.0002060
  H       -0.7522370    -2.4720050    -0.0099570
  H        1.7553550    -2.1750520    -0.0313920
  H       -2.8635010    -1.2105310     0.8892080
  H       -2.8583950    -1.1972750    -0.8980640
  H       -3.0263160     0.3321150     0.0069490
  H        3.5027140    -0.4263080     0.3467730
  H        3.1453740     1.2255370     0.1175850
units angstrom
no_reorient  #important for SAPT in psi4, default
symmetry c1  #important for SAPT in psi4, default
}

set PROPERTIES_ORIGIN ["COM"]
properties('MP2/aug-cc-pvtz', properties = ['dipole'])
--------------------------------------------------------------------------

    Molecular point group: c1
  Charge       = 0
  Multiplicity = 1
  Basis Set: AUG-CC-PVTZ
    Blend: AUG-CC-PVTZ
  Basis Set: (AUG-CC-PVTZ AUX)
    Blend: AUG-CC-PVTZ-JKFIT

    Orbital Energies [Eh]
    ---------------------

    Doubly Occupied:

       1A    -20.512570     2A    -15.622410     3A    -15.595146
       4A    -15.549180     5A    -11.380271     6A    -11.357702
       7A    -11.324467     8A    -11.263676     9A    -11.246323
      10A     -1.382153    11A     -1.295516    12A     -1.271389
      13A     -1.175192    14A     -1.072386    15A     -0.963050
      16A     -0.883144    17A     -0.857331    18A     -0.755547
      19A     -0.722245    20A     -0.698264    21A     -0.676057
      22A     -0.656660    23A     -0.629282    24A     -0.608037
      25A     -0.586627    26A     -0.578773    27A     -0.556846
      28A     -0.519851    29A     -0.475767    30A     -0.445891
      31A     -0.419829    32A     -0.389253    33A     -0.338195

  @DF-RHF Final Energy:  -431.78812978709169

   => Energetics <=

    Nuclear Repulsion Energy =            438.8909073480939469
    One-Electron Energy =               -1457.7400197216211382
    Two-Electron Energy =                 587.0609825864355571
    Total Energy =                       -431.7881297870916342
  Basis Set: (AUG-CC-PVTZ AUX)
    Blend: AUG-CC-PVTZ-RI
    Molecular point group: c1

    Geometry (in Angstrom), charge = 0, multiplicity = 1:

       Center              X                  Y                   Z               Mass
    ------------   -----------------  -----------------  -----------------  -----------------
         O           -1.427674387614     1.818082399903    -0.005087057096    15.994914619570
         N           -1.175814587614    -0.506983300097     0.009844542904    14.003074004430
         N            0.739584612386     1.036249399903     0.012939942904    14.003074004430
         N            2.888603612386     0.226534399903    -0.072606057096    14.003074004430
         C           -0.276705387614    -1.531080600097     0.002598942904    12.000000000000
         C            1.080028312386    -1.435996800097    -0.001002157096    12.000000000000
         C           -0.637230387614     0.875911399903     0.018900942904    12.000000000000
         C           -2.565078387614    -0.685741600097     0.003894942904    12.000000000000
         C            1.534311612386    -0.010309600097     0.003172942904    12.000000000000
         H           -0.755576387614    -2.507034600097    -0.006578057096     1.007825032230
         H            1.752015612386    -2.210081600097    -0.028013057096     1.007825032230
         H           -2.866840387614    -1.245560600097     0.892586942904     1.007825032230
         H           -2.861734387614    -1.232304600097    -0.894685057096     1.007825032230
         H           -3.029655387614     0.297085399903     0.010327942904     1.007825032230
         H            3.499374612386    -0.461337600097     0.350151942904     1.007825032230
         H            3.142034612386     1.190507399903     0.120963942904     1.007825032230

  Basis Set: AUG-CC-PVTZ
    Blend: AUG-CC-PVTZ
  Basis Set: (AUG-CC-PVTZ AUX)
    Blend: AUG-CC-PVTZ-JKFIT
	 Reference Energy          =    -431.7881297870916910 [Eh]
	 Singles Energy            =      -0.0000000000000000 [Eh]
	 Same-Spin Energy          =      -0.4501658977101406 [Eh]
	 Opposite-Spin Energy      =      -1.3729030917302802 [Eh]
	 Correlation Energy        =      -1.8230689894404208 [Eh]
	 Total Energy              =    -433.6111987765320919 [Eh]

	 ================> DF-SCS-MP2 Energies <==================
	-----------------------------------------------------------
	 SCS Same-Spin Scale       =       0.3333333333333333 [-]
	 SCS Opposite-Spin Scale   =       1.2000000000000000 [-]
	 SCS Same-Spin Energy      =      -0.1500552992367135 [Eh]
	 SCS Opposite-Spin Energy  =      -1.6474837100763362 [Eh]
	 SCS Correlation Energy    =      -1.7975390093130497 [Eh]
	 SCS Total Energy          =    -433.5856687964047183 [Eh]
	-----------------------------------------------------------

  Dipole Moment: [D]
     X:     1.9176      Y:    -5.1941      Z:     0.8248     Total:     5.5978

*** Psi4 exiting successfully. Buy a developer a beer!
