                               Psi4 1.3.2 release

  ==> Input File <==

--------------------------------------------------------------------------
#psi4
#
memory 32 gb

molecule  {
0 1
  O       -1.4243350     1.8531120    -0.0084660
  N       -1.1176450    -0.4263010     0.0065070
  N        0.7429240     1.0712790     0.0095610
  N        2.8919430     0.2615640    -0.0759850
  C       -0.2733660    -1.4960510    -0.0007800
  C        1.0765330    -1.3300920    -0.0040440
  C       -0.6338910     0.9109410     0.0155220
  C       -2.5617390    -0.6507120     0.0005160
  C        1.5376510     0.0247200    -0.0002060
  H       -0.7522370    -2.4720050    -0.0099570
  H        1.7553550    -2.1750520    -0.0313920
  H       -2.8635010    -1.2105310     0.8892080
  H       -2.8583950    -1.1972750    -0.8980640
  H       -3.0263160     0.3321150     0.0069490
  H        3.5075446    -0.4198005     0.3502902
  H        3.1522478     1.2227194     0.1224144
units angstrom
no_reorient  #important for SAPT in psi4, default
symmetry c1  #important for SAPT in psi4, default
}

set PROPERTIES_ORIGIN ["COM"]
properties('MP2/aug-cc-pvtz', properties = ['dipole'])
--------------------------------------------------------------------------

    Molecular point group: c1
  Charge       = 0
  Multiplicity = 1
  Basis Set: AUG-CC-PVTZ
    Blend: AUG-CC-PVTZ
  Basis Set: (AUG-CC-PVTZ AUX)
    Blend: AUG-CC-PVTZ-JKFIT

    Orbital Energies [Eh]
    ---------------------

    Doubly Occupied:

       1A    -20.503592     2A    -15.625420     3A    -15.591463
       4A    -15.543642     5A    -11.372258     6A    -11.349471
       7A    -11.327210     8A    -11.270477     9A    -11.245988
      10A     -1.382598    11A     -1.295970    12A     -1.267371
      13A     -1.170743    14A     -1.072711    15A     -0.965384
      16A     -0.899383    17A     -0.854035    18A     -0.758481
      19A     -0.724227    20A     -0.685980    21A     -0.673213
      22A     -0.655501    23A     -0.622073    24A     -0.601671
      25A     -0.592354    26A     -0.579783    27A     -0.559121
      28A     -0.521905    29A     -0.476289    30A     -0.440878
      31A     -0.419779    32A     -0.387961    33A     -0.338975

  @DF-RHF Final Energy:  -431.80097464166590

   => Energetics <=

    Nuclear Repulsion Energy =            440.8948919311112604
    One-Electron Energy =               -1461.8399234041178261
    Two-Electron Energy =                 589.1440568313406629
    Total Energy =                       -431.8009746416659027
  Basis Set: (AUG-CC-PVTZ AUX)
    Blend: AUG-CC-PVTZ-RI
    Molecular point group: c1

    Geometry (in Angstrom), charge = 0, multiplicity = 1:

       Center              X                  Y                   Z               Mass
    ------------   -----------------  -----------------  -----------------  -----------------
         O           -1.433252326245     1.806140033798    -0.005191302683    15.994914619570
         N           -1.126562326245    -0.473272966202     0.009781697317    14.003074004430
         N            0.734006673755     1.024307033798     0.012835697317    14.003074004430
         N            2.883025673755     0.214592033798    -0.072710302683    14.003074004430
         C           -0.282283326245    -1.543022966202     0.002494697317    12.000000000000
         C            1.067615673755    -1.377063966202    -0.000769302683    12.000000000000
         C           -0.642808326245     0.863969033798     0.018796697317    12.000000000000
         C           -2.570656326245    -0.697683966202     0.003790697317    12.000000000000
         C            1.528733673755    -0.022251966202     0.003068697317    12.000000000000
         H           -0.761154326245    -2.518976966202    -0.006682302683     1.007825032230
         H            1.746437673755    -2.222023966202    -0.028117302683     1.007825032230
         H           -2.872418326245    -1.257502966202     0.892482697317     1.007825032230
         H           -2.867312326245    -1.244246966202    -0.894789302683     1.007825032230
         H           -3.035233326245     0.285143033798     0.010223697317     1.007825032230
         H            3.498627273755    -0.466772466202     0.353564897317     1.007825032230
         H            3.143330473755     1.175747433798     0.125689097317     1.007825032230

  Basis Set: AUG-CC-PVTZ
    Blend: AUG-CC-PVTZ
  Basis Set: (AUG-CC-PVTZ AUX)
    Blend: AUG-CC-PVTZ-JKFIT
	 Reference Energy          =    -431.8009746416659027 [Eh]
	 Singles Energy            =      -0.0000000000000000 [Eh]
	 Same-Spin Energy          =      -0.4503758479346757 [Eh]
	 Opposite-Spin Energy      =      -1.3721615456094987 [Eh]
	 Correlation Energy        =      -1.8225373935441742 [Eh]
	 Total Energy              =    -433.6235120352100694 [Eh]

	 ================> DF-SCS-MP2 Energies <==================
	-----------------------------------------------------------
	 SCS Same-Spin Scale       =       0.3333333333333333 [-]
	 SCS Opposite-Spin Scale   =       1.2000000000000000 [-]
	 SCS Same-Spin Energy      =      -0.1501252826448919 [Eh]
	 SCS Opposite-Spin Energy  =      -1.6465938547313983 [Eh]
	 SCS Correlation Energy    =      -1.7967191373762903 [Eh]
	 SCS Total Energy          =    -433.5976937790421744 [Eh]
	-----------------------------------------------------------

  Dipole Moment: [D]
     X:     1.7050      Y:    -5.6301      Z:     0.8429     Total:     5.9427

*** Psi4 exiting successfully. Buy a developer a beer!
