                               Psi4 1.3.2 release

  ==> Input File <==

--------------------------------------------------------------------------
#psi4
#
memory 32 gb

molecule  {
0 1
  O       -1.4243350     1.8531120    -0.0084660
  N       -1.1176450    -0.4263010     0.0065070
  N        0.7429240     1.0712790     0.0095610
  N        2.8919430     0.2615640    -0.0759850
  C       -0.2733660    -1.4960510    -0.0007800
  C        0.9772806    -1.3422943    -0.0038040
  C       -0.6338910     0.9109410     0.0155220
  C       -2.5617390    -0.6507120     0.0005160
  C        1.5376510     0.0247200    -0.0002060
  H       -0.7522370    -2.4720050    -0.0099570
  H        1.7553550    -2.1750520    -0.0313920
  H       -2.8635010    -1.2105310     0.8892080
  H       -2.8583950    -1.1972750    -0.8980640
  H       -3.0263160     0.3321150     0.0069490
  H        3.5027140    -0.4263080     0.3467730
  H        3.1453740     1.2255370     0.1175850
units angstrom
no_reorient  #important for SAPT in psi4, default
symmetry c1  #important for SAPT in psi4, default
}

set PROPERTIES_ORIGIN ["COM"]
properties('MP2/aug-cc-pvtz', properties = ['dipole'])
--------------------------------------------------------------------------

    Molecular point group: c1
  Charge       = 0
  Multiplicity = 1
  Basis Set: AUG-CC-PVTZ
    Blend: AUG-CC-PVTZ
  Basis Set: (AUG-CC-PVTZ AUX)
    Blend: AUG-CC-PVTZ-JKFIT

    Orbital Energies [Eh]
    ---------------------

    Doubly Occupied:

       1A    -20.502755     2A    -15.614115     3A    -15.599435
       4A    -15.545926     5A    -11.371025     6A    -11.356376
       7A    -11.305075     8A    -11.265721     9A    -11.245434
      10A     -1.381009    11A     -1.296911    12A     -1.266681
      13A     -1.173383    14A     -1.088800    15A     -0.959144
      16A     -0.889450    17A     -0.857791    18A     -0.763298
      19A     -0.725158    20A     -0.685751    21A     -0.672130
      22A     -0.653432    23A     -0.615321    24A     -0.610966
      25A     -0.581558    26A     -0.576238    27A     -0.555723
      28A     -0.521861    29A     -0.484813    30A     -0.439017
      31A     -0.416688    32A     -0.388952    33A     -0.347261

  @DF-RHF Final Energy:  -431.78848529684717

   => Energetics <=

    Nuclear Repulsion Energy =            441.9041401838024967
    One-Electron Energy =               -1463.8708555505370441
    Two-Electron Energy =                 590.1782300698873769
    Total Energy =                       -431.7884852968471705
  Basis Set: (AUG-CC-PVTZ AUX)
    Blend: AUG-CC-PVTZ-RI
    Molecular point group: c1

    Geometry (in Angstrom), charge = 0, multiplicity = 1:

       Center              X                  Y                   Z               Mass
    ------------   -----------------  -----------------  -----------------  -----------------
         O           -1.423634260892     1.807340638947    -0.005147068231    15.994914619570
         N           -1.116944260892    -0.472072361053     0.009825931769    14.003074004430
         N            0.743624739108     1.025507638947     0.012879931769    14.003074004430
         N            2.892643739108     0.215792638947    -0.072666068231    14.003074004430
         C           -0.272665260892    -1.541822361053     0.002538931769    12.000000000000
         C            0.977981339108    -1.388065661053    -0.000485068231    12.000000000000
         C           -0.633190260892     0.865169638947     0.018840931769    12.000000000000
         C           -2.561038260892    -0.696483361053     0.003834931769    12.000000000000
         C            1.538351739108    -0.021051361053     0.003112931769    12.000000000000
         H           -0.751536260892    -2.517776361053    -0.006638068231     1.007825032230
         H            1.756055739108    -2.220823361053    -0.028073068231     1.007825032230
         H           -2.862800260892    -1.256302361053     0.892526931769     1.007825032230
         H           -2.857694260892    -1.243046361053    -0.894745068231     1.007825032230
         H           -3.025615260892     0.286343638947     0.010267931769     1.007825032230
         H            3.503414739108    -0.472079361053     0.350091931769     1.007825032230
         H            3.146074739108     1.179765638947     0.120903931769     1.007825032230

  Basis Set: AUG-CC-PVTZ
    Blend: AUG-CC-PVTZ
  Basis Set: (AUG-CC-PVTZ AUX)
    Blend: AUG-CC-PVTZ-JKFIT
	 Reference Energy          =    -431.7884852968471705 [Eh]
	 Singles Energy            =      -0.0000000000000000 [Eh]
	 Same-Spin Energy          =      -0.4491463405623406 [Eh]
	 Opposite-Spin Energy      =      -1.3707140740221742 [Eh]
	 Correlation Energy        =      -1.8198604145845148 [Eh]
	 Total Energy              =    -433.6083457114316957 [Eh]

	 ================> DF-SCS-MP2 Energies <==================
	-----------------------------------------------------------
	 SCS Same-Spin Scale       =       0.3333333333333333 [-]
	 SCS Opposite-Spin Scale   =       1.2000000000000000 [-]
	 SCS Same-Spin Energy      =      -0.1497154468541135 [Eh]
	 SCS Opposite-Spin Energy  =      -1.6448568888266089 [Eh]
	 SCS Correlation Energy    =      -1.7945723356807224 [Eh]
	 SCS Total Energy          =    -433.5830576325278685 [Eh]
	-----------------------------------------------------------

  Dipole Moment: [D]
     X:     2.0573      Y:    -5.5149      Z:     0.8354     Total:     5.9451

*** Psi4 exiting successfully. Buy a developer a beer!
