                               Psi4 1.3.2 release

  ==> Input File <==

--------------------------------------------------------------------------
#psi4
#
memory 32 gb

molecule  {
0 1
  O       -1.4243350     1.8531120    -0.0084660
  N       -1.1176450    -0.4263010     0.0065070
  N        0.7429240     1.0712790     0.0095610
  N        2.8919430     0.2615640    -0.0759850
  C       -0.2733660    -1.4960510    -0.0007800
  C        1.0765330    -1.3300920    -0.0040440
  C       -0.6338910     0.9109410     0.0155220
  C       -2.5617390    -0.6507120     0.0005160
  C        1.5376510     0.0247200    -0.0002060
  H       -0.7522370    -2.4720050    -0.0099570
  H        1.7553550    -2.1750520    -0.0313920
  H       -2.8635010    -1.2105310     0.8892080
  H       -2.8583950    -1.1972750    -0.8980640
  H       -3.0263160     0.3321150     0.0069490
  H        3.4727668    -0.4642359     0.3250034
  H        3.1037446     1.2408939     0.0883123
units angstrom
no_reorient  #important for SAPT in psi4, default
symmetry c1  #important for SAPT in psi4, default
}

set PROPERTIES_ORIGIN ["COM"]
properties('MP2/aug-cc-pvtz', properties = ['dipole'])
--------------------------------------------------------------------------

    Molecular point group: c1
  Charge       = 0
  Multiplicity = 1
  Basis Set: AUG-CC-PVTZ
    Blend: AUG-CC-PVTZ
  Basis Set: (AUG-CC-PVTZ AUX)
    Blend: AUG-CC-PVTZ-JKFIT

    Orbital Energies [Eh]
    ---------------------

    Doubly Occupied:

       1A    -20.503477     2A    -15.625218     3A    -15.591797
       4A    -15.543161     5A    -11.372160     6A    -11.348011
       7A    -11.327271     8A    -11.270419     9A    -11.245920
      10A     -1.382500    11A     -1.296252    12A     -1.267927
      13A     -1.170414    14A     -1.072656    15A     -0.964685
      16A     -0.899425    17A     -0.851784    18A     -0.762295
      19A     -0.721330    20A     -0.684719    21A     -0.678560
      22A     -0.655506    23A     -0.621483    24A     -0.601981
      25A     -0.592407    26A     -0.579890    27A     -0.558999
      28A     -0.521755    29A     -0.476237    30A     -0.440856
      31A     -0.419635    32A     -0.386938    33A     -0.339138

  @DF-RHF Final Energy:  -431.80019239122470

   => Energetics <=

    Nuclear Repulsion Energy =            441.0633648271216316
    One-Electron Energy =               -1462.1775050052578990
    Two-Electron Energy =                 589.3139477869115126
    Total Energy =                       -431.8001923912247548
  Basis Set: (AUG-CC-PVTZ AUX)
    Blend: AUG-CC-PVTZ-RI
    Molecular point group: c1

    Geometry (in Angstrom), charge = 0, multiplicity = 1:

       Center              X                  Y                   Z               Mass
    ------------   -----------------  -----------------  -----------------  -----------------
         O           -1.432581181140     1.806351665196    -0.004712699286    15.994914619570
         N           -1.125891181140    -0.473061334804     0.010260300714    14.003074004430
         N            0.734677818860     1.024518665196     0.013314300714    14.003074004430
         N            2.883696818860     0.214803665196    -0.072231699286    14.003074004430
         C           -0.281612181140    -1.542811334804     0.002973300714    12.000000000000
         C            1.068286818860    -1.376852334804    -0.000290699286    12.000000000000
         C           -0.642137181140     0.864180665196     0.019275300714    12.000000000000
         C           -2.569985181140    -0.697472334804     0.004269300714    12.000000000000
         C            1.529404818860    -0.022040334804     0.003547300714    12.000000000000
         H           -0.760483181140    -2.518765334804    -0.006203699286     1.007825032230
         H            1.747108818860    -2.221812334804    -0.027638699286     1.007825032230
         H           -2.871747181140    -1.257291334804     0.892961300714     1.007825032230
         H           -2.866641181140    -1.244035334804    -0.894310699286     1.007825032230
         H           -3.034562181140     0.285354665196     0.010702300714     1.007825032230
         H            3.464520618860    -0.510996234804     0.328756700714     1.007825032230
         H            3.095498418860     1.194133565196     0.092065600714     1.007825032230

  Basis Set: AUG-CC-PVTZ
    Blend: AUG-CC-PVTZ
  Basis Set: (AUG-CC-PVTZ AUX)
    Blend: AUG-CC-PVTZ-JKFIT
	 Reference Energy          =    -431.8001923912246980 [Eh]
	 Singles Energy            =      -0.0000000000000000 [Eh]
	 Same-Spin Energy          =      -0.4504964054751622 [Eh]
	 Opposite-Spin Energy      =      -1.3722501755188579 [Eh]
	 Correlation Energy        =      -1.8227465809940200 [Eh]
	 Total Energy              =    -433.6229389722187193 [Eh]

	 ================> DF-SCS-MP2 Energies <==================
	-----------------------------------------------------------
	 SCS Same-Spin Scale       =       0.3333333333333333 [-]
	 SCS Opposite-Spin Scale   =       1.2000000000000000 [-]
	 SCS Same-Spin Energy      =      -0.1501654684917207 [Eh]
	 SCS Opposite-Spin Energy  =      -1.6467002106226294 [Eh]
	 SCS Correlation Energy    =      -1.7968656791143500 [Eh]
	 SCS Total Energy          =    -433.5970580703390738 [Eh]
	-----------------------------------------------------------

  Dipole Moment: [D]
     X:     1.6882      Y:    -5.6506      Z:     0.7678     Total:     5.9472

*** Psi4 exiting successfully. Buy a developer a beer!
