                               Psi4 1.4a3.dev225

  ==> Input File <==

--------------------------------------------------------------------------
#psi4
#
memory 32 gb

molecule  {
0 1
  O       -1.4602810    -1.8042760    -0.0008590
  N       -1.1067000     0.4494610     0.0014260
  N        0.7338450    -1.0777760     0.0056990
  N        2.8872480    -0.2944040    -0.0665390
  C       -0.2576190     1.5082170    -0.0002850
  C        1.0914800     1.3228940    -0.0047970
  C       -0.6118362    -0.8980782    -0.0013777
  C       -2.5563510     0.6193970     0.0049040
  C        1.5404980    -0.0347530    -0.0000590
  H       -0.7147670     2.4940890    -0.0022110
  H        1.7746080     2.1637920    -0.0246520
  H       -2.7835150     1.6863950     0.0041520
  H       -2.9802500     0.1433220     0.8903410
  H       -2.9840040     0.1411790    -0.8774920
  H        3.5206970     0.4000120     0.3068300
  H        3.1306380    -1.2574880     0.1361150
units angstrom
no_reorient  #important for SAPT in psi4, default
symmetry c1  #important for SAPT in psi4, default
}

set PROPERTIES_ORIGIN ["COM"]
properties('MP2/aug-cc-pvtz', properties = ['dipole'])
--------------------------------------------------------------------------

    Molecular point group: c1
  Charge       = 0
  Multiplicity = 1
  Basis Set: AUG-CC-PVTZ
    Blend: AUG-CC-PVTZ
  Basis Set: (AUG-CC-PVTZ AUX)
    Blend: AUG-CC-PVTZ-JKFIT

    Orbital Energies [Eh]
    ---------------------

    Doubly Occupied:

       1A    -20.499591     2A    -15.626149     3A    -15.593456
       4A    -15.543493     5A    -11.369049     6A    -11.352252
       7A    -11.328715     8A    -11.273077     9A    -11.243635
      10A     -1.377952    11A     -1.293431    12A     -1.267580
      13A     -1.176952    14A     -1.072804    15A     -0.964879
      16A     -0.896991    17A     -0.859382    18A     -0.760607
      19A     -0.725108    20A     -0.686715    21A     -0.675277
      22A     -0.653953    23A     -0.620947    24A     -0.601381
      25A     -0.590344    26A     -0.577722    27A     -0.564661
      28A     -0.515113    29A     -0.479179    30A     -0.440450
      31A     -0.419106    32A     -0.386378    33A     -0.337371

  @DF-RHF Final Energy:  -431.80223846775459

   => Energetics <=

    Nuclear Repulsion Energy =            441.5844463194418950
    One-Electron Energy =               -1463.2259657636307111
    Two-Electron Energy =                 589.8392809764342246
    Total Energy =                       -431.8022384677545915
  Basis Set: (AUG-CC-PVTZ AUX)
    Blend: AUG-CC-PVTZ-RI
    Molecular point group: c1

    Geometry (in Angstrom), charge = 0, multiplicity = 1:

       Center              X                  Y                   Z               Mass
    ------------   -----------------  -----------------  -----------------  -----------------
         O           -1.470528319019    -1.758285196861     0.002568366957    15.994914619570
         N           -1.116947319019     0.495451803139     0.004853366957    14.003074004430
         N            0.723597680981    -1.031785196861     0.009126366957    14.003074004430
         N            2.877000680981    -0.248413196861    -0.063111633043    14.003074004430
         C           -0.267866319019     1.554207803139     0.003142366957    12.000000000000
         C            1.081232680981     1.368884803139    -0.001369633043    12.000000000000
         C           -0.622083519019    -0.852087396861     0.002049666957    12.000000000000
         C           -2.566598319019     0.665387803139     0.008331366957    12.000000000000
         C            1.530250680981     0.011237803139     0.003368366957    12.000000000000
         H           -0.725014319019     2.540079803139     0.001216366957     1.007825032230
         H            1.764360680981     2.209782803139    -0.021224633043     1.007825032230
         H           -2.793762319019     1.732385803139     0.007579366957     1.007825032230
         H           -2.990497319019     0.189312803139     0.893768366957     1.007825032230
         H           -2.994251319019     0.187169803139    -0.874064633043     1.007825032230
         H            3.510449680981     0.446002803139     0.310257366957     1.007825032230
         H            3.120390680981    -1.211497196861     0.139542366957     1.007825032230

  Basis Set: AUG-CC-PVTZ
    Blend: AUG-CC-PVTZ
  Basis Set: (AUG-CC-PVTZ AUX)
    Blend: AUG-CC-PVTZ-JKFIT
	 Reference Energy          =    -431.8022384677545915 [Eh]
	 Singles Energy            =      -0.0000000000000000 [Eh]
	 Same-Spin Energy          =      -0.4506628217369419 [Eh]
	 Opposite-Spin Energy      =      -1.3720959343646864 [Eh]
	 Correlation Energy        =      -1.8227587561016283 [Eh]
	 Total Energy              =    -433.6249972238562123 [Eh]

	 ================> DF-SCS-MP2 Energies <==================
	-----------------------------------------------------------
	 SCS Same-Spin Scale       =       0.3333333333333333 [-]
	 SCS Opposite-Spin Scale   =       1.2000000000000000 [-]
	 SCS Same-Spin Energy      =      -0.1502209405789806 [Eh]
	 SCS Opposite-Spin Energy  =      -1.6465151212376237 [Eh]
	 SCS Correlation Energy    =      -1.7967360618166044 [Eh]
	 SCS Total Energy          =    -433.5989745295711941 [Eh]
	-----------------------------------------------------------

  Dipole Moment: [D]
     X:     1.9456      Y:     5.6528      Z:     0.7687     Total:     6.0275

*** Psi4 exiting successfully. Buy a developer a beer!
