                               Psi4 1.3.2 release

  ==> Input File <==

--------------------------------------------------------------------------
#psi4
#
memory 32 gb

molecule  {
0 1
  O       -1.4243350     1.8531120    -0.0084660
  N       -1.1176450    -0.4263010     0.0065070
  N        0.7429240     1.0712790     0.0095610
  N        2.8919430     0.2615640    -0.0759850
  C       -0.2921647    -1.5106224    -0.0008774
  C        1.0765330    -1.3300920    -0.0040440
  C       -0.6573033     0.9191798     0.0155792
  C       -2.5617390    -0.6507120     0.0005160
  C        1.5376510     0.0247200    -0.0002060
  H       -0.7522370    -2.4720050    -0.0099570
  H        1.7553550    -2.1750520    -0.0313920
  H       -2.8635010    -1.2105310     0.8892080
  H       -2.8583950    -1.1972750    -0.8980640
  H       -3.0263160     0.3321150     0.0069490
  H        3.5027140    -0.4263080     0.3467730
  H        3.1453740     1.2255370     0.1175850
units angstrom
no_reorient  #important for SAPT in psi4, default
symmetry c1  #important for SAPT in psi4, default
}

set PROPERTIES_ORIGIN ["COM"]
properties('MP2/aug-cc-pvtz', properties = ['dipole'])
--------------------------------------------------------------------------

    Molecular point group: c1
  Charge       = 0
  Multiplicity = 1
  Basis Set: AUG-CC-PVTZ
    Blend: AUG-CC-PVTZ
  Basis Set: (AUG-CC-PVTZ AUX)
    Blend: AUG-CC-PVTZ-JKFIT

    Orbital Energies [Eh]
    ---------------------

    Doubly Occupied:

       1A    -20.510139     2A    -15.625374     3A    -15.588580
       4A    -15.541470     5A    -11.373584     6A    -11.345616
       7A    -11.327935     8A    -11.270347     9A    -11.246291
      10A     -1.393703    11A     -1.299038    12A     -1.266192
      13A     -1.164380    14A     -1.067203    15A     -0.963849
      16A     -0.902536    17A     -0.848161    18A     -0.756178
      19A     -0.724565    20A     -0.683884    21A     -0.675440
      22A     -0.655986    23A     -0.627271    24A     -0.604101
      25A     -0.590884    26A     -0.578645    27A     -0.559491
      28A     -0.525384    29A     -0.477307    30A     -0.446531
      31A     -0.416859    32A     -0.385486    33A     -0.336216

  @DF-RHF Final Energy:  -431.79909069183384

   => Energetics <=

    Nuclear Repulsion Energy =            440.5134848401349927
    One-Electron Energy =               -1461.0678993199521756
    Two-Electron Energy =                 588.7553237879833432
    Total Energy =                       -431.7990906918338396
  Basis Set: (AUG-CC-PVTZ AUX)
    Blend: AUG-CC-PVTZ-RI
    Molecular point group: c1

    Geometry (in Angstrom), charge = 0, multiplicity = 1:

       Center              X                  Y                   Z               Mass
    ------------   -----------------  -----------------  -----------------  -----------------
         O           -1.429107655709     1.806777413193    -0.005120181702    15.994914619570
         N           -1.122417655709    -0.472635586807     0.009852818298    14.003074004430
         N            0.738151344291     1.024944413193     0.012906818298    14.003074004430
         N            2.887170344291     0.215229413193    -0.072639181702    14.003074004430
         C           -0.296937355709    -1.556956986807     0.002468418298    12.000000000000
         C            1.071760344291    -1.376426586807    -0.000698181702    12.000000000000
         C           -0.662075955709     0.872845213193     0.018925018298    12.000000000000
         C           -2.566511655709    -0.697046586807     0.003861818298    12.000000000000
         C            1.532878344291    -0.021614586807     0.003139818298    12.000000000000
         H           -0.757009655709    -2.518339586807    -0.006611181702     1.007825032230
         H            1.750582344291    -2.221386586807    -0.028046181702     1.007825032230
         H           -2.868273655709    -1.256865586807     0.892553818298     1.007825032230
         H           -2.863167655709    -1.243609586807    -0.894718181702     1.007825032230
         H           -3.031088655709     0.285780413193     0.010294818298     1.007825032230
         H            3.497941344291    -0.472642586807     0.350118818298     1.007825032230
         H            3.140601344291     1.179202413193     0.120930818298     1.007825032230

  Basis Set: AUG-CC-PVTZ
    Blend: AUG-CC-PVTZ
  Basis Set: (AUG-CC-PVTZ AUX)
    Blend: AUG-CC-PVTZ-JKFIT
	 Reference Energy          =    -431.7990906918338396 [Eh]
	 Singles Energy            =      -0.0000000000000000 [Eh]
	 Same-Spin Energy          =      -0.4502829463397316 [Eh]
	 Opposite-Spin Energy      =      -1.3722968919313505 [Eh]
	 Correlation Energy        =      -1.8225798382710821 [Eh]
	 Total Energy              =    -433.6216705301048933 [Eh]

	 ================> DF-SCS-MP2 Energies <==================
	-----------------------------------------------------------
	 SCS Same-Spin Scale       =       0.3333333333333333 [-]
	 SCS Opposite-Spin Scale   =       1.2000000000000000 [-]
	 SCS Same-Spin Energy      =      -0.1500943154465772 [Eh]
	 SCS Opposite-Spin Energy  =      -1.6467562703176206 [Eh]
	 SCS Correlation Energy    =      -1.7968505857641979 [Eh]
	 SCS Total Energy          =    -433.5959412775980582 [Eh]
	-----------------------------------------------------------

  Dipole Moment: [D]
     X:     1.4713      Y:    -5.4948      Z:     0.8332     Total:     5.7491

*** Psi4 exiting successfully. Buy a developer a beer!
