                               Psi4 1.3.2 release

  ==> Input File <==

--------------------------------------------------------------------------
#psi4
#
memory 32 gb

molecule  {
0 1
  O       -1.4243350     1.8531120    -0.0084660
  N       -1.1176450    -0.4263010     0.0065070
  N        0.7520689     1.0781668     0.0088945
  N        2.8898088     0.2733865    -0.0762226
  C       -0.2733660    -1.4960510    -0.0007800
  C        1.0765330    -1.3300920    -0.0040440
  C       -0.6338910     0.9109410     0.0155220
  C       -2.5617390    -0.6507120     0.0005160
  C        1.5376510     0.0247200    -0.0002060
  H       -0.7522370    -2.4720050    -0.0099570
  H        1.7553550    -2.1750520    -0.0313920
  H       -2.8635010    -1.2105310     0.8892080
  H       -2.8583950    -1.1972750    -0.8980640
  H       -3.0263160     0.3321150     0.0069490
  H        3.5027140    -0.4263080     0.3467730
  H        3.1453740     1.2255370     0.1175850
units angstrom
no_reorient  #important for SAPT in psi4, default
symmetry c1  #important for SAPT in psi4, default
}

set PROPERTIES_ORIGIN ["COM"]
properties('MP2/aug-cc-pvtz', properties = ['dipole'])
--------------------------------------------------------------------------

    Molecular point group: c1
  Charge       = 0
  Multiplicity = 1
  Basis Set: AUG-CC-PVTZ
    Blend: AUG-CC-PVTZ
  Basis Set: (AUG-CC-PVTZ AUX)
    Blend: AUG-CC-PVTZ-JKFIT

    Orbital Energies [Eh]
    ---------------------

    Doubly Occupied:

       1A    -20.504529     2A    -15.625951     3A    -15.590390
       4A    -15.544332     5A    -11.373079     6A    -11.348295
       7A    -11.327665     8A    -11.270907     9A    -11.246585
      10A     -1.382473    11A     -1.296027    12A     -1.267718
      13A     -1.168211    14A     -1.073000    15A     -0.965278
      16A     -0.900101    17A     -0.851455    18A     -0.758930
      19A     -0.723555    20A     -0.684515    21A     -0.673296
      22A     -0.655556    23A     -0.623013    24A     -0.602460
      25A     -0.591879    26A     -0.579242    27A     -0.559477
      28A     -0.521759    29A     -0.476506    30A     -0.442493
      31A     -0.419798    32A     -0.387073    33A     -0.339216

  @DF-RHF Final Energy:  -431.80037287268976

   => Energetics <=

    Nuclear Repulsion Energy =            440.6928437052428080
    One-Electron Energy =               -1461.4369048961759745
    Two-Electron Energy =                 588.9436883182434030
    Total Energy =                       -431.8003728726897634
  Basis Set: (AUG-CC-PVTZ AUX)
    Blend: AUG-CC-PVTZ-RI
    Molecular point group: c1

    Geometry (in Angstrom), charge = 0, multiplicity = 1:

       Center              X                  Y                   Z               Mass
    ------------   -----------------  -----------------  -----------------  -----------------
         O           -1.433943003641     1.804074743623    -0.005022805362    15.994914619570
         N           -1.127253003641    -0.475338256377     0.009950194638    14.003074004430
         N            0.742460896359     1.029129543623     0.012337694638    14.003074004430
         N            2.880200796359     0.224349243623    -0.072779405362    14.003074004430
         C           -0.282974003641    -1.545088256377     0.002663194638    12.000000000000
         C            1.066924996359    -1.379129256377    -0.000600805362    12.000000000000
         C           -0.643499003641     0.861903743623     0.018965194638    12.000000000000
         C           -2.571347003641    -0.699749256377     0.003959194638    12.000000000000
         C            1.528042996359    -0.024317256377     0.003237194638    12.000000000000
         H           -0.761845003641    -2.521042256377    -0.006513805362     1.007825032230
         H            1.745746996359    -2.224089256377    -0.027948805362     1.007825032230
         H           -2.873109003641    -1.259568256377     0.892651194638     1.007825032230
         H           -2.868003003641    -1.246312256377    -0.894620805362     1.007825032230
         H           -3.035924003641     0.283077743623     0.010392194638     1.007825032230
         H            3.493105996359    -0.475345256377     0.350216194638     1.007825032230
         H            3.135765996359     1.176499743623     0.121028194638     1.007825032230

  Basis Set: AUG-CC-PVTZ
    Blend: AUG-CC-PVTZ
  Basis Set: (AUG-CC-PVTZ AUX)
    Blend: AUG-CC-PVTZ-JKFIT
	 Reference Energy          =    -431.8003728726897634 [Eh]
	 Singles Energy            =      -0.0000000000000000 [Eh]
	 Same-Spin Energy          =      -0.4503388090573778 [Eh]
	 Opposite-Spin Energy      =      -1.3723407803516086 [Eh]
	 Correlation Energy        =      -1.8226795894089864 [Eh]
	 Total Energy              =    -433.6230524620987694 [Eh]

	 ================> DF-SCS-MP2 Energies <==================
	-----------------------------------------------------------
	 SCS Same-Spin Scale       =       0.3333333333333333 [-]
	 SCS Opposite-Spin Scale   =       1.2000000000000000 [-]
	 SCS Same-Spin Energy      =      -0.1501129363524593 [Eh]
	 SCS Opposite-Spin Energy  =      -1.6468089364219303 [Eh]
	 SCS Correlation Energy    =      -1.7969218727743894 [Eh]
	 SCS Total Energy          =    -433.5972947454641258 [Eh]
	-----------------------------------------------------------

  Dipole Moment: [D]
     X:     1.6516      Y:    -5.6468      Z:     0.8317     Total:     5.9419

*** Psi4 exiting successfully. Buy a developer a beer!
