                               Psi4 1.3.2 release

  ==> Input File <==

--------------------------------------------------------------------------
#psi4
#
memory 32 gb

molecule  {
0 1
  O       -1.4243350     1.8531120    -0.0084660
  N       -1.1176450    -0.4263010     0.0065070
  N        0.7613103     1.0849901     0.0095188
  N        2.8919430     0.2615640    -0.0759850
  C       -0.2733660    -1.4960510    -0.0007800
  C        1.1002476    -1.3379326    -0.0042221
  C       -0.6338910     0.9109410     0.0155220
  C       -2.5617390    -0.6507120     0.0005160
  C        1.5376510     0.0247200    -0.0002060
  H       -0.7522370    -2.4720050    -0.0099570
  H        1.7553550    -2.1750520    -0.0313920
  H       -2.8635010    -1.2105310     0.8892080
  H       -2.8583950    -1.1972750    -0.8980640
  H       -3.0263160     0.3321150     0.0069490
  H        3.5027140    -0.4263080     0.3467730
  H        3.1453740     1.2255370     0.1175850
units angstrom
no_reorient  #important for SAPT in psi4, default
symmetry c1  #important for SAPT in psi4, default
}

set PROPERTIES_ORIGIN ["COM"]
properties('MP2/aug-cc-pvtz', properties = ['dipole'])
--------------------------------------------------------------------------

    Molecular point group: c1
  Charge       = 0
  Multiplicity = 1
  Basis Set: AUG-CC-PVTZ
    Blend: AUG-CC-PVTZ
  Basis Set: (AUG-CC-PVTZ AUX)
    Blend: AUG-CC-PVTZ-JKFIT

    Orbital Energies [Eh]
    ---------------------

    Doubly Occupied:

       1A    -20.506365     2A    -15.628746     3A    -15.588055
       4A    -15.545659     5A    -11.374904     6A    -11.346965
       7A    -11.331720     8A    -11.272309     9A    -11.246646
      10A     -1.383080    11A     -1.295686    12A     -1.267839
      13A     -1.166232    14A     -1.069289    15A     -0.966217
      16A     -0.901568    17A     -0.849246    18A     -0.756402
      19A     -0.722648    20A     -0.686988    21A     -0.673670
      22A     -0.656120    23A     -0.625322    24A     -0.597426
      25A     -0.594239    26A     -0.578925    27A     -0.560259
      28A     -0.521840    29A     -0.475289    30A     -0.445028
      31A     -0.420537    32A     -0.386576    33A     -0.337637

  @DF-RHF Final Energy:  -431.79811177911540

   => Energetics <=

    Nuclear Repulsion Energy =            440.0485889690961017
    One-Electron Energy =               -1460.1345360957170669
    Two-Electron Energy =                 588.2878353475056201
    Total Energy =                       -431.7981117791154020
  Basis Set: (AUG-CC-PVTZ AUX)
    Blend: AUG-CC-PVTZ-RI
    Molecular point group: c1

    Geometry (in Angstrom), charge = 0, multiplicity = 1:

       Center              X                  Y                   Z               Mass
    ------------   -----------------  -----------------  -----------------  -----------------
         O           -1.437492279435     1.805386856171    -0.005102224328    15.994914619570
         N           -1.130802279435    -0.474026143829     0.009870775672    14.003074004430
         N            0.748153020565     1.037264956171     0.012882575672    14.003074004430
         N            2.878785720565     0.213838856171    -0.072621224328    14.003074004430
         C           -0.286523279435    -1.543776143829     0.002583775672    12.000000000000
         C            1.087090320565    -1.385657743829    -0.000858324328    12.000000000000
         C           -0.647048279435     0.863215856171     0.018885775672    12.000000000000
         C           -2.574896279435    -0.698437143829     0.003879775672    12.000000000000
         C            1.524493720565    -0.023005143829     0.003157775672    12.000000000000
         H           -0.765394279435    -2.519730143829    -0.006593224328     1.007825032230
         H            1.742197720565    -2.222777143829    -0.028028224328     1.007825032230
         H           -2.876658279435    -1.258256143829     0.892571775672     1.007825032230
         H           -2.871552279435    -1.245000143829    -0.894700224328     1.007825032230
         H           -3.039473279435     0.284389856171     0.010312775672     1.007825032230
         H            3.489556720565    -0.474033143829     0.350136775672     1.007825032230
         H            3.132216720565     1.177811856171     0.120948775672     1.007825032230

  Basis Set: AUG-CC-PVTZ
    Blend: AUG-CC-PVTZ
  Basis Set: (AUG-CC-PVTZ AUX)
    Blend: AUG-CC-PVTZ-JKFIT
	 Reference Energy          =    -431.7981117791154020 [Eh]
	 Singles Energy            =      -0.0000000000000000 [Eh]
	 Same-Spin Energy          =      -0.4505090948579696 [Eh]
	 Opposite-Spin Energy      =      -1.3729442268258782 [Eh]
	 Correlation Energy        =      -1.8234533216838478 [Eh]
	 Total Energy              =    -433.6215651007992733 [Eh]

	 ================> DF-SCS-MP2 Energies <==================
	-----------------------------------------------------------
	 SCS Same-Spin Scale       =       0.3333333333333333 [-]
	 SCS Opposite-Spin Scale   =       1.2000000000000000 [-]
	 SCS Same-Spin Energy      =      -0.1501696982859899 [Eh]
	 SCS Opposite-Spin Energy  =      -1.6475330721910539 [Eh]
	 SCS Correlation Energy    =      -1.7977027704770439 [Eh]
	 SCS Total Energy          =    -433.5958145495924327 [Eh]
	-----------------------------------------------------------

  Dipole Moment: [D]
     X:     1.5382      Y:    -5.6335      Z:     0.8311     Total:     5.8986

*** Psi4 exiting successfully. Buy a developer a beer!
