                               Psi4 1.3.2 release

  ==> Input File <==

--------------------------------------------------------------------------
#psi4
#
memory 32 gb

molecule  {
0 1
  O       -1.4243350     1.8531120    -0.0084660
  N       -1.1176450    -0.4263010     0.0065070
  N        0.7429240     1.0712790     0.0095610
  N        2.8919430     0.2615640    -0.0759850
  C       -0.2733660    -1.4960510    -0.0007800
  C        1.0765330    -1.3300920    -0.0040440
  C       -0.6338910     0.9109410     0.0155220
  C       -2.5617390    -0.6507120     0.0005160
  C        1.3409396    -0.0096817     0.0108009
  H       -0.7522370    -2.4720050    -0.0099570
  H        1.7553550    -2.1750520    -0.0313920
  H       -2.8635010    -1.2105310     0.8892080
  H       -2.8583950    -1.1972750    -0.8980640
  H       -3.0263160     0.3321150     0.0069490
  H        3.5027140    -0.4263080     0.3467730
  H        3.1453740     1.2255370     0.1175850
units angstrom
no_reorient  #important for SAPT in psi4, default
symmetry c1  #important for SAPT in psi4, default
}

set PROPERTIES_ORIGIN ["COM"]
properties('MP2/aug-cc-pvtz', properties = ['dipole'])
--------------------------------------------------------------------------

    Molecular point group: c1
  Charge       = 0
  Multiplicity = 1
  Basis Set: AUG-CC-PVTZ
    Blend: AUG-CC-PVTZ
  Basis Set: (AUG-CC-PVTZ AUX)
    Blend: AUG-CC-PVTZ-JKFIT

    Orbital Energies [Eh]
    ---------------------

    Doubly Occupied:

       1A    -20.515477     2A    -15.640336     3A    -15.559400
       4A    -15.555171     5A    -11.382945     6A    -11.342339
       7A    -11.338773     8A    -11.280267     9A    -11.249108
      10A     -1.401018    11A     -1.313194    12A     -1.267872
      13A     -1.138975    14A     -1.096252    15A     -0.975048
      16A     -0.917631    17A     -0.853715    18A     -0.763630
      19A     -0.728452    20A     -0.670677    21A     -0.667130
      22A     -0.650403    23A     -0.629454    24A     -0.607140
      25A     -0.592863    26A     -0.585181    27A     -0.553674
      28A     -0.510255    29A     -0.482967    30A     -0.466883
      31A     -0.428573    32A     -0.386907    33A     -0.351781

  @DF-RHF Final Energy:  -431.75387295785305

   => Energetics <=

    Nuclear Repulsion Energy =            443.1277379622362673
    One-Electron Energy =               -1465.9562368265615078
    Two-Electron Energy =                 591.0746259064721926
    Total Energy =                       -431.7538729578529910
  Basis Set: (AUG-CC-PVTZ AUX)
    Blend: AUG-CC-PVTZ-RI
    Molecular point group: c1

    Geometry (in Angstrom), charge = 0, multiplicity = 1:

       Center              X                  Y                   Z               Mass
    ------------   -----------------  -----------------  -----------------  -----------------
         O           -1.414282604279     1.809470777424    -0.006180203719    15.994914619570
         N           -1.107592604279    -0.469942222576     0.008792796281    14.003074004430
         N            0.752976395721     1.027637777424     0.011846796281    14.003074004430
         N            2.901995395721     0.217922777424    -0.073699203719    14.003074004430
         C           -0.263313604279    -1.539692222576     0.001505796281    12.000000000000
         C            1.086585395721    -1.373733222576    -0.001758203719    12.000000000000
         C           -0.623838604279     0.867299777424     0.017807796281    12.000000000000
         C           -2.551686604279    -0.694353222576     0.002801796281    12.000000000000
         C            1.350991995721    -0.053322922576     0.013086696281    12.000000000000
         H           -0.742184604279    -2.515646222576    -0.007671203719     1.007825032230
         H            1.765407395721    -2.218693222576    -0.029106203719     1.007825032230
         H           -2.853448604279    -1.254172222576     0.891493796281     1.007825032230
         H           -2.848342604279    -1.240916222576    -0.895778203719     1.007825032230
         H           -3.016263604279     0.288473777424     0.009234796281     1.007825032230
         H            3.512766395721    -0.469949222576     0.349058796281     1.007825032230
         H            3.155426395721     1.181895777424     0.119870796281     1.007825032230

  Basis Set: AUG-CC-PVTZ
    Blend: AUG-CC-PVTZ
  Basis Set: (AUG-CC-PVTZ AUX)
    Blend: AUG-CC-PVTZ-JKFIT
	 Reference Energy          =    -431.7538729578530479 [Eh]
	 Singles Energy            =      -0.0000000000000000 [Eh]
	 Same-Spin Energy          =      -0.4515538927224828 [Eh]
	 Opposite-Spin Energy      =      -1.3751189582371692 [Eh]
	 Correlation Energy        =      -1.8266728509596519 [Eh]
	 Total Energy              =    -433.5805458088127011 [Eh]

	 ================> DF-SCS-MP2 Energies <==================
	-----------------------------------------------------------
	 SCS Same-Spin Scale       =       0.3333333333333333 [-]
	 SCS Opposite-Spin Scale   =       1.2000000000000000 [-]
	 SCS Same-Spin Energy      =      -0.1505179642408276 [Eh]
	 SCS Opposite-Spin Energy  =      -1.6501427498846031 [Eh]
	 SCS Correlation Energy    =      -1.8006607141254307 [Eh]
	 SCS Total Energy          =    -433.5545336719785041 [Eh]
	-----------------------------------------------------------

  Dipole Moment: [D]
     X:    -0.1689      Y:    -5.8480      Z:     0.8834     Total:     5.9167

*** Psi4 exiting successfully. Buy a developer a beer!
