                               Psi4 1.3.2 release

  ==> Input File <==

--------------------------------------------------------------------------
#psi4
#
memory 32 gb

molecule  {
0 1
  O       -1.4243350     1.8531120    -0.0084660
  N       -1.1140825    -0.4640434     0.0729668
  N        0.7429240     1.0712790     0.0095610
  N        2.8919430     0.2615640    -0.0759850
  C       -0.2733660    -1.4960510    -0.0007800
  C        1.0765330    -1.3300920    -0.0040440
  C       -0.6338910     0.9109410     0.0155220
  C       -2.5617390    -0.6507120     0.0005160
  C        1.5376510     0.0247200    -0.0002060
  H       -0.7522370    -2.4720050    -0.0099570
  H        1.7553550    -2.1750520    -0.0313920
  H       -2.8086666    -1.2112776     0.9055155
  H       -2.8583950    -1.1972750    -0.8980640
  H       -3.0263160     0.3321150     0.0069490
  H        3.5027140    -0.4263080     0.3467730
  H        3.1453740     1.2255370     0.1175850
units angstrom
no_reorient  #important for SAPT in psi4, default
symmetry c1  #important for SAPT in psi4, default
}

set PROPERTIES_ORIGIN ["COM"]
properties('MP2/aug-cc-pvtz', properties = ['dipole'])
--------------------------------------------------------------------------

    Molecular point group: c1
  Charge       = 0
  Multiplicity = 1
  Basis Set: AUG-CC-PVTZ
    Blend: AUG-CC-PVTZ
  Basis Set: (AUG-CC-PVTZ AUX)
    Blend: AUG-CC-PVTZ-JKFIT

    Orbital Energies [Eh]
    ---------------------

    Doubly Occupied:

       1A    -20.509781     2A    -15.625635     3A    -15.590377
       4A    -15.543153     5A    -11.376862     6A    -11.348162
       7A    -11.324181     8A    -11.271685     9A    -11.241247
      10A     -1.382859    11A     -1.299823    12A     -1.269962
      13A     -1.170738    14A     -1.070765    15A     -0.965213
      16A     -0.895239    17A     -0.855052    18A     -0.758013
      19A     -0.723307    20A     -0.685225    21A     -0.672169
      22A     -0.656631    23A     -0.623121    24A     -0.598922
      25A     -0.593729    26A     -0.578032    27A     -0.565232
      28A     -0.520945    29A     -0.482097    30A     -0.443257
      31A     -0.419154    32A     -0.387378    33A     -0.335920

  @DF-RHF Final Energy:  -431.79734674007500

   => Energetics <=

    Nuclear Repulsion Energy =            440.7693491858704533
    One-Electron Energy =               -1461.5656578319960772
    Two-Electron Energy =                 588.9989619060506811
    Total Energy =                       -431.7973467400749996
  Basis Set: (AUG-CC-PVTZ AUX)
    Blend: AUG-CC-PVTZ-RI
    Molecular point group: c1

    Geometry (in Angstrom), charge = 0, multiplicity = 1:

       Center              X                  Y                   Z               Mass
    ------------   -----------------  -----------------  -----------------  -----------------
         O           -1.433998801993     1.810401871904    -0.012697082783    15.994914619570
         N           -1.123746301993    -0.506753528096     0.068735717217    14.003074004430
         N            0.733260198007     1.028568871904     0.005329917217    14.003074004430
         N            2.882279198007     0.218853871904    -0.080216082783    14.003074004430
         C           -0.283029801993    -1.538761128096    -0.005011082783    12.000000000000
         C            1.066869198007    -1.372802128096    -0.008275082783    12.000000000000
         C           -0.643554801993     0.868230871904     0.011290917217    12.000000000000
         C           -2.571402801993    -0.693422128096    -0.003715082783    12.000000000000
         C            1.527987198007    -0.017990128096    -0.004437082783    12.000000000000
         H           -0.761900801993    -2.514715128096    -0.014188082783     1.007825032230
         H            1.745691198007    -2.217762128096    -0.035623082783     1.007825032230
         H           -2.818330401993    -1.253987728096     0.901284417217     1.007825032230
         H           -2.868058801993    -1.239985128096    -0.902295082783     1.007825032230
         H           -3.035979801993     0.289404871904     0.002717917217     1.007825032230
         H            3.493050198007    -0.469018128096     0.342541917217     1.007825032230
         H            3.135710198007     1.182826871904     0.113353917217     1.007825032230

  Basis Set: AUG-CC-PVTZ
    Blend: AUG-CC-PVTZ
  Basis Set: (AUG-CC-PVTZ AUX)
    Blend: AUG-CC-PVTZ-JKFIT
	 Reference Energy          =    -431.7973467400749996 [Eh]
	 Singles Energy            =      -0.0000000000000000 [Eh]
	 Same-Spin Energy          =      -0.4508341483302072 [Eh]
	 Opposite-Spin Energy      =      -1.3726872680763182 [Eh]
	 Correlation Energy        =      -1.8235214164065254 [Eh]
	 Total Energy              =    -433.6208681564815492 [Eh]

	 ================> DF-SCS-MP2 Energies <==================
	-----------------------------------------------------------
	 SCS Same-Spin Scale       =       0.3333333333333333 [-]
	 SCS Opposite-Spin Scale   =       1.2000000000000000 [-]
	 SCS Same-Spin Energy      =      -0.1502780494434024 [Eh]
	 SCS Opposite-Spin Energy  =      -1.6472247216915819 [Eh]
	 SCS Correlation Energy    =      -1.7975027711349842 [Eh]
	 SCS Total Energy          =    -433.5948495112099863 [Eh]
	-----------------------------------------------------------

  Dipole Moment: [D]
     X:     1.5618      Y:    -5.4552      Z:     0.7918     Total:     5.7294

*** Psi4 exiting successfully. Buy a developer a beer!
