                               Psi4 1.3.2 release

  ==> Input File <==

--------------------------------------------------------------------------
#psi4
#
memory 32 gb

molecule  {
0 1
  O       -1.4243350     1.8531120    -0.0084660
  N       -1.0605004    -0.3835833     0.0069819
  N        0.7429240     1.0712790     0.0095610
  N        2.8919430     0.2615640    -0.0759850
  C       -0.2733660    -1.4960510    -0.0007800
  C        1.0765330    -1.3300920    -0.0040440
  C       -0.6338910     0.9109410     0.0155220
  C       -2.5617390    -0.6507120     0.0005160
  C        1.5376510     0.0247200    -0.0002060
  H       -0.7005011    -2.4957297    -0.0100518
  H        1.7553550    -2.1750520    -0.0313920
  H       -2.8635010    -1.2105310     0.8892080
  H       -2.8583950    -1.1972750    -0.8980640
  H       -3.0263160     0.3321150     0.0069490
  H        3.5027140    -0.4263080     0.3467730
  H        3.1453740     1.2255370     0.1175850
units angstrom
no_reorient  #important for SAPT in psi4, default
symmetry c1  #important for SAPT in psi4, default
}

set PROPERTIES_ORIGIN ["COM"]
properties('MP2/aug-cc-pvtz', properties = ['dipole'])
--------------------------------------------------------------------------

    Molecular point group: c1
  Charge       = 0
  Multiplicity = 1
  Basis Set: AUG-CC-PVTZ
    Blend: AUG-CC-PVTZ
  Basis Set: (AUG-CC-PVTZ AUX)
    Blend: AUG-CC-PVTZ-JKFIT

    Orbital Energies [Eh]
    ---------------------

    Doubly Occupied:

       1A    -20.496931     2A    -15.626986     3A    -15.589560
       4A    -15.540563     5A    -11.365304     6A    -11.346530
       7A    -11.327428     8A    -11.276547     9A    -11.246676
      10A     -1.385297    11A     -1.295365    12A     -1.263897
      13A     -1.166697    14A     -1.073414    15A     -0.965963
      16A     -0.907299    17A     -0.852868    18A     -0.761421
      19A     -0.726533    20A     -0.680396    21A     -0.674380
      22A     -0.655194    23A     -0.619906    24A     -0.601979
      25A     -0.587505    26A     -0.580170    27A     -0.553710
      28A     -0.524307    29A     -0.475304    30A     -0.437442
      31A     -0.417162    32A     -0.385954    33A     -0.340768

  @DF-RHF Final Energy:  -431.79490395485954

   => Energetics <=

    Nuclear Repulsion Energy =            441.7612168480836772
    One-Electron Energy =               -1463.6133288785924833
    Two-Electron Energy =                 590.0572080756493278
    Total Energy =                       -431.7949039548594783
  Basis Set: (AUG-CC-PVTZ AUX)
    Blend: AUG-CC-PVTZ-RI
    Molecular point group: c1

    Geometry (in Angstrom), charge = 0, multiplicity = 1:

       Center              X                  Y                   Z               Mass
    ------------   -----------------  -----------------  -----------------  -----------------
         O           -1.439973517067     1.801577784008    -0.005176450527    15.994914619570
         N           -1.076138917067    -0.435117515992     0.010271449473    14.003074004430
         N            0.727285482933     1.019744784008     0.012850549473    14.003074004430
         N            2.876304482933     0.210029784008    -0.072695450527    14.003074004430
         C           -0.289004517067    -1.547585215992     0.002509549473    12.000000000000
         C            1.060894482933    -1.381626215992    -0.000754450527    12.000000000000
         C           -0.649529517067     0.859406784008     0.018811549473    12.000000000000
         C           -2.577377517067    -0.702246215992     0.003805549473    12.000000000000
         C            1.522012482933    -0.026814215992     0.003083549473    12.000000000000
         H           -0.716139617067    -2.547263915992    -0.006762250527     1.007825032230
         H            1.739716482933    -2.226586215992    -0.028102450527     1.007825032230
         H           -2.879139517067    -1.262065215992     0.892497549473     1.007825032230
         H           -2.874033517067    -1.248809215992    -0.894774450527     1.007825032230
         H           -3.041954517067     0.280580784008     0.010238549473     1.007825032230
         H            3.487075482933    -0.477842215992     0.350062549473     1.007825032230
         H            3.129735482933     1.174002784008     0.120874549473     1.007825032230

  Basis Set: AUG-CC-PVTZ
    Blend: AUG-CC-PVTZ
  Basis Set: (AUG-CC-PVTZ AUX)
    Blend: AUG-CC-PVTZ-JKFIT
	 Reference Energy          =    -431.7949039548595351 [Eh]
	 Singles Energy            =      -0.0000000000000000 [Eh]
	 Same-Spin Energy          =      -0.4503783319218237 [Eh]
	 Opposite-Spin Energy      =      -1.3723071666952844 [Eh]
	 Correlation Energy        =      -1.8226854986171082 [Eh]
	 Total Energy              =    -433.6175894534766257 [Eh]

	 ================> DF-SCS-MP2 Energies <==================
	-----------------------------------------------------------
	 SCS Same-Spin Scale       =       0.3333333333333333 [-]
	 SCS Opposite-Spin Scale   =       1.2000000000000000 [-]
	 SCS Same-Spin Energy      =      -0.1501261106406079 [Eh]
	 SCS Opposite-Spin Energy  =      -1.6467686000343413 [Eh]
	 SCS Correlation Energy    =      -1.7968947106749493 [Eh]
	 SCS Total Energy          =    -433.5917986655344976 [Eh]
	-----------------------------------------------------------

  Dipole Moment: [D]
     X:     1.6268      Y:    -5.9089      Z:     0.8344     Total:     6.1853

*** Psi4 exiting successfully. Buy a developer a beer!
