                               Psi4 1.3.2 release

  ==> Input File <==

--------------------------------------------------------------------------
#psi4
#
memory 32 gb

molecule  {
0 1
  O       -1.4243350     1.8531120    -0.0084660
  N       -1.1176450    -0.4263010     0.0065070
  N        0.7429240     1.0712790     0.0095610
  N        2.8919430     0.2615640    -0.0759850
  C       -0.2733660    -1.4960510    -0.0007800
  C        1.0765330    -1.3300920    -0.0040440
  C       -0.6338910     0.9109410     0.0155220
  C       -2.5617390    -0.6507120     0.0005160
  C        1.5376510     0.0247200    -0.0002060
  H       -0.7522370    -2.4720050    -0.0099570
  H        1.7553550    -2.1750520    -0.0313920
  H       -2.8635010    -1.2105310     0.8892080
  H       -2.8583950    -1.1972750    -0.8980640
  H       -3.0263160     0.3321150     0.0069490
  H        3.6233732    -0.5621987     0.4302898
  H        3.1453740     1.2255370     0.1175850
units angstrom
no_reorient  #important for SAPT in psi4, default
symmetry c1  #important for SAPT in psi4, default
}

set PROPERTIES_ORIGIN ["COM"]
properties('MP2/aug-cc-pvtz', properties = ['dipole'])
--------------------------------------------------------------------------

    Molecular point group: c1
  Charge       = 0
  Multiplicity = 1
  Basis Set: AUG-CC-PVTZ
    Blend: AUG-CC-PVTZ
  Basis Set: (AUG-CC-PVTZ AUX)
    Blend: AUG-CC-PVTZ-JKFIT

    Orbital Energies [Eh]
    ---------------------

    Doubly Occupied:

       1A    -20.503283     2A    -15.624666     3A    -15.607652
       4A    -15.543582     5A    -11.372088     6A    -11.348985
       7A    -11.326228     8A    -11.270044     9A    -11.245124
      10A     -1.382163    11A     -1.293564    12A     -1.261269
      13A     -1.157979    14A     -1.071481    15A     -0.962581
      16A     -0.898552    17A     -0.844814    18A     -0.753687
      19A     -0.719760    20A     -0.681351    21A     -0.655591
      22A     -0.639239    23A     -0.621313    24A     -0.598232
      25A     -0.588203    26A     -0.578193    27A     -0.558619
      28A     -0.520345    29A     -0.475605    30A     -0.440589
      31A     -0.419214    32A     -0.385544    33A     -0.338383

  @DF-RHF Final Energy:  -431.77133318361484

   => Energetics <=

    Nuclear Repulsion Energy =            439.9640614677479675
    One-Electron Energy =               -1460.0949427326643217
    Two-Electron Energy =                 588.3595480813014547
    Total Energy =                       -431.7713331836148427
  Basis Set: (AUG-CC-PVTZ AUX)
    Blend: AUG-CC-PVTZ-RI
    Molecular point group: c1

    Geometry (in Angstrom), charge = 0, multiplicity = 1:

       Center              X                  Y                   Z               Mass
    ------------   -----------------  -----------------  -----------------  -----------------
         O           -1.434130371426     1.807264886242    -0.005797084455    15.994914619570
         N           -1.127440371426    -0.472148113758     0.009175915545    14.003074004430
         N            0.733128628574     1.025431886242     0.012229915545    14.003074004430
         N            2.882147628574     0.215716886242    -0.073316084455    14.003074004430
         C           -0.283161371426    -1.541898113758     0.001888915545    12.000000000000
         C            1.066737628574    -1.375939113758    -0.001375084455    12.000000000000
         C           -0.643686371426     0.865093886242     0.018190915545    12.000000000000
         C           -2.571534371426    -0.696559113758     0.003184915545    12.000000000000
         C            1.527855628574    -0.021127113758     0.002462915545    12.000000000000
         H           -0.762032371426    -2.517852113758    -0.007288084455     1.007825032230
         H            1.745559628574    -2.220899113758    -0.028723084455     1.007825032230
         H           -2.873296371426    -1.256378113758     0.891876915545     1.007825032230
         H           -2.868190371426    -1.243122113758    -0.895395084455     1.007825032230
         H           -3.036111371426     0.286267886242     0.009617915545     1.007825032230
         H            3.613577828574    -0.608045813758     0.432958715545     1.007825032230
         H            3.135578628574     1.179689886242     0.120253915545     1.007825032230

  Basis Set: AUG-CC-PVTZ
    Blend: AUG-CC-PVTZ
  Basis Set: (AUG-CC-PVTZ AUX)
    Blend: AUG-CC-PVTZ-JKFIT
	 Reference Energy          =    -431.7713331836148427 [Eh]
	 Singles Energy            =      -0.0000000000000000 [Eh]
	 Same-Spin Energy          =      -0.4515700219351346 [Eh]
	 Opposite-Spin Energy      =      -1.3759572806018592 [Eh]
	 Correlation Energy        =      -1.8275273025369938 [Eh]
	 Total Energy              =    -433.5988604861518638 [Eh]

	 ================> DF-SCS-MP2 Energies <==================
	-----------------------------------------------------------
	 SCS Same-Spin Scale       =       0.3333333333333333 [-]
	 SCS Opposite-Spin Scale   =       1.2000000000000000 [-]
	 SCS Same-Spin Energy      =      -0.1505233406450449 [Eh]
	 SCS Opposite-Spin Energy  =      -1.6511487367222311 [Eh]
	 SCS Correlation Energy    =      -1.8016720773672759 [Eh]
	 SCS Total Energy          =    -433.5730052609821428 [Eh]
	-----------------------------------------------------------

  Dipole Moment: [D]
     X:     1.8187      Y:    -5.7208      Z:     0.8885     Total:     6.0683

*** Psi4 exiting successfully. Buy a developer a beer!
