                               Psi4 1.4a3.dev225

  ==> Input File <==

--------------------------------------------------------------------------
#psi4
#
memory 32 gb

molecule  {
0 1
  O       -1.4602810    -1.8042760    -0.0008590
  N       -1.1067000     0.4494610     0.0014260
  N        0.7338450    -1.0777760     0.0056990
  N        2.8872480    -0.2944040    -0.0665390
  C       -0.2576190     1.5082170    -0.0002850
  C        1.0914800     1.3228940    -0.0047970
  C       -0.6316600    -0.8954310    -0.0014820
  C       -2.5563510     0.6193970     0.0049040
  C        1.5099098    -0.0743044     0.0001593
  H       -0.7147670     2.4940890    -0.0022110
  H        1.7746080     2.1637920    -0.0246520
  H       -2.7835150     1.6863950     0.0041520
  H       -2.9802500     0.1433220     0.8903410
  H       -2.9840040     0.1411790    -0.8774920
  H        3.5206970     0.4000120     0.3068300
  H        3.1306380    -1.2574880     0.1361150
units angstrom
no_reorient  #important for SAPT in psi4, default
symmetry c1  #important for SAPT in psi4, default
}

set PROPERTIES_ORIGIN ["COM"]
properties('MP2/aug-cc-pvtz', properties = ['dipole'])
--------------------------------------------------------------------------

    Molecular point group: c1
  Charge       = 0
  Multiplicity = 1
  Basis Set: AUG-CC-PVTZ
    Blend: AUG-CC-PVTZ
  Basis Set: (AUG-CC-PVTZ AUX)
    Blend: AUG-CC-PVTZ-JKFIT

    Orbital Energies [Eh]
    ---------------------

    Doubly Occupied:

       1A    -20.508962     2A    -15.625296     3A    -15.586063
       4A    -15.545506     5A    -11.374875     6A    -11.347274
       7A    -11.324127     8A    -11.273960     9A    -11.244106
      10A     -1.388531    11A     -1.299687    12A     -1.267832
      13A     -1.178044    14A     -1.069075    15A     -0.964663
      16A     -0.896072    17A     -0.859543    18A     -0.757626
      19A     -0.721314    20A     -0.687516    21A     -0.672397
      22A     -0.657172    23A     -0.619919    24A     -0.600462
      25A     -0.594519    26A     -0.579468    27A     -0.565396
      28A     -0.515007    29A     -0.481336    30A     -0.448664
      31A     -0.421602    32A     -0.391978    33A     -0.337359

  @DF-RHF Final Energy:  -431.80165152577911

   => Energetics <=

    Nuclear Repulsion Energy =            442.0061459657504770
    One-Electron Energy =               -1464.0048939007881472
    Two-Electron Energy =                 590.1970964092586200
    Total Energy =                       -431.8016515257791070
  Basis Set: (AUG-CC-PVTZ AUX)
    Blend: AUG-CC-PVTZ-RI
    Molecular point group: c1

    Geometry (in Angstrom), charge = 0, multiplicity = 1:

       Center              X                  Y                   Z               Mass
    ------------   -----------------  -----------------  -----------------  -----------------
         O           -1.465691046801    -1.754744062579     0.002557428112    15.994914619570
         N           -1.112110046801     0.498992937421     0.004842428112    14.003074004430
         N            0.728434953199    -1.028244062579     0.009115428112    14.003074004430
         N            2.881837953199    -0.244872062579    -0.063122571888    14.003074004430
         C           -0.263029046801     1.557748937421     0.003131428112    12.000000000000
         C            1.086069953199     1.372425937421    -0.001380571888    12.000000000000
         C           -0.637070046801    -0.845899062579     0.001934428112    12.000000000000
         C           -2.561761046801     0.668928937421     0.008320428112    12.000000000000
         C            1.504499753199    -0.024772462579     0.003575728112    12.000000000000
         H           -0.720177046801     2.543620937421     0.001205428112     1.007825032230
         H            1.769197953199     2.213323937421    -0.021235571888     1.007825032230
         H           -2.788925046801     1.735926937421     0.007568428112     1.007825032230
         H           -2.985660046801     0.192853937421     0.893757428112     1.007825032230
         H           -2.989414046801     0.190710937421    -0.874075571888     1.007825032230
         H            3.515286953199     0.449543937421     0.310246428112     1.007825032230
         H            3.125227953199    -1.207956062579     0.139531428112     1.007825032230

  Basis Set: AUG-CC-PVTZ
    Blend: AUG-CC-PVTZ
  Basis Set: (AUG-CC-PVTZ AUX)
    Blend: AUG-CC-PVTZ-JKFIT
	 Reference Energy          =    -431.8016515257791070 [Eh]
	 Singles Energy            =      -0.0000000000000000 [Eh]
	 Same-Spin Energy          =      -0.4495818876397262 [Eh]
	 Opposite-Spin Energy      =      -1.3710962694577489 [Eh]
	 Correlation Energy        =      -1.8206781570974750 [Eh]
	 Total Energy              =    -433.6223296828765683 [Eh]

	 ================> DF-SCS-MP2 Energies <==================
	-----------------------------------------------------------
	 SCS Same-Spin Scale       =       0.3333333333333333 [-]
	 SCS Opposite-Spin Scale   =       1.2000000000000000 [-]
	 SCS Same-Spin Energy      =      -0.1498606292132421 [Eh]
	 SCS Opposite-Spin Energy  =      -1.6453155233492986 [Eh]
	 SCS Correlation Energy    =      -1.7951761525625407 [Eh]
	 SCS Total Energy          =    -433.5968276783416400 [Eh]
	-----------------------------------------------------------

  Dipole Moment: [D]
     X:     1.5659      Y:     5.4196      Z:     0.7785     Total:     5.6947

*** Psi4 exiting successfully. Buy a developer a beer!
