                               Psi4 1.3.2 release

  ==> Input File <==

--------------------------------------------------------------------------
#psi4
#
memory 32 gb

molecule  {
0 1
  O       -1.4243350     1.8531120    -0.0084660
  N       -1.1176450    -0.4263010     0.0065070
  N        0.7429240     1.0712790     0.0095610
  N        2.8919430     0.2615640    -0.0759850
  C       -0.2733660    -1.4960510    -0.0007800
  C        1.0765330    -1.3300920    -0.0040440
  C       -0.6338910     0.9109410     0.0155220
  C       -2.5617390    -0.6507120     0.0005160
  C        1.5846350     0.0078118    -0.0016157
  H       -0.7522370    -2.4720050    -0.0099570
  H        1.7844294    -2.1508316    -0.0318613
  H       -2.8635010    -1.2105310     0.8892080
  H       -2.8583950    -1.1972750    -0.8980640
  H       -3.0263160     0.3321150     0.0069490
  H        3.5027140    -0.4263080     0.3467730
  H        3.1453740     1.2255370     0.1175850
units angstrom
no_reorient  #important for SAPT in psi4, default
symmetry c1  #important for SAPT in psi4, default
}

set PROPERTIES_ORIGIN ["COM"]
properties('MP2/aug-cc-pvtz', properties = ['dipole'])
--------------------------------------------------------------------------

    Molecular point group: c1
  Charge       = 0
  Multiplicity = 1
  Basis Set: AUG-CC-PVTZ
    Blend: AUG-CC-PVTZ
  Basis Set: (AUG-CC-PVTZ AUX)
    Blend: AUG-CC-PVTZ-JKFIT

    Orbital Energies [Eh]
    ---------------------

    Doubly Occupied:

       1A    -20.498306     2A    -15.623515     3A    -15.600250
       4A    -15.538786     5A    -11.367372     6A    -11.351193
       7A    -11.328453     8A    -11.268719     9A    -11.245891
      10A     -1.377292    11A     -1.297566    12A     -1.273418
      13A     -1.164210    14A     -1.070566    15A     -0.963993
      16A     -0.898992    17A     -0.852234    18A     -0.762532
      19A     -0.728434    20A     -0.689954    21A     -0.676044
      22A     -0.652805    23A     -0.620824    24A     -0.603612
      25A     -0.587612    26A     -0.577797    27A     -0.558019
      28A     -0.527288    29A     -0.474578    30A     -0.432672
      31A     -0.413811    32A     -0.381331    33A     -0.336773

  @DF-RHF Final Energy:  -431.79614506415817

   => Energetics <=

    Nuclear Repulsion Energy =            440.4449117801937064
    One-Electron Energy =               -1460.9924282731810763
    Two-Electron Energy =                 588.7513714288292022
    Total Energy =                       -431.7961450641581678
  Basis Set: (AUG-CC-PVTZ AUX)
    Blend: AUG-CC-PVTZ-RI
    Molecular point group: c1

    Geometry (in Angstrom), charge = 0, multiplicity = 1:

       Center              X                  Y                   Z               Mass
    ------------   -----------------  -----------------  -----------------  -----------------
         O           -1.437900646882     1.807597005120    -0.004984989639    15.994914619570
         N           -1.131210646882    -0.471815994880     0.009988010361    14.003074004430
         N            0.729358353118     1.025764005120     0.013042010361    14.003074004430
         N            2.878377353118     0.216049005120    -0.072503989639    14.003074004430
         C           -0.286931646882    -1.541565994880     0.002701010361    12.000000000000
         C            1.062967353118    -1.375606994880    -0.000562989639    12.000000000000
         C           -0.647456646882     0.865426005120     0.019003010361    12.000000000000
         C           -2.575304646882    -0.696226994880     0.003997010361    12.000000000000
         C            1.571069353118    -0.037703194880     0.001865310361    12.000000000000
         H           -0.765802646882    -2.517519994880    -0.006475989639     1.007825032230
         H            1.770863753118    -2.196346594880    -0.028380289639     1.007825032230
         H           -2.877066646882    -1.256045994880     0.892689010361     1.007825032230
         H           -2.871960646882    -1.242789994880    -0.894582989639     1.007825032230
         H           -3.039881646882     0.286600005120     0.010430010361     1.007825032230
         H            3.489148353118    -0.471822994880     0.350254010361     1.007825032230
         H            3.131808353118     1.180022005120     0.121066010361     1.007825032230

  Basis Set: AUG-CC-PVTZ
    Blend: AUG-CC-PVTZ
  Basis Set: (AUG-CC-PVTZ AUX)
    Blend: AUG-CC-PVTZ-JKFIT
	 Reference Energy          =    -431.7961450641581678 [Eh]
	 Singles Energy            =      -0.0000000000000000 [Eh]
	 Same-Spin Energy          =      -0.4509397535853573 [Eh]
	 Opposite-Spin Energy      =      -1.3727289095540949 [Eh]
	 Correlation Energy        =      -1.8236686631394523 [Eh]
	 Total Energy              =    -433.6198137272976396 [Eh]

	 ================> DF-SCS-MP2 Energies <==================
	-----------------------------------------------------------
	 SCS Same-Spin Scale       =       0.3333333333333333 [-]
	 SCS Opposite-Spin Scale   =       1.2000000000000000 [-]
	 SCS Same-Spin Energy      =      -0.1503132511951191 [Eh]
	 SCS Opposite-Spin Energy  =      -1.6472746914649139 [Eh]
	 SCS Correlation Energy    =      -1.7975879426600330 [Eh]
	 SCS Total Energy          =    -433.5937330068181836 [Eh]
	-----------------------------------------------------------

  Dipole Moment: [D]
     X:     2.1381      Y:    -5.6963      Z:     0.8159     Total:     6.1388

*** Psi4 exiting successfully. Buy a developer a beer!
