                               Psi4 1.4a3.dev225

  ==> Input File <==

--------------------------------------------------------------------------
#psi4
#
memory 32 gb

molecule  {
0 1
  O       -1.4602810    -1.8042760    -0.0008590
  N       -1.1067000     0.4494610     0.0014260
  N        0.7338450    -1.0777760     0.0056990
  N        2.8872480    -0.2944040    -0.0665390
  C       -0.2576190     1.5082170    -0.0002850
  C        1.0914800     1.3228940    -0.0047970
  C       -0.6316600    -0.8954310    -0.0014820
  C       -2.5563510     0.6193970     0.0049040
  C        1.5404980    -0.0347530    -0.0000590
  H       -0.7147670     2.4940890    -0.0022110
  H        1.7746080     2.1637920    -0.0246520
  H       -2.7835150     1.6863950     0.0041520
  H       -2.9802500     0.1433220     0.8903410
  H       -2.9840040     0.1411790    -0.8774920
  H        3.5332235     0.4137441     0.3142134
  H        3.1306380    -1.2574880     0.1361150
units angstrom
no_reorient  #important for SAPT in psi4, default
symmetry c1  #important for SAPT in psi4, default
}

set PROPERTIES_ORIGIN ["COM"]
properties('MP2/aug-cc-pvtz', properties = ['dipole'])
--------------------------------------------------------------------------

    Molecular point group: c1
  Charge       = 0
  Multiplicity = 1
  Basis Set: AUG-CC-PVTZ
    Blend: AUG-CC-PVTZ
  Basis Set: (AUG-CC-PVTZ AUX)
    Blend: AUG-CC-PVTZ-JKFIT

    Orbital Energies [Eh]
    ---------------------

    Doubly Occupied:

       1A    -20.502916     2A    -15.626093     3A    -15.593475
       4A    -15.542469     5A    -11.369177     6A    -11.349490
       7A    -11.328119     8A    -11.273518     9A    -11.243329
      10A     -1.383090    11A     -1.295061    12A     -1.267029
      13A     -1.170040    14A     -1.072385    15A     -0.964763
      16A     -0.898642    17A     -0.854038    18A     -0.758713
      19A     -0.723973    20A     -0.685150    21A     -0.671640
      22A     -0.655162    23A     -0.622425    24A     -0.601623
      25A     -0.589950    26A     -0.576309    27A     -0.566153
      28A     -0.516852    29A     -0.480178    30A     -0.442572
      31A     -0.418315    32A     -0.384810    33A     -0.337465

  @DF-RHF Final Energy:  -431.80226528674552

   => Energetics <=

    Nuclear Repulsion Energy =            441.4760908175391023
    One-Electron Energy =               -1463.0268595866689338
    Two-Electron Energy =                 589.7485034823843080
    Total Energy =                       -431.8022652867455236
  Basis Set: (AUG-CC-PVTZ AUX)
    Blend: AUG-CC-PVTZ-RI
    Molecular point group: c1

    Geometry (in Angstrom), charge = 0, multiplicity = 1:

       Center              X                  Y                   Z               Mass
    ------------   -----------------  -----------------  -----------------  -----------------
         O           -1.468727079296    -1.758649872624     0.002518873680    15.994914619570
         N           -1.115146079296     0.495087127376     0.004803873680    14.003074004430
         N            0.725398920704    -1.032149872624     0.009076873680    14.003074004430
         N            2.878801920704    -0.248777872624    -0.063161126320    14.003074004430
         C           -0.266065079296     1.553843127376     0.003092873680    12.000000000000
         C            1.083033920704     1.368520127376    -0.001419126320    12.000000000000
         C           -0.640106079296    -0.849804872624     0.001895873680    12.000000000000
         C           -2.564797079296     0.665023127376     0.008281873680    12.000000000000
         C            1.532051920704     0.010873127376     0.003318873680    12.000000000000
         H           -0.723213079296     2.539715127376     0.001166873680     1.007825032230
         H            1.766161920704     2.209418127376    -0.021274126320     1.007825032230
         H           -2.791961079296     1.732021127376     0.007529873680     1.007825032230
         H           -2.988696079296     0.188948127376     0.893718873680     1.007825032230
         H           -2.992450079296     0.186805127376    -0.874114126320     1.007825032230
         H            3.524777420704     0.459370227376     0.317591273680     1.007825032230
         H            3.122191920704    -1.211861872624     0.139492873680     1.007825032230

  Basis Set: AUG-CC-PVTZ
    Blend: AUG-CC-PVTZ
  Basis Set: (AUG-CC-PVTZ AUX)
    Blend: AUG-CC-PVTZ-JKFIT
	 Reference Energy          =    -431.8022652867455236 [Eh]
	 Singles Energy            =      -0.0000000000000000 [Eh]
	 Same-Spin Energy          =      -0.4505276731702492 [Eh]
	 Opposite-Spin Energy      =      -1.3722294973254856 [Eh]
	 Correlation Energy        =      -1.8227571704957348 [Eh]
	 Total Energy              =    -433.6250224572412435 [Eh]

	 ================> DF-SCS-MP2 Energies <==================
	-----------------------------------------------------------
	 SCS Same-Spin Scale       =       0.3333333333333333 [-]
	 SCS Opposite-Spin Scale   =       1.2000000000000000 [-]
	 SCS Same-Spin Energy      =      -0.1501758910567497 [Eh]
	 SCS Opposite-Spin Energy  =      -1.6466753967905827 [Eh]
	 SCS Correlation Energy    =      -1.7968512878473324 [Eh]
	 SCS Total Energy          =    -433.5991165745928697 [Eh]
	-----------------------------------------------------------

  Dipole Moment: [D]
     X:     1.8187      Y:     5.6173      Z:     0.7741     Total:     5.9549

*** Psi4 exiting successfully. Buy a developer a beer!
