                               Psi4 1.3.2 release

  ==> Input File <==

--------------------------------------------------------------------------
#psi4
#
memory 32 gb

molecule  {
0 1
  O       -1.4243350     1.8531120    -0.0084660
  N       -1.1176450    -0.4263010     0.0065070
  N        0.7429240     1.0712790     0.0095610
  N        2.8919430     0.2615640    -0.0759850
  C       -0.2733660    -1.4960510    -0.0007800
  C        1.0765330    -1.3300920    -0.0040440
  C       -0.6338910     0.9109410     0.0155220
  C       -2.5617390    -0.6507120     0.0005160
  C        1.5494519     0.0206469    -0.0005581
  H       -0.7522370    -2.4720050    -0.0099570
  H        1.7627025    -2.1690923    -0.0315125
  H       -2.8635010    -1.2105310     0.8892080
  H       -2.8583950    -1.1972750    -0.8980640
  H       -3.0263160     0.3321150     0.0069490
  H        3.5027140    -0.4263080     0.3467730
  H        3.1453740     1.2255370     0.1175850
units angstrom
no_reorient  #important for SAPT in psi4, default
symmetry c1  #important for SAPT in psi4, default
}

set PROPERTIES_ORIGIN ["COM"]
properties('MP2/aug-cc-pvtz', properties = ['dipole'])
--------------------------------------------------------------------------

    Molecular point group: c1
  Charge       = 0
  Multiplicity = 1
  Basis Set: AUG-CC-PVTZ
    Blend: AUG-CC-PVTZ
  Basis Set: (AUG-CC-PVTZ AUX)
    Blend: AUG-CC-PVTZ-JKFIT

    Orbital Energies [Eh]
    ---------------------

    Doubly Occupied:

       1A    -20.502259     2A    -15.624920     3A    -15.593706
       4A    -15.542401     5A    -11.371029     6A    -11.349766
       7A    -11.327510     8A    -11.270028     9A    -11.245921
      10A     -1.381223    11A     -1.295724    12A     -1.268895
      13A     -1.169555    14A     -1.072159    15A     -0.964934
      16A     -0.899238    17A     -0.853225    18A     -0.759675
      19A     -0.724733    20A     -0.686917    21A     -0.674773
      22A     -0.654807    23A     -0.621750    24A     -0.602269
      25A     -0.591140    26A     -0.579250    27A     -0.558900
      28A     -0.523226    29A     -0.475851    30A     -0.438802
      31A     -0.418390    32A     -0.386274    33A     -0.338456

  @DF-RHF Final Energy:  -431.80053050716833

   => Energetics <=

    Nuclear Repulsion Energy =            440.7941770131467933
    One-Electron Energy =               -1461.6540032350042111
    Two-Electron Energy =                 589.0592957146891422
    Total Energy =                       -431.8005305071683324
  Basis Set: (AUG-CC-PVTZ AUX)
    Blend: AUG-CC-PVTZ-RI
    Molecular point group: c1

    Geometry (in Angstrom), charge = 0, multiplicity = 1:

       Center              X                  Y                   Z               Mass
    ------------   -----------------  -----------------  -----------------  -----------------
         O           -1.434349567578     1.806512575331    -0.005089282322    15.994914619570
         N           -1.127659567578    -0.472900424669     0.009883717678    14.003074004430
         N            0.732909432422     1.024679575331     0.012937717678    14.003074004430
         N            2.881928432422     0.214964575331    -0.072608282322    14.003074004430
         C           -0.283380567578    -1.542650424669     0.002596717678    12.000000000000
         C            1.066518432422    -1.376691424669    -0.000667282322    12.000000000000
         C           -0.643905567578     0.864341575331     0.018898717678    12.000000000000
         C           -2.571753567578    -0.697311424669     0.003892717678    12.000000000000
         C            1.539437332422    -0.025952524669     0.002818617678    12.000000000000
         H           -0.762251567578    -2.518604424669    -0.006580282322     1.007825032230
         H            1.752687932422    -2.215691724669    -0.028135782322     1.007825032230
         H           -2.873515567578    -1.257130424669     0.892584717678     1.007825032230
         H           -2.868409567578    -1.243874424669    -0.894687282322     1.007825032230
         H           -3.036330567578     0.285515575331     0.010325717678     1.007825032230
         H            3.492699432422    -0.472907424669     0.350149717678     1.007825032230
         H            3.135359432422     1.178937575331     0.120961717678     1.007825032230

  Basis Set: AUG-CC-PVTZ
    Blend: AUG-CC-PVTZ
  Basis Set: (AUG-CC-PVTZ AUX)
    Blend: AUG-CC-PVTZ-JKFIT
	 Reference Energy          =    -431.8005305071683324 [Eh]
	 Singles Energy            =      -0.0000000000000000 [Eh]
	 Same-Spin Energy          =      -0.4505125307619121 [Eh]
	 Opposite-Spin Energy      =      -1.3722773089835947 [Eh]
	 Correlation Energy        =      -1.8227898397455067 [Eh]
	 Total Energy              =    -433.6233203469138289 [Eh]

	 ================> DF-SCS-MP2 Energies <==================
	-----------------------------------------------------------
	 SCS Same-Spin Scale       =       0.3333333333333333 [-]
	 SCS Opposite-Spin Scale   =       1.2000000000000000 [-]
	 SCS Same-Spin Energy      =      -0.1501708435873040 [Eh]
	 SCS Opposite-Spin Energy  =      -1.6467327707803137 [Eh]
	 SCS Correlation Energy    =      -1.7969036143676176 [Eh]
	 SCS Total Energy          =    -433.5974341215359686 [Eh]
	-----------------------------------------------------------

  Dipole Moment: [D]
     X:     1.8126      Y:    -5.6487      Z:     0.8284     Total:     5.9899

*** Psi4 exiting successfully. Buy a developer a beer!
