                               Psi4 1.4a3.dev225

  ==> Input File <==

--------------------------------------------------------------------------
#psi4
#
memory 32 gb

molecule  {
0 1
  O       -1.4602810    -1.8042760    -0.0008590
  N       -1.1067000     0.4494610     0.0014260
  N        0.7338450    -1.0777760     0.0056990
  N        2.8872480    -0.2944040    -0.0665390
  C       -0.2576190     1.5082170    -0.0002850
  C        1.0914800     1.3228940    -0.0047970
  C       -0.6316600    -0.8954310    -0.0014820
  C       -2.5563510     0.6193970     0.0049040
  C        1.5404980    -0.0347530    -0.0000590
  H       -0.7147670     2.4940890    -0.0022110
  H        1.7746080     2.1637920    -0.0246520
  H       -2.7835150     1.6863950     0.0041520
  H       -2.9802500     0.1433220     0.8903410
  H       -2.9840040     0.1411790    -0.8774920
  H        3.4893807     0.3656816     0.2883715
  H        3.1306380    -1.2574880     0.1361150
units angstrom
no_reorient  #important for SAPT in psi4, default
symmetry c1  #important for SAPT in psi4, default
}

set PROPERTIES_ORIGIN ["COM"]
properties('MP2/aug-cc-pvtz', properties = ['dipole'])
--------------------------------------------------------------------------

    Molecular point group: c1
  Charge       = 0
  Multiplicity = 1
  Basis Set: AUG-CC-PVTZ
    Blend: AUG-CC-PVTZ
  Basis Set: (AUG-CC-PVTZ AUX)
    Blend: AUG-CC-PVTZ-JKFIT

    Orbital Energies [Eh]
    ---------------------

    Doubly Occupied:

       1A    -20.503105     2A    -15.626419     3A    -15.586639
       4A    -15.542632     5A    -11.369322     6A    -11.349675
       7A    -11.328488     8A    -11.273715     9A    -11.243665
      10A     -1.383333    11A     -1.296799    12A     -1.270215
      13A     -1.175938    14A     -1.072892    15A     -0.966156
      16A     -0.898984    17A     -0.858890    18A     -0.761972
      19A     -0.726354    20A     -0.690566    21A     -0.678645
      22A     -0.655492    23A     -0.622763    24A     -0.602490
      25A     -0.590652    26A     -0.576772    27A     -0.566389
      28A     -0.517523    29A     -0.480469    30A     -0.442772
      31A     -0.418575    32A     -0.385759    33A     -0.337720

  @DF-RHF Final Energy:  -431.80270832147005

   => Energetics <=

    Nuclear Repulsion Energy =            441.8653277697844715
    One-Electron Energy =               -1463.7325113966739991
    Two-Electron Energy =                 590.0644753054194780
    Total Energy =                       -431.8027083214700497
  Basis Set: (AUG-CC-PVTZ AUX)
    Blend: AUG-CC-PVTZ-RI
    Molecular point group: c1

    Geometry (in Angstrom), charge = 0, multiplicity = 1:

       Center              X                  Y                   Z               Mass
    ------------   -----------------  -----------------  -----------------  -----------------
         O           -1.468373758844    -1.758262546444     0.002727128440    15.994914619570
         N           -1.114792758844     0.495474453556     0.005012128440    14.003074004430
         N            0.725752241156    -1.031762546444     0.009285128440    14.003074004430
         N            2.879155241156    -0.248390546444    -0.062952871560    14.003074004430
         C           -0.265711758844     1.554230453556     0.003301128440    12.000000000000
         C            1.083387241156     1.368907453556    -0.001210871560    12.000000000000
         C           -0.639752758844    -0.849417546444     0.002104128440    12.000000000000
         C           -2.564443758844     0.665410453556     0.008490128440    12.000000000000
         C            1.532405241156     0.011260453556     0.003527128440    12.000000000000
         H           -0.722859758844     2.540102453556     0.001375128440     1.007825032230
         H            1.766515241156     2.209805453556    -0.021065871560     1.007825032230
         H           -2.791607758844     1.732408453556     0.007738128440     1.007825032230
         H           -2.988342758844     0.189335453556     0.893927128440     1.007825032230
         H           -2.992096758844     0.187192453556    -0.873905871560     1.007825032230
         H            3.481287941156     0.411695053556     0.291957628440     1.007825032230
         H            3.122545241156    -1.211474546444     0.139701128440     1.007825032230

  Basis Set: AUG-CC-PVTZ
    Blend: AUG-CC-PVTZ
  Basis Set: (AUG-CC-PVTZ AUX)
    Blend: AUG-CC-PVTZ-JKFIT
	 Reference Energy          =    -431.8027083214700497 [Eh]
	 Singles Energy            =      -0.0000000000000000 [Eh]
	 Same-Spin Energy          =      -0.4501283618672751 [Eh]
	 Opposite-Spin Energy      =      -1.3711223008471847 [Eh]
	 Correlation Energy        =      -1.8212506627144598 [Eh]
	 Total Energy              =    -433.6239589841845259 [Eh]

	 ================> DF-SCS-MP2 Energies <==================
	-----------------------------------------------------------
	 SCS Same-Spin Scale       =       0.3333333333333333 [-]
	 SCS Opposite-Spin Scale   =       1.2000000000000000 [-]
	 SCS Same-Spin Energy      =      -0.1500427872890917 [Eh]
	 SCS Opposite-Spin Energy  =      -1.6453467610166215 [Eh]
	 SCS Correlation Energy    =      -1.7953895483057132 [Eh]
	 SCS Total Energy          =    -433.5980978697757564 [Eh]
	-----------------------------------------------------------

  Dipole Moment: [D]
     X:     1.7665      Y:     5.5847      Z:     0.7572     Total:     5.9062

*** Psi4 exiting successfully. Buy a developer a beer!
