                               Psi4 1.3.2 release

  ==> Input File <==

--------------------------------------------------------------------------
#psi4
#
memory 32 gb

molecule  {
0 1
  O       -1.4406631     1.8391787    -0.0080764
  N       -1.1176450    -0.4263010     0.0065070
  N        0.7455144     1.0472342     0.0101950
  N        2.8919430     0.2615640    -0.0759850
  C       -0.2733660    -1.4960510    -0.0007800
  C        1.0765330    -1.3300920    -0.0040440
  C       -0.6338910     0.9109410     0.0155220
  C       -2.5617390    -0.6507120     0.0005160
  C        1.5376510     0.0247200    -0.0002060
  H       -0.7522370    -2.4720050    -0.0099570
  H        1.7553550    -2.1750520    -0.0313920
  H       -2.8635010    -1.2105310     0.8892080
  H       -2.8583950    -1.1972750    -0.8980640
  H       -3.0263160     0.3321150     0.0069490
  H        3.5027140    -0.4263080     0.3467730
  H        3.1453740     1.2255370     0.1175850
units angstrom
no_reorient  #important for SAPT in psi4, default
symmetry c1  #important for SAPT in psi4, default
}

set PROPERTIES_ORIGIN ["COM"]
properties('MP2/aug-cc-pvtz', properties = ['dipole'])
--------------------------------------------------------------------------

    Molecular point group: c1
  Charge       = 0
  Multiplicity = 1
  Basis Set: AUG-CC-PVTZ
    Blend: AUG-CC-PVTZ
  Basis Set: (AUG-CC-PVTZ AUX)
    Blend: AUG-CC-PVTZ-JKFIT

    Orbital Energies [Eh]
    ---------------------

    Doubly Occupied:

       1A    -20.506239     2A    -15.623894     3A    -15.590131
       4A    -15.542328     5A    -11.374805     6A    -11.346710
       7A    -11.325470     8A    -11.269380     9A    -11.244474
      10A     -1.384624    11A     -1.298692    12A     -1.267652
      13A     -1.174106    14A     -1.071486    15A     -0.965612
      16A     -0.898226    17A     -0.856281    18A     -0.759400
      19A     -0.724050    20A     -0.686069    21A     -0.673916
      22A     -0.655450    23A     -0.622889    24A     -0.601694
      25A     -0.593728    26A     -0.581388    27A     -0.558248
      28A     -0.522553    29A     -0.475976    30A     -0.442891
      31A     -0.418071    32A     -0.390405    33A     -0.338732

  @DF-RHF Final Energy:  -431.80129730754032

   => Energetics <=

    Nuclear Repulsion Energy =            441.5251953453281430
    One-Electron Energy =               -1463.0818466029891169
    Two-Electron Energy =                 589.7553539501207069
    Total Energy =                       -431.8012973075402670
  Basis Set: (AUG-CC-PVTZ AUX)
    Blend: AUG-CC-PVTZ-RI
    Molecular point group: c1

    Geometry (in Angstrom), charge = 0, multiplicity = 1:

       Center              X                  Y                   Z               Mass
    ------------   -----------------  -----------------  -----------------  -----------------
         O           -1.447687806309     1.796710865674    -0.004855258684    15.994914619570
         N           -1.124669706309    -0.468768834326     0.009728141316    14.003074004430
         N            0.738489693691     1.004766365674     0.013416141316    14.003074004430
         N            2.884918293691     0.219096165674    -0.072763858684    14.003074004430
         C           -0.280390706309    -1.538518834326     0.002441141316    12.000000000000
         C            1.069508293691    -1.372559834326    -0.000822858684    12.000000000000
         C           -0.640915706309     0.868473165674     0.018743141316    12.000000000000
         C           -2.568763706309    -0.693179834326     0.003737141316    12.000000000000
         C            1.530626293691    -0.017747834326     0.003015141316    12.000000000000
         H           -0.759261706309    -2.514472834326    -0.006735858684     1.007825032230
         H            1.748330293691    -2.217519834326    -0.028170858684     1.007825032230
         H           -2.870525706309    -1.252998834326     0.892429141316     1.007825032230
         H           -2.865419706309    -1.239742834326    -0.894842858684     1.007825032230
         H           -3.033340706309     0.289647165674     0.010170141316     1.007825032230
         H            3.495689293691    -0.468775834326     0.349994141316     1.007825032230
         H            3.138349293691     1.183069165674     0.120806141316     1.007825032230

  Basis Set: AUG-CC-PVTZ
    Blend: AUG-CC-PVTZ
  Basis Set: (AUG-CC-PVTZ AUX)
    Blend: AUG-CC-PVTZ-JKFIT
	 Reference Energy          =    -431.8012973075403238 [Eh]
	 Singles Energy            =      -0.0000000000000000 [Eh]
	 Same-Spin Energy          =      -0.4503079054734407 [Eh]
	 Opposite-Spin Energy      =      -1.3717574283462861 [Eh]
	 Correlation Energy        =      -1.8220653338197268 [Eh]
	 Total Energy              =    -433.6233626413600746 [Eh]

	 ================> DF-SCS-MP2 Energies <==================
	-----------------------------------------------------------
	 SCS Same-Spin Scale       =       0.3333333333333333 [-]
	 SCS Opposite-Spin Scale   =       1.2000000000000000 [-]
	 SCS Same-Spin Energy      =      -0.1501026351578136 [Eh]
	 SCS Opposite-Spin Energy  =      -1.6461089140155434 [Eh]
	 SCS Correlation Energy    =      -1.7962115491733570 [Eh]
	 SCS Total Energy          =    -433.5975088567136595 [Eh]
	-----------------------------------------------------------

  Dipole Moment: [D]
     X:     1.6841      Y:    -5.5173      Z:     0.8337     Total:     5.8285

*** Psi4 exiting successfully. Buy a developer a beer!
