                               Psi4 1.3.2 release

  ==> Input File <==

--------------------------------------------------------------------------
#psi4
#
memory 32 gb

molecule  {
0 1
  O       -1.4243350     1.8531120    -0.0084660
  N       -1.1361864    -0.4411988     0.0064954
  N        0.7429240     1.0712790     0.0095610
  N        2.8919430     0.2615640    -0.0759850
  C       -0.2733660    -1.4960510    -0.0007800
  C        1.0792235    -1.3536761    -0.0041574
  C       -0.6338910     0.9109410     0.0155220
  C       -2.5617390    -0.6507120     0.0005160
  C        1.5376510     0.0247200    -0.0002060
  H       -0.7522370    -2.4720050    -0.0099570
  H        1.7553550    -2.1750520    -0.0313920
  H       -2.8635010    -1.2105310     0.8892080
  H       -2.8583950    -1.1972750    -0.8980640
  H       -3.0263160     0.3321150     0.0069490
  H        3.5027140    -0.4263080     0.3467730
  H        3.1453740     1.2255370     0.1175850
units angstrom
no_reorient  #important for SAPT in psi4, default
symmetry c1  #important for SAPT in psi4, default
}

set PROPERTIES_ORIGIN ["COM"]
properties('MP2/aug-cc-pvtz', properties = ['dipole'])
--------------------------------------------------------------------------

    Molecular point group: c1
  Charge       = 0
  Multiplicity = 1
  Basis Set: AUG-CC-PVTZ
    Blend: AUG-CC-PVTZ
  Basis Set: (AUG-CC-PVTZ AUX)
    Blend: AUG-CC-PVTZ-JKFIT

    Orbital Energies [Eh]
    ---------------------

    Doubly Occupied:

       1A    -20.506563     2A    -15.624384     3A    -15.592753
       4A    -15.545376     5A    -11.374992     6A    -11.352224
       7A    -11.326102     8A    -11.268160     9A    -11.245951
      10A     -1.382203    11A     -1.295684    12A     -1.268575
      13A     -1.172189    14A     -1.072289    15A     -0.964390
      16A     -0.893779    17A     -0.854940    18A     -0.757740
      19A     -0.722605    20A     -0.689987    21A     -0.675243
      22A     -0.655631    23A     -0.622867    24A     -0.600835
      25A     -0.594430    26A     -0.579336    27A     -0.559384
      28A     -0.521045    29A     -0.476271    30A     -0.442589
      31A     -0.420143    32A     -0.388232    33A     -0.338791

  @DF-RHF Final Energy:  -431.79970155982545

   => Energetics <=

    Nuclear Repulsion Energy =            440.2225906192119851
    One-Electron Energy =               -1460.4732237957462075
    Two-Electron Energy =                 588.4509316167087718
    Total Energy =                       -431.7997015598253938
  Basis Set: (AUG-CC-PVTZ AUX)
    Blend: AUG-CC-PVTZ-RI
    Molecular point group: c1

    Geometry (in Angstrom), charge = 0, multiplicity = 1:

       Center              X                  Y                   Z               Mass
    ------------   -----------------  -----------------  -----------------  -----------------
         O           -1.431340054820     1.810100910813    -0.005111858940    15.994914619570
         N           -1.143191454820    -0.484209889187     0.009849541060    14.003074004430
         N            0.735918945180     1.028267910813     0.012915141060    14.003074004430
         N            2.884937945180     0.218552910813    -0.072630858940    14.003074004430
         C           -0.280371054820    -1.539062089187     0.002574141060    12.000000000000
         C            1.072218445180    -1.396687189187    -0.000803258940    12.000000000000
         C           -0.640896054820     0.867929910813     0.018876141060    12.000000000000
         C           -2.568744054820    -0.693723089187     0.003870141060    12.000000000000
         C            1.530645945180    -0.018291089187     0.003148141060    12.000000000000
         H           -0.759242054820    -2.515016089187    -0.006602858940     1.007825032230
         H            1.748349945180    -2.218063089187    -0.028037858940     1.007825032230
         H           -2.870506054820    -1.253542089187     0.892562141060     1.007825032230
         H           -2.865400054820    -1.240286089187    -0.894709858940     1.007825032230
         H           -3.033321054820     0.289103910813     0.010303141060     1.007825032230
         H            3.495708945180    -0.469319089187     0.350127141060     1.007825032230
         H            3.138368945180     1.182525910813     0.120939141060     1.007825032230

  Basis Set: AUG-CC-PVTZ
    Blend: AUG-CC-PVTZ
  Basis Set: (AUG-CC-PVTZ AUX)
    Blend: AUG-CC-PVTZ-JKFIT
	 Reference Energy          =    -431.7997015598254507 [Eh]
	 Singles Energy            =      -0.0000000000000000 [Eh]
	 Same-Spin Energy          =      -0.4501949328753462 [Eh]
	 Opposite-Spin Energy      =      -1.3721700986215235 [Eh]
	 Correlation Energy        =      -1.8223650314968696 [Eh]
	 Total Energy              =    -433.6220665913223229 [Eh]

	 ================> DF-SCS-MP2 Energies <==================
	-----------------------------------------------------------
	 SCS Same-Spin Scale       =       0.3333333333333333 [-]
	 SCS Opposite-Spin Scale   =       1.2000000000000000 [-]
	 SCS Same-Spin Energy      =      -0.1500649776251154 [Eh]
	 SCS Opposite-Spin Energy  =      -1.6466041183458282 [Eh]
	 SCS Correlation Energy    =      -1.7966690959709437 [Eh]
	 SCS Total Energy          =    -433.5963706557964201 [Eh]
	-----------------------------------------------------------

  Dipole Moment: [D]
     X:     1.7752      Y:    -5.4913      Z:     0.8298     Total:     5.8305

*** Psi4 exiting successfully. Buy a developer a beer!
