                               Psi4 1.3.2 release

  ==> Input File <==

--------------------------------------------------------------------------
#psi4
#
memory 32 gb

molecule  {
0 1
  O       -1.4243350     1.8531120    -0.0084660
  N       -1.1222200    -0.4014748    -0.0378199
  N        0.7429240     1.0712790     0.0095610
  N        2.8919430     0.2615640    -0.0759850
  C       -0.2733660    -1.4960510    -0.0007800
  C        1.0765330    -1.3300920    -0.0040440
  C       -0.6338910     0.9109410     0.0155220
  C       -2.5617390    -0.6507120     0.0005160
  C        1.5376510     0.0247200    -0.0002060
  H       -0.7522370    -2.4720050    -0.0099570
  H        1.7553550    -2.1750520    -0.0313920
  H       -2.8996070    -1.2091805     0.8769801
  H       -2.8583950    -1.1972750    -0.8980640
  H       -3.0263160     0.3321150     0.0069490
  H        3.5027140    -0.4263080     0.3467730
  H        3.1453740     1.2255370     0.1175850
units angstrom
no_reorient  #important for SAPT in psi4, default
symmetry c1  #important for SAPT in psi4, default
}

set PROPERTIES_ORIGIN ["COM"]
properties('MP2/aug-cc-pvtz', properties = ['dipole'])
--------------------------------------------------------------------------

    Molecular point group: c1
  Charge       = 0
  Multiplicity = 1
  Basis Set: AUG-CC-PVTZ
    Blend: AUG-CC-PVTZ
  Basis Set: (AUG-CC-PVTZ AUX)
    Blend: AUG-CC-PVTZ-JKFIT

    Orbital Energies [Eh]
    ---------------------

    Doubly Occupied:

       1A    -20.499760     2A    -15.625044     3A    -15.592560
       4A    -15.543999     5A    -11.369211     6A    -11.350272
       7A    -11.329152     8A    -11.269449     9A    -11.249377
      10A     -1.382526    11A     -1.293963    12A     -1.265143
      13A     -1.170792    14A     -1.074060    15A     -0.965527
      16A     -0.900970    17A     -0.852524    18A     -0.759310
      19A     -0.723920    20A     -0.687214    21A     -0.675696
      22A     -0.653635    23A     -0.621699    24A     -0.604609
      25A     -0.591966    26A     -0.578785    27A     -0.553711
      28A     -0.522475    29A     -0.472066    30A     -0.439736
      31A     -0.419624    32A     -0.388394    33A     -0.341278

  @DF-RHF Final Energy:  -431.79927240755137

   => Energetics <=

    Nuclear Repulsion Energy =            440.9312970679187060
    One-Electron Energy =               -1461.9242439386471233
    Two-Electron Energy =                 589.1936744631771035
    Total Energy =                       -431.7992724075513706
  Basis Set: (AUG-CC-PVTZ AUX)
    Blend: AUG-CC-PVTZ-RI
    Molecular point group: c1

    Geometry (in Angstrom), charge = 0, multiplicity = 1:

       Center              X                  Y                   Z               Mass
    ------------   -----------------  -----------------  -----------------  -----------------
         O           -1.432354760611     1.803379051755    -0.000062133176    15.994914619570
         N           -1.130239760611    -0.451207748245    -0.029416033176    14.003074004430
         N            0.734904239389     1.021546051755     0.017964866824    14.003074004430
         N            2.883923239389     0.211831051755    -0.067581133176    14.003074004430
         C           -0.281385760611    -1.545783948245     0.007623866824    12.000000000000
         C            1.068513239389    -1.379824948245     0.004359866824    12.000000000000
         C           -0.641910760611     0.861208051755     0.023925866824    12.000000000000
         C           -2.569758760611    -0.700444948245     0.008919866824    12.000000000000
         C            1.529631239389    -0.025012948245     0.008197866824    12.000000000000
         H           -0.760256760611    -2.521737948245    -0.001553133176     1.007825032230
         H            1.747335239389    -2.224784948245    -0.022988133176     1.007825032230
         H           -2.907626760611    -1.258913448245     0.885383966824     1.007825032230
         H           -2.866414760611    -1.247007948245    -0.889660133176     1.007825032230
         H           -3.034335760611     0.282382051755     0.015352866824     1.007825032230
         H            3.494694239389    -0.476040948245     0.355176866824     1.007825032230
         H            3.137354239389     1.175804051755     0.125988866824     1.007825032230

  Basis Set: AUG-CC-PVTZ
    Blend: AUG-CC-PVTZ
  Basis Set: (AUG-CC-PVTZ AUX)
    Blend: AUG-CC-PVTZ-JKFIT
	 Reference Energy          =    -431.7992724075513706 [Eh]
	 Singles Energy            =      -0.0000000000000000 [Eh]
	 Same-Spin Energy          =      -0.4501808696621262 [Eh]
	 Opposite-Spin Energy      =      -1.3721265071480402 [Eh]
	 Correlation Energy        =      -1.8223073768101663 [Eh]
	 Total Energy              =    -433.6215797843615292 [Eh]

	 ================> DF-SCS-MP2 Energies <==================
	-----------------------------------------------------------
	 SCS Same-Spin Scale       =       0.3333333333333333 [-]
	 SCS Opposite-Spin Scale   =       1.2000000000000000 [-]
	 SCS Same-Spin Energy      =      -0.1500602898873754 [Eh]
	 SCS Opposite-Spin Energy  =      -1.6465518085776483 [Eh]
	 SCS Correlation Energy    =      -1.7966120984650236 [Eh]
	 SCS Total Energy          =    -433.5958845060163753 [Eh]
	-----------------------------------------------------------

  Dipole Moment: [D]
     X:     1.8209      Y:    -5.7346      Z:     0.8607     Total:     6.0780

*** Psi4 exiting successfully. Buy a developer a beer!
