                               Psi4 1.3.2 release

  ==> Input File <==

--------------------------------------------------------------------------
#psi4
#
memory 32 gb

molecule  {
0 1
  O       -1.4243350     1.8531120    -0.0084660
  N       -1.1176450    -0.4263010     0.0065070
  N        0.7429240     1.0712790     0.0095610
  N        2.8919430     0.2615640    -0.0759850
  C       -0.2185354    -1.4503998    -0.0004746
  C        1.0765330    -1.3300920    -0.0040440
  C       -0.5645665     0.8837912     0.0153341
  C       -2.5617390    -0.6507120     0.0005160
  C        1.5376510     0.0247200    -0.0002060
  H       -0.7522370    -2.4720050    -0.0099570
  H        1.7553550    -2.1750520    -0.0313920
  H       -2.8635010    -1.2105310     0.8892080
  H       -2.8583950    -1.1972750    -0.8980640
  H       -3.0263160     0.3321150     0.0069490
  H        3.5027140    -0.4263080     0.3467730
  H        3.1453740     1.2255370     0.1175850
units angstrom
no_reorient  #important for SAPT in psi4, default
symmetry c1  #important for SAPT in psi4, default
}

set PROPERTIES_ORIGIN ["COM"]
properties('MP2/aug-cc-pvtz', properties = ['dipole'])
--------------------------------------------------------------------------

    Molecular point group: c1
  Charge       = 0
  Multiplicity = 1
  Basis Set: AUG-CC-PVTZ
    Blend: AUG-CC-PVTZ
  Basis Set: (AUG-CC-PVTZ AUX)
    Blend: AUG-CC-PVTZ-JKFIT

    Orbital Energies [Eh]
    ---------------------

    Doubly Occupied:

       1A    -20.483561     2A    -15.626067     3A    -15.600771
       4A    -15.549663     5A    -11.367568     6A    -11.360604
       7A    -11.325498     8A    -11.271006     9A    -11.245610
      10A     -1.367248    11A     -1.285737    12A     -1.260779
      13A     -1.189389    14A     -1.090829    15A     -0.969722
      16A     -0.891114    17A     -0.869767    18A     -0.769276
      19A     -0.726510    20A     -0.691888    21A     -0.671671
      22A     -0.656147    23A     -0.617535    24A     -0.599596
      25A     -0.587984    26A     -0.578985    27A     -0.550954
      28A     -0.515476    29A     -0.474227    30A     -0.438265
      31A     -0.409541    32A     -0.393279    33A     -0.344073

  @DF-RHF Final Energy:  -431.78323181153786

   => Energetics <=

    Nuclear Repulsion Energy =            442.3140155534824771
    One-Electron Energy =               -1464.6338145147853993
    Two-Electron Energy =                 590.5365671497651192
    Total Energy =                       -431.7832318115378030
  Basis Set: (AUG-CC-PVTZ AUX)
    Blend: AUG-CC-PVTZ-RI
    Molecular point group: c1

    Geometry (in Angstrom), charge = 0, multiplicity = 1:

       Center              X                  Y                   Z               Mass
    ------------   -----------------  -----------------  -----------------  -----------------
         O           -1.445071277736     1.804394472261    -0.005135313771    15.994914619570
         N           -1.138381277736    -0.475018527739     0.009837686229    14.003074004430
         N            0.722187722264     1.022561472261     0.012891686229    14.003074004430
         N            2.871206722264     0.212846472261    -0.072654313771    14.003074004430
         C           -0.239271677736    -1.499117327739     0.002856086229    12.000000000000
         C            1.055796722264    -1.378809527739    -0.000713313771    12.000000000000
         C           -0.585302777736     0.835073672261     0.018664786229    12.000000000000
         C           -2.582475277736    -0.699429527739     0.003846686229    12.000000000000
         C            1.516914722264    -0.023997527739     0.003124686229    12.000000000000
         H           -0.772973277736    -2.520722527739    -0.006626313771     1.007825032230
         H            1.734618722264    -2.223769527739    -0.028061313771     1.007825032230
         H           -2.884237277736    -1.259248527739     0.892538686229     1.007825032230
         H           -2.879131277736    -1.245992527739    -0.894733313771     1.007825032230
         H           -3.047052277736     0.283397472261     0.010279686229     1.007825032230
         H            3.481977722264    -0.475025527739     0.350103686229     1.007825032230
         H            3.124637722264     1.176819472261     0.120915686229     1.007825032230

  Basis Set: AUG-CC-PVTZ
    Blend: AUG-CC-PVTZ
  Basis Set: (AUG-CC-PVTZ AUX)
    Blend: AUG-CC-PVTZ-JKFIT
	 Reference Energy          =    -431.7832318115378598 [Eh]
	 Singles Energy            =      -0.0000000000000000 [Eh]
	 Same-Spin Energy          =      -0.4511955901892469 [Eh]
	 Opposite-Spin Energy      =      -1.3729954075048796 [Eh]
	 Correlation Energy        =      -1.8241909976941264 [Eh]
	 Total Energy              =    -433.6074228092319913 [Eh]

	 ================> DF-SCS-MP2 Energies <==================
	-----------------------------------------------------------
	 SCS Same-Spin Scale       =       0.3333333333333333 [-]
	 SCS Opposite-Spin Scale   =       1.2000000000000000 [-]
	 SCS Same-Spin Energy      =      -0.1503985300630823 [Eh]
	 SCS Opposite-Spin Energy  =      -1.6475944890058554 [Eh]
	 SCS Correlation Energy    =      -1.7979930190689377 [Eh]
	 SCS Total Energy          =    -433.5812248306068000 [Eh]
	-----------------------------------------------------------

  Dipole Moment: [D]
     X:     2.4206      Y:    -6.0164      Z:     0.8301     Total:     6.5380

*** Psi4 exiting successfully. Buy a developer a beer!
