                               Psi4 1.3.2 release

  ==> Input File <==

--------------------------------------------------------------------------
#psi4
#
memory 32 gb

molecule  {
0 1
  O       -1.4243350     1.8531120    -0.0084660
  N       -1.1176450    -0.4263010     0.0065070
  N        0.7429240     1.0712790     0.0095610
  N        2.8919430     0.2615640    -0.0759850
  C       -0.2733660    -1.4960510    -0.0007800
  C        1.0734319    -1.3065597    -0.0037670
  C       -0.6338910     0.9109410     0.0155220
  C       -2.5617390    -0.6507120     0.0005160
  C        1.5376510     0.0247200    -0.0002060
  H       -0.7691974    -2.4635001    -0.0097966
  H        1.7553550    -2.1750520    -0.0313920
  H       -2.8635010    -1.2105310     0.8892080
  H       -2.8583950    -1.1972750    -0.8980640
  H       -3.0263160     0.3321150     0.0069490
  H        3.5027140    -0.4263080     0.3467730
  H        3.1453740     1.2255370     0.1175850
units angstrom
no_reorient  #important for SAPT in psi4, default
symmetry c1  #important for SAPT in psi4, default
}

set PROPERTIES_ORIGIN ["COM"]
properties('MP2/aug-cc-pvtz', properties = ['dipole'])
--------------------------------------------------------------------------

    Molecular point group: c1
  Charge       = 0
  Multiplicity = 1
  Basis Set: AUG-CC-PVTZ
    Blend: AUG-CC-PVTZ
  Basis Set: (AUG-CC-PVTZ AUX)
    Blend: AUG-CC-PVTZ-JKFIT

    Orbital Energies [Eh]
    ---------------------

    Doubly Occupied:

       1A    -20.502821     2A    -15.625811     3A    -15.590903
       4A    -15.542827     5A    -11.371681     6A    -11.347046
       7A    -11.328523     8A    -11.270790     9A    -11.245932
      10A     -1.382485    11A     -1.296757    12A     -1.267828
      13A     -1.170497    14A     -1.073527    15A     -0.966308
      16A     -0.902083    17A     -0.852854    18A     -0.759907
      19A     -0.724134    20A     -0.684070    21A     -0.672211
      22A     -0.655953    23A     -0.623403    24A     -0.603775
      25A     -0.590273    26A     -0.580355    27A     -0.558274
      28A     -0.522086    29A     -0.476337    30A     -0.440194
      31A     -0.419739    32A     -0.388032    33A     -0.338571

  @DF-RHF Final Energy:  -431.79970097986256

   => Energetics <=

    Nuclear Repulsion Energy =            441.3629744998712567
    One-Electron Energy =               -1462.7733729907372435
    Two-Electron Energy =                 589.6106975110034227
    Total Energy =                       -431.7997009798625641
  Basis Set: (AUG-CC-PVTZ AUX)
    Blend: AUG-CC-PVTZ-RI
    Molecular point group: c1

    Geometry (in Angstrom), charge = 0, multiplicity = 1:

       Center              X                  Y                   Z               Mass
    ------------   -----------------  -----------------  -----------------  -----------------
         O           -1.432723756933     1.803843194066    -0.005151911190    15.994914619570
         N           -1.126033756933    -0.475569805934     0.009821088810    14.003074004430
         N            0.734535243067     1.022010194066     0.012875088810    14.003074004430
         N            2.883554243067     0.212295194066    -0.072670911190    14.003074004430
         C           -0.281754756933    -1.545319805934     0.002534088810    12.000000000000
         C            1.065043143067    -1.355828505934    -0.000452911190    12.000000000000
         C           -0.642279756933     0.861672194066     0.018836088810    12.000000000000
         C           -2.570127756933    -0.699980805934     0.003830088810    12.000000000000
         C            1.529262243067    -0.024548805934     0.003108088810    12.000000000000
         H           -0.777586156933    -2.512768905934    -0.006482511190     1.007825032230
         H            1.746966243067    -2.224320805934    -0.028077911190     1.007825032230
         H           -2.871889756933    -1.259799805934     0.892522088810     1.007825032230
         H           -2.866783756933    -1.246543805934    -0.894749911190     1.007825032230
         H           -3.034704756933     0.282846194066     0.010263088810     1.007825032230
         H            3.494325243067    -0.475576805934     0.350087088810     1.007825032230
         H            3.136985243067     1.176268194066     0.120899088810     1.007825032230

  Basis Set: AUG-CC-PVTZ
    Blend: AUG-CC-PVTZ
  Basis Set: (AUG-CC-PVTZ AUX)
    Blend: AUG-CC-PVTZ-JKFIT
	 Reference Energy          =    -431.7997009798625641 [Eh]
	 Singles Energy            =      -0.0000000000000000 [Eh]
	 Same-Spin Energy          =      -0.4507774962118435 [Eh]
	 Opposite-Spin Energy      =      -1.3725115552948703 [Eh]
	 Correlation Energy        =      -1.8232890515067139 [Eh]
	 Total Energy              =    -433.6229900313692838 [Eh]

	 ================> DF-SCS-MP2 Energies <==================
	-----------------------------------------------------------
	 SCS Same-Spin Scale       =       0.3333333333333333 [-]
	 SCS Opposite-Spin Scale   =       1.2000000000000000 [-]
	 SCS Same-Spin Energy      =      -0.1502591654039478 [Eh]
	 SCS Opposite-Spin Energy  =      -1.6470138663538443 [Eh]
	 SCS Correlation Energy    =      -1.7972730317577921 [Eh]
	 SCS Total Energy          =    -433.5969740116203752 [Eh]
	-----------------------------------------------------------

  Dipole Moment: [D]
     X:     1.6557      Y:    -5.6757      Z:     0.8343     Total:     5.9709

*** Psi4 exiting successfully. Buy a developer a beer!
