                               Psi4 1.4a3.dev225

  ==> Input File <==

--------------------------------------------------------------------------
#psi4
#
memory 32 gb

molecule  {
0 1
  O       -1.4602810    -1.8042760    -0.0008590
  N       -1.1067000     0.4494610     0.0014260
  N        0.7338450    -1.0777760     0.0056990
  N        2.8872480    -0.2944040    -0.0665390
  C       -0.2576190     1.5082170    -0.0002850
  C        1.0914800     1.3228940    -0.0047970
  C       -0.6316600    -0.8954310    -0.0014820
  C       -2.5563510     0.6193970     0.0049040
  C        1.5404980    -0.0347530    -0.0000590
  H       -0.7063535     2.4759448    -0.0021756
  H        1.7746080     2.1637920    -0.0246520
  H       -2.7835150     1.6863950     0.0041520
  H       -2.9802500     0.1433220     0.8903410
  H       -2.9840040     0.1411790    -0.8774920
  H        3.5206970     0.4000120     0.3068300
  H        3.1306380    -1.2574880     0.1361150
units angstrom
no_reorient  #important for SAPT in psi4, default
symmetry c1  #important for SAPT in psi4, default
}

set PROPERTIES_ORIGIN ["COM"]
properties('MP2/aug-cc-pvtz', properties = ['dipole'])
--------------------------------------------------------------------------

    Molecular point group: c1
  Charge       = 0
  Multiplicity = 1
  Basis Set: AUG-CC-PVTZ
    Blend: AUG-CC-PVTZ
  Basis Set: (AUG-CC-PVTZ AUX)
    Blend: AUG-CC-PVTZ-JKFIT

    Orbital Energies [Eh]
    ---------------------

    Doubly Occupied:

       1A    -20.502889     2A    -15.626037     3A    -15.591552
       4A    -15.542478     5A    -11.369097     6A    -11.349455
       7A    -11.326056     8A    -11.273606     9A    -11.243349
      10A     -1.383088    11A     -1.295468    12A     -1.267898
      13A     -1.171604    14A     -1.072941    15A     -0.965103
      16A     -0.900636    17A     -0.855299    18A     -0.759544
      19A     -0.726494    20A     -0.686184    21A     -0.675497
      22A     -0.655223    23A     -0.622974    24A     -0.602998
      25A     -0.590375    26A     -0.576430    27A     -0.566253
      28A     -0.516986    29A     -0.480211    30A     -0.442580
      31A     -0.418411    32A     -0.385020    33A     -0.337483

  @DF-RHF Final Energy:  -431.80344584365480

   => Energetics <=

    Nuclear Repulsion Energy =            441.6913290973570270
    One-Electron Energy =               -1463.4311126426589453
    Two-Electron Energy =                 589.9363377016470622
    Total Energy =                       -431.8034458436547993
  Basis Set: (AUG-CC-PVTZ AUX)
    Blend: AUG-CC-PVTZ-RI
    Molecular point group: c1

    Geometry (in Angstrom), charge = 0, multiplicity = 1:

       Center              X                  Y                   Z               Mass
    ------------   -----------------  -----------------  -----------------  -----------------
         O           -1.468693933443    -1.758392987828     0.002578089758    15.994914619570
         N           -1.115112933443     0.495344012172     0.004863089758    14.003074004430
         N            0.725432066557    -1.031892987828     0.009136089758    14.003074004430
         N            2.878835066557    -0.248520987828    -0.063101910242    14.003074004430
         C           -0.266031933443     1.554100012172     0.003152089758    12.000000000000
         C            1.083067066557     1.368777012172    -0.001359910242    12.000000000000
         C           -0.640072933443    -0.849547987828     0.001955089758    12.000000000000
         C           -2.564763933443     0.665280012172     0.008341089758    12.000000000000
         C            1.532085066557     0.011130012172     0.003378089758    12.000000000000
         H           -0.714766433443     2.521827812172     0.001261489758     1.007825032230
         H            1.766195066557     2.209675012172    -0.021214910242     1.007825032230
         H           -2.791927933443     1.732278012172     0.007589089758     1.007825032230
         H           -2.988662933443     0.189205012172     0.893778089758     1.007825032230
         H           -2.992416933443     0.187062012172    -0.874054910242     1.007825032230
         H            3.512284066557     0.445895012172     0.310267089758     1.007825032230
         H            3.122225066557    -1.211604987828     0.139552089758     1.007825032230

  Basis Set: AUG-CC-PVTZ
    Blend: AUG-CC-PVTZ
  Basis Set: (AUG-CC-PVTZ AUX)
    Blend: AUG-CC-PVTZ-JKFIT
	 Reference Energy          =    -431.8034458436547993 [Eh]
	 Singles Energy            =      -0.0000000000000000 [Eh]
	 Same-Spin Energy          =      -0.4503516374533582 [Eh]
	 Opposite-Spin Energy      =      -1.3717459237275955 [Eh]
	 Correlation Energy        =      -1.8220975611809536 [Eh]
	 Total Energy              =    -433.6255434048357529 [Eh]

	 ================> DF-SCS-MP2 Energies <==================
	-----------------------------------------------------------
	 SCS Same-Spin Scale       =       0.3333333333333333 [-]
	 SCS Opposite-Spin Scale   =       1.2000000000000000 [-]
	 SCS Same-Spin Energy      =      -0.1501172124844527 [Eh]
	 SCS Opposite-Spin Energy  =      -1.6460951084731146 [Eh]
	 SCS Correlation Energy    =      -1.7962123209575673 [Eh]
	 SCS Total Energy          =    -433.5996581646123786 [Eh]
	-----------------------------------------------------------

  Dipole Moment: [D]
     X:     1.8036      Y:     5.6112      Z:     0.7692     Total:     5.9439

*** Psi4 exiting successfully. Buy a developer a beer!
