                               Psi4 1.3.2 release

  ==> Input File <==

--------------------------------------------------------------------------
#psi4
#
memory 32 gb

molecule  {
0 1
  O       -1.4243350     1.8531120    -0.0084660
  N       -1.1176450    -0.4263010     0.0065070
  N        0.7429240     1.0712790     0.0095610
  N        2.8919430     0.2615640    -0.0759850
  C       -0.2733660    -1.4960510    -0.0007800
  C        1.0765330    -1.3300920    -0.0040440
  C       -0.6338910     0.9109410     0.0155220
  C       -2.5617390    -0.6507120     0.0005160
  C        1.6078984    -0.0012549    -0.0023218
  H       -0.7522370    -2.4720050    -0.0099570
  H        1.7986454    -2.1383445    -0.0320832
  H       -2.8635010    -1.2105310     0.8892080
  H       -2.8583950    -1.1972750    -0.8980640
  H       -3.0263160     0.3321150     0.0069490
  H        3.5027140    -0.4263080     0.3467730
  H        3.1453740     1.2255370     0.1175850
units angstrom
no_reorient  #important for SAPT in psi4, default
symmetry c1  #important for SAPT in psi4, default
}

set PROPERTIES_ORIGIN ["COM"]
properties('MP2/aug-cc-pvtz', properties = ['dipole'])
--------------------------------------------------------------------------

    Molecular point group: c1
  Charge       = 0
  Multiplicity = 1
  Basis Set: AUG-CC-PVTZ
    Blend: AUG-CC-PVTZ
  Basis Set: (AUG-CC-PVTZ AUX)
    Blend: AUG-CC-PVTZ-JKFIT

    Orbital Energies [Eh]
    ---------------------

    Doubly Occupied:

       1A    -20.495674     2A    -15.622577     3A    -15.604601
       4A    -15.536299     5A    -11.364920     6A    -11.352032
       7A    -11.329123     8A    -11.267854     9A    -11.245975
      10A     -1.374794    11A     -1.301889    12A     -1.275254
      13A     -1.159457    14A     -1.069517    15A     -0.963449
      16A     -0.898965    17A     -0.852010    18A     -0.765052
      19A     -0.731566    20A     -0.691595    21A     -0.676220
      22A     -0.651542    23A     -0.620153    24A     -0.604113
      25A     -0.586252    26A     -0.576390    27A     -0.557236
      28A     -0.529797    29A     -0.473729    30A     -0.428739
      31A     -0.410319    32A     -0.377901    33A     -0.335583

  @DF-RHF Final Energy:  -431.79081370285712

   => Energetics <=

    Nuclear Repulsion Energy =            440.2307206526399455
    One-Electron Energy =               -1460.5819097293315281
    Two-Electron Energy =                 588.5603753738344039
    Total Energy =                       -431.7908137028571218
  Basis Set: (AUG-CC-PVTZ AUX)
    Blend: AUG-CC-PVTZ-RI
    Molecular point group: c1

    Geometry (in Angstrom), charge = 0, multiplicity = 1:

       Center              X                  Y                   Z               Mass
    ------------   -----------------  -----------------  -----------------  -----------------
         O           -1.440247445173     1.808366367228    -0.004915447723    15.994914619570
         N           -1.133557445173    -0.471046632772     0.010057552277    14.003074004430
         N            0.727011554827     1.026533367228     0.013111552277    14.003074004430
         N            2.876030554827     0.216818367228    -0.072434447723    14.003074004430
         C           -0.289278445173    -1.540796632772     0.002770552277    12.000000000000
         C            1.060620554827    -1.374837632772    -0.000493447723    12.000000000000
         C           -0.649803445173     0.866195367228     0.019072552277    12.000000000000
         C           -2.577651445173    -0.695457632772     0.004066552277    12.000000000000
         C            1.591985954827    -0.046000532772     0.001228752277    12.000000000000
         H           -0.768149445173    -2.516750632772    -0.006406447723     1.007825032230
         H            1.782732954827    -2.183090132772    -0.028532647723     1.007825032230
         H           -2.879413445173    -1.255276632772     0.892758552277     1.007825032230
         H           -2.874307445173    -1.242020632772    -0.894513447723     1.007825032230
         H           -3.042228445173     0.287369367228     0.010499552277     1.007825032230
         H            3.486801554827    -0.471053632772     0.350323552277     1.007825032230
         H            3.129461554827     1.180791367228     0.121135552277     1.007825032230

  Basis Set: AUG-CC-PVTZ
    Blend: AUG-CC-PVTZ
  Basis Set: (AUG-CC-PVTZ AUX)
    Blend: AUG-CC-PVTZ-JKFIT
	 Reference Energy          =    -431.7908137028571218 [Eh]
	 Singles Energy            =      -0.0000000000000000 [Eh]
	 Same-Spin Energy          =      -0.4512570881928819 [Eh]
	 Opposite-Spin Energy      =      -1.3731154501042497 [Eh]
	 Correlation Energy        =      -1.8243725382971316 [Eh]
	 Total Energy              =    -433.6151862411542766 [Eh]

	 ================> DF-SCS-MP2 Energies <==================
	-----------------------------------------------------------
	 SCS Same-Spin Scale       =       0.3333333333333333 [-]
	 SCS Opposite-Spin Scale   =       1.2000000000000000 [-]
	 SCS Same-Spin Energy      =      -0.1504190293976273 [Eh]
	 SCS Opposite-Spin Energy  =      -1.6477385401250997 [Eh]
	 SCS Correlation Energy    =      -1.7981575695227270 [Eh]
	 SCS Total Energy          =    -433.5889712723798652 [Eh]
	-----------------------------------------------------------

  Dipole Moment: [D]
     X:     2.3523      Y:    -5.7284      Z:     0.8072     Total:     6.2450

*** Psi4 exiting successfully. Buy a developer a beer!
