                               Psi4 1.3.2 release

  ==> Input File <==

--------------------------------------------------------------------------
#psi4
#
memory 32 gb

molecule  {
0 1
  O       -1.4243350     1.8531120    -0.0084660
  N       -1.1176450    -0.4263010     0.0065070
  N        0.7429240     1.0712790     0.0095610
  N        2.8919430     0.2615640    -0.0759850
  C       -0.2733660    -1.4960510    -0.0007800
  C        1.0765330    -1.3300920    -0.0040440
  C       -0.6679083     0.8169069     0.0148881
  C       -2.5617390    -0.6507120     0.0005160
  C        1.5376510     0.0247200    -0.0002060
  H       -0.7522370    -2.4720050    -0.0099570
  H        1.7553550    -2.1750520    -0.0313920
  H       -2.8635010    -1.2105310     0.8892080
  H       -2.8583950    -1.1972750    -0.8980640
  H       -3.0263160     0.3321150     0.0069490
  H        3.5027140    -0.4263080     0.3467730
  H        3.1453740     1.2255370     0.1175850
units angstrom
no_reorient  #important for SAPT in psi4, default
symmetry c1  #important for SAPT in psi4, default
}

set PROPERTIES_ORIGIN ["COM"]
properties('MP2/aug-cc-pvtz', properties = ['dipole'])
--------------------------------------------------------------------------

    Molecular point group: c1
  Charge       = 0
  Multiplicity = 1
  Basis Set: AUG-CC-PVTZ
    Blend: AUG-CC-PVTZ
  Basis Set: (AUG-CC-PVTZ AUX)
    Blend: AUG-CC-PVTZ-JKFIT

    Orbital Energies [Eh]
    ---------------------

    Doubly Occupied:

       1A    -20.489144     2A    -15.637084     3A    -15.590520
       4A    -15.549084     5A    -11.368096     6A    -11.345049
       7A    -11.331708     8A    -11.277026     9A    -11.256203
      10A     -1.380037    11A     -1.280421    12A     -1.273721
      13A     -1.163745    14A     -1.079766    15A     -0.981424
      16A     -0.921759    17A     -0.844835    18A     -0.763076
      19A     -0.726969    20A     -0.691930    21A     -0.674360
      22A     -0.668657    23A     -0.622721    24A     -0.606439
      25A     -0.581557    26A     -0.576651    27A     -0.555152
      28A     -0.522024    29A     -0.464382    30A     -0.436615
      31A     -0.413025    32A     -0.388361    33A     -0.341185

  @DF-RHF Final Energy:  -431.78552003656426

   => Energetics <=

    Nuclear Repulsion Energy =            441.4962453872017818
    One-Electron Energy =               -1462.9580823670044083
    Two-Electron Energy =                 589.6763169432383620
    Total Energy =                       -431.7855200365643213
  Basis Set: (AUG-CC-PVTZ AUX)
    Blend: AUG-CC-PVTZ-RI
    Molecular point group: c1

    Geometry (in Angstrom), charge = 0, multiplicity = 1:

       Center              X                  Y                   Z               Mass
    ------------   -----------------  -----------------  -----------------  -----------------
         O           -1.429893880365     1.815192791068    -0.005063213351    15.994914619570
         N           -1.123203880365    -0.464220208932     0.009909786649    14.003074004430
         N            0.737365119635     1.033359791068     0.012963786649    14.003074004430
         N            2.886384119635     0.223644791068    -0.072582213351    14.003074004430
         C           -0.278924880365    -1.533970208932     0.002622786649    12.000000000000
         C            1.070974119635    -1.368011208932    -0.000641213351    12.000000000000
         C           -0.673467180365     0.778987691068     0.018290886649    12.000000000000
         C           -2.567297880365    -0.688631208932     0.003918786649    12.000000000000
         C            1.532092119635    -0.013199208932     0.003196786649    12.000000000000
         H           -0.757795880365    -2.509924208932    -0.006554213351     1.007825032230
         H            1.749796119635    -2.212971208932    -0.027989213351     1.007825032230
         H           -2.869059880365    -1.248450208932     0.892610786649     1.007825032230
         H           -2.863953880365    -1.235194208932    -0.894661213351     1.007825032230
         H           -3.031874880365     0.294195791068     0.010351786649     1.007825032230
         H            3.497155119635    -0.464227208932     0.350175786649     1.007825032230
         H            3.139815119635     1.187617791068     0.120987786649     1.007825032230

  Basis Set: AUG-CC-PVTZ
    Blend: AUG-CC-PVTZ
  Basis Set: (AUG-CC-PVTZ AUX)
    Blend: AUG-CC-PVTZ-JKFIT
	 Reference Energy          =    -431.7855200365642645 [Eh]
	 Singles Energy            =      -0.0000000000000000 [Eh]
	 Same-Spin Energy          =      -0.4512567469763787 [Eh]
	 Opposite-Spin Energy      =      -1.3748862292390807 [Eh]
	 Correlation Energy        =      -1.8261429762154593 [Eh]
	 Total Energy              =    -433.6116630127797293 [Eh]

	 ================> DF-SCS-MP2 Energies <==================
	-----------------------------------------------------------
	 SCS Same-Spin Scale       =       0.3333333333333333 [-]
	 SCS Opposite-Spin Scale   =       1.2000000000000000 [-]
	 SCS Same-Spin Energy      =      -0.1504189156587929 [Eh]
	 SCS Opposite-Spin Energy  =      -1.6498634750868968 [Eh]
	 SCS Correlation Energy    =      -1.8002823907456897 [Eh]
	 SCS Total Energy          =    -433.5858024273099431 [Eh]
	-----------------------------------------------------------

  Dipole Moment: [D]
     X:     1.7380      Y:    -6.2937      Z:     0.8363     Total:     6.5826

*** Psi4 exiting successfully. Buy a developer a beer!
