                               Psi4 1.3.2 release

  ==> Input File <==

--------------------------------------------------------------------------
#psi4
#
memory 32 gb

molecule  {
0 1
  O       -1.4243350     1.8531120    -0.0084660
  N       -1.1176450    -0.4263010     0.0065070
  N        0.7429240     1.0712790     0.0095610
  N        2.8919430     0.2615640    -0.0759850
  C       -0.2733660    -1.4960510    -0.0007800
  C        1.0765330    -1.3300920    -0.0040440
  C       -0.6338910     0.9109410     0.0155220
  C       -2.5617390    -0.6507120     0.0005160
  C        1.5420967     0.0043324     0.0117148
  H       -0.7522370    -2.4720050    -0.0099570
  H        1.7553550    -2.1750520    -0.0313920
  H       -2.8635010    -1.2105310     0.8892080
  H       -2.8583950    -1.1972750    -0.8980640
  H       -3.0263160     0.3321150     0.0069490
  H        3.4885465    -0.4357222     0.3515541
  H        3.1453740     1.2255370     0.1175850
units angstrom
no_reorient  #important for SAPT in psi4, default
symmetry c1  #important for SAPT in psi4, default
}

set PROPERTIES_ORIGIN ["COM"]
properties('MP2/aug-cc-pvtz', properties = ['dipole'])
--------------------------------------------------------------------------

    Molecular point group: c1
  Charge       = 0
  Multiplicity = 1
  Basis Set: AUG-CC-PVTZ
    Blend: AUG-CC-PVTZ
  Basis Set: (AUG-CC-PVTZ AUX)
    Blend: AUG-CC-PVTZ-JKFIT

    Orbital Energies [Eh]
    ---------------------

    Doubly Occupied:

       1A    -20.501647     2A    -15.626764     3A    -15.592285
       4A    -15.543013     5A    -11.370264     6A    -11.349310
       7A    -11.329851     8A    -11.270874     9A    -11.245717
      10A     -1.381199    11A     -1.294998    12A     -1.266919
      13A     -1.166561    14A     -1.075597    15A     -0.966093
      16A     -0.901726    17A     -0.851278    18A     -0.759767
      19A     -0.724527    20A     -0.683678    21A     -0.674161
      22A     -0.655513    23A     -0.623978    24A     -0.603239
      25A     -0.590931    26A     -0.578445    27A     -0.559410
      28A     -0.521909    29A     -0.476340    30A     -0.439424
      31A     -0.418957    32A     -0.385839    33A     -0.339376

  @DF-RHF Final Energy:  -431.79927950475565

   => Energetics <=

    Nuclear Repulsion Energy =            440.8496150355416603
    One-Electron Energy =               -1461.7586151851555769
    Two-Electron Energy =                 589.1097206448582710
    Total Energy =                       -431.7992795047556456
  Basis Set: (AUG-CC-PVTZ AUX)
    Blend: AUG-CC-PVTZ-RI
    Molecular point group: c1

    Geometry (in Angstrom), charge = 0, multiplicity = 1:

       Center              X                  Y                   Z               Mass
    ------------   -----------------  -----------------  -----------------  -----------------
         O           -1.433470415873     1.808201924759    -0.006306426729    15.994914619570
         N           -1.126780415873    -0.471211075241     0.008666573271    14.003074004430
         N            0.733788584127     1.026368924759     0.011720573271    14.003074004430
         N            2.882807584127     0.216653924759    -0.073825426729    14.003074004430
         C           -0.282501415873    -1.540961075241     0.001379573271    12.000000000000
         C            1.067397584127    -1.375002075241    -0.001884426729    12.000000000000
         C           -0.643026415873     0.866030924759     0.017681573271    12.000000000000
         C           -2.570874415873    -0.695622075241     0.002675573271    12.000000000000
         C            1.532961284127    -0.040577675241     0.013874373271    12.000000000000
         H           -0.761372415873    -2.516915075241    -0.007797426729     1.007825032230
         H            1.746219584127    -2.219962075241    -0.029232426729     1.007825032230
         H           -2.872636415873    -1.255441075241     0.891367573271     1.007825032230
         H           -2.867530415873    -1.242185075241    -0.895904426729     1.007825032230
         H           -3.035451415873     0.287204924759     0.009108573271     1.007825032230
         H            3.479411084127    -0.480632275241     0.353713673271     1.007825032230
         H            3.136238584127     1.180626924759     0.119744573271     1.007825032230

  Basis Set: AUG-CC-PVTZ
    Blend: AUG-CC-PVTZ
  Basis Set: (AUG-CC-PVTZ AUX)
    Blend: AUG-CC-PVTZ-JKFIT
	 Reference Energy          =    -431.7992795047556456 [Eh]
	 Singles Energy            =      -0.0000000000000000 [Eh]
	 Same-Spin Energy          =      -0.4508467455409149 [Eh]
	 Opposite-Spin Energy      =      -1.3727350536960150 [Eh]
	 Correlation Energy        =      -1.8235817992369299 [Eh]
	 Total Energy              =    -433.6228613039925790 [Eh]

	 ================> DF-SCS-MP2 Energies <==================
	-----------------------------------------------------------
	 SCS Same-Spin Scale       =       0.3333333333333333 [-]
	 SCS Opposite-Spin Scale   =       1.2000000000000000 [-]
	 SCS Same-Spin Energy      =      -0.1502822485136383 [Eh]
	 SCS Opposite-Spin Energy  =      -1.6472820644352180 [Eh]
	 SCS Correlation Energy    =      -1.7975643129488563 [Eh]
	 SCS Total Energy          =    -433.5968438177044959 [Eh]
	-----------------------------------------------------------

  Dipole Moment: [D]
     X:     1.6885      Y:    -5.7292      Z:     0.8436     Total:     6.0321

*** Psi4 exiting successfully. Buy a developer a beer!
