                               Psi4 1.3.2 release

  ==> Input File <==

--------------------------------------------------------------------------
#psi4
#
memory 32 gb

molecule  {
0 1
  O       -1.4243350     1.8531120    -0.0084660
  N       -1.1176450    -0.4263010     0.0065070
  N        0.7429240     1.0712790     0.0095610
  N        2.8919430     0.2615640    -0.0759850
  C       -0.2921646    -1.5106218    -0.0009626
  C        1.0765330    -1.3300920    -0.0040440
  C       -0.6338910     0.9109410     0.0155220
  C       -2.5576018    -0.6758799     0.0003013
  C        1.5376510     0.0247200    -0.0002060
  H       -0.7522370    -2.4720050    -0.0099570
  H        1.7553550    -2.1750520    -0.0313920
  H       -2.8635010    -1.2105310     0.8892080
  H       -2.8583950    -1.1972750    -0.8980640
  H       -3.0263160     0.3321150     0.0069490
  H        3.5027140    -0.4263080     0.3467730
  H        3.1453740     1.2255370     0.1175850
units angstrom
no_reorient  #important for SAPT in psi4, default
symmetry c1  #important for SAPT in psi4, default
}

set PROPERTIES_ORIGIN ["COM"]
properties('MP2/aug-cc-pvtz', properties = ['dipole'])
--------------------------------------------------------------------------

    Molecular point group: c1
  Charge       = 0
  Multiplicity = 1
  Basis Set: AUG-CC-PVTZ
    Blend: AUG-CC-PVTZ
  Basis Set: (AUG-CC-PVTZ AUX)
    Blend: AUG-CC-PVTZ-JKFIT

    Orbital Energies [Eh]
    ---------------------

    Doubly Occupied:

       1A    -20.504057     2A    -15.626708     3A    -15.590984
       4A    -15.543625     5A    -11.373347     6A    -11.348872
       7A    -11.328767     8A    -11.270090     9A    -11.247337
      10A     -1.382692    11A     -1.295767    12A     -1.267997
      13A     -1.170591    14A     -1.067902    15A     -0.964971
      16A     -0.903150    17A     -0.852582    18A     -0.757594
      19A     -0.725554    20A     -0.685620    21A     -0.676415
      22A     -0.658211    23A     -0.622743    24A     -0.603125
      25A     -0.591897    26A     -0.581847    27A     -0.549874
      28A     -0.522729    29A     -0.475804    30A     -0.440685
      31A     -0.420632    32A     -0.387808    33A     -0.336724

  @DF-RHF Final Energy:  -431.79825052010295

   => Energetics <=

    Nuclear Repulsion Energy =            440.5135139342181674
    One-Electron Energy =               -1461.0701294156147014
    Two-Electron Energy =                 588.7583649612936370
    Total Energy =                       -431.7982505201028971
  Basis Set: (AUG-CC-PVTZ AUX)
    Blend: AUG-CC-PVTZ-RI
    Molecular point group: c1

    Geometry (in Angstrom), charge = 0, multiplicity = 1:

       Center              X                  Y                   Z               Mass
    ------------   -----------------  -----------------  -----------------  -----------------
         O           -1.431751171433     1.809982888069    -0.005085916252    15.994914619570
         N           -1.125061171433    -0.469430111931     0.009887083748    14.003074004430
         N            0.735507828567     1.028149888069     0.012941083748    14.003074004430
         N            2.884526828567     0.218434888069    -0.072604916252    14.003074004430
         C           -0.299580771433    -1.553750911931     0.002417483748    12.000000000000
         C            1.069116828567    -1.373221111931    -0.000663916252    12.000000000000
         C           -0.641307171433     0.867811888069     0.018902083748    12.000000000000
         C           -2.565017971433    -0.719009011931     0.003681383748    12.000000000000
         C            1.530234828567    -0.018409111931     0.003174083748    12.000000000000
         H           -0.759653171433    -2.515134111931    -0.006576916252     1.007825032230
         H            1.747938828567    -2.218181111931    -0.028011916252     1.007825032230
         H           -2.870917171433    -1.253660111931     0.892588083748     1.007825032230
         H           -2.865811171433    -1.240404111931    -0.894683916252     1.007825032230
         H           -3.033732171433     0.288985888069     0.010329083748     1.007825032230
         H            3.495297828567    -0.469437111931     0.350153083748     1.007825032230
         H            3.137957828567     1.182407888069     0.120965083748     1.007825032230

  Basis Set: AUG-CC-PVTZ
    Blend: AUG-CC-PVTZ
  Basis Set: (AUG-CC-PVTZ AUX)
    Blend: AUG-CC-PVTZ-JKFIT
	 Reference Energy          =    -431.7982505201029539 [Eh]
	 Singles Energy            =      -0.0000000000000000 [Eh]
	 Same-Spin Energy          =      -0.4507383064369122 [Eh]
	 Opposite-Spin Energy      =      -1.3728097923921712 [Eh]
	 Correlation Energy        =      -1.8235480988290833 [Eh]
	 Total Energy              =    -433.6217986189320186 [Eh]

	 ================> DF-SCS-MP2 Energies <==================
	-----------------------------------------------------------
	 SCS Same-Spin Scale       =       0.3333333333333333 [-]
	 SCS Opposite-Spin Scale   =       1.2000000000000000 [-]
	 SCS Same-Spin Energy      =      -0.1502461021456374 [Eh]
	 SCS Opposite-Spin Energy  =      -1.6473717508706054 [Eh]
	 SCS Correlation Energy    =      -1.7976178530162428 [Eh]
	 SCS Total Energy          =    -433.5958683731191741 [Eh]
	-----------------------------------------------------------

  Dipole Moment: [D]
     X:     1.6723      Y:    -5.6423      Z:     0.8322     Total:     5.9434

*** Psi4 exiting successfully. Buy a developer a beer!
