                               Psi4 1.4a3.dev225

  ==> Input File <==

--------------------------------------------------------------------------
#psi4
#
memory 32 gb

molecule  {
0 1
  O       -1.4602810    -1.8042760    -0.0008590
  N       -1.1067000     0.4494610     0.0014260
  N        0.7338450    -1.0777760     0.0056990
  N        2.8872480    -0.2944040    -0.0665390
  C       -0.2576190     1.5082170    -0.0002850
  C        1.0914800     1.3228940    -0.0047970
  C       -0.5979730    -0.8584826    -0.0015073
  C       -2.5563510     0.6193970     0.0049040
  C        1.5404980    -0.0347530    -0.0000590
  H       -0.7147670     2.4940890    -0.0022110
  H        1.7746080     2.1637920    -0.0246520
  H       -2.7835150     1.6863950     0.0041520
  H       -2.9802500     0.1433220     0.8903410
  H       -2.9840040     0.1411790    -0.8774920
  H        3.5206970     0.4000120     0.3068300
  H        3.1306380    -1.2574880     0.1361150
units angstrom
no_reorient  #important for SAPT in psi4, default
symmetry c1  #important for SAPT in psi4, default
}

set PROPERTIES_ORIGIN ["COM"]
properties('MP2/aug-cc-pvtz', properties = ['dipole'])
--------------------------------------------------------------------------

    Molecular point group: c1
  Charge       = 0
  Multiplicity = 1
  Basis Set: AUG-CC-PVTZ
    Blend: AUG-CC-PVTZ
  Basis Set: (AUG-CC-PVTZ AUX)
    Blend: AUG-CC-PVTZ-JKFIT

    Orbital Energies [Eh]
    ---------------------

    Doubly Occupied:

       1A    -20.489010     2A    -15.631692     3A    -15.595564
       4A    -15.547071     5A    -11.366816     6A    -11.354108
       7A    -11.331632     8A    -11.275241     9A    -11.248190
      10A     -1.370915    11A     -1.284840    12A     -1.267969
      13A     -1.180530    14A     -1.075962    15A     -0.969897
      16A     -0.905106    17A     -0.860688    18A     -0.764285
      19A     -0.727582    20A     -0.690049    21A     -0.677118
      22A     -0.657657    23A     -0.620570    24A     -0.604053
      25A     -0.584027    26A     -0.578940    27A     -0.559772
      28A     -0.512558    29A     -0.473142    30A     -0.438456
      31A     -0.415589    32A     -0.387275    33A     -0.338325

  @DF-RHF Final Energy:  -431.79692127055938

   => Energetics <=

    Nuclear Repulsion Energy =            441.8615453684095087
    One-Electron Energy =               -1463.7476768840620025
    Two-Electron Energy =                 590.0892102450931134
    Total Energy =                       -431.7969212705594373
  Basis Set: (AUG-CC-PVTZ AUX)
    Blend: AUG-CC-PVTZ-RI
    Molecular point group: c1

    Geometry (in Angstrom), charge = 0, multiplicity = 1:

       Center              X                  Y                   Z               Mass
    ------------   -----------------  -----------------  -----------------  -----------------
         O           -1.471858559284    -1.762084583829     0.002580802696    15.994914619570
         N           -1.118277559284     0.491652416171     0.004865802696    14.003074004430
         N            0.722267440716    -1.035584583829     0.009138802696    14.003074004430
         N            2.875670440716    -0.252212583829    -0.063099197304    14.003074004430
         C           -0.269196559284     1.550408416171     0.003154802696    12.000000000000
         C            1.079902440716     1.365085416171    -0.001357197304    12.000000000000
         C           -0.609550559284    -0.816291183829     0.001932502696    12.000000000000
         C           -2.567928559284     0.661588416171     0.008343802696    12.000000000000
         C            1.528920440716     0.007438416171     0.003380802696    12.000000000000
         H           -0.726344559284     2.536280416171     0.001228802696     1.007825032230
         H            1.763030440716     2.205983416171    -0.021212197304     1.007825032230
         H           -2.795092559284     1.728586416171     0.007591802696     1.007825032230
         H           -2.991827559284     0.185513416171     0.893780802696     1.007825032230
         H           -2.995581559284     0.183370416171    -0.874052197304     1.007825032230
         H            3.509119440716     0.442203416171     0.310269802696     1.007825032230
         H            3.119060440716    -1.215296583829     0.139554802696     1.007825032230

  Basis Set: AUG-CC-PVTZ
    Blend: AUG-CC-PVTZ
  Basis Set: (AUG-CC-PVTZ AUX)
    Blend: AUG-CC-PVTZ-JKFIT
	 Reference Energy          =    -431.7969212705593804 [Eh]
	 Singles Energy            =      -0.0000000000000000 [Eh]
	 Same-Spin Energy          =      -0.4512452309448623 [Eh]
	 Opposite-Spin Energy      =      -1.3732180769008118 [Eh]
	 Correlation Energy        =      -1.8244633078456740 [Eh]
	 Total Energy              =    -433.6213845784050704 [Eh]

	 ================> DF-SCS-MP2 Energies <==================
	-----------------------------------------------------------
	 SCS Same-Spin Scale       =       0.3333333333333333 [-]
	 SCS Opposite-Spin Scale   =       1.2000000000000000 [-]
	 SCS Same-Spin Energy      =      -0.1504150769816208 [Eh]
	 SCS Opposite-Spin Energy  =      -1.6478616922809741 [Eh]
	 SCS Correlation Energy    =      -1.7982767692625949 [Eh]
	 SCS Total Energy          =    -433.5951980398219803 [Eh]
	-----------------------------------------------------------

  Dipole Moment: [D]
     X:     2.1586      Y:     5.9982      Z:     0.7700     Total:     6.4211

*** Psi4 exiting successfully. Buy a developer a beer!
