                               Psi4 1.3.2 release

  ==> Input File <==

--------------------------------------------------------------------------
#psi4
#
memory 32 gb

molecule  {
0 1
  O       -1.4243350     1.8531120    -0.0084660
  N       -1.1176450    -0.4263010     0.0065070
  N        0.7429240     1.0712790     0.0095610
  N        2.8919430     0.2615640    -0.0759850
  C       -0.3353178    -1.4175546    -0.0002453
  C        1.0765330    -1.3300920    -0.0040440
  C       -0.6338910     0.9109410     0.0155220
  C       -2.5617390    -0.6507120     0.0005160
  C        1.5376510     0.0247200    -0.0002060
  H       -0.7522370    -2.4720050    -0.0099570
  H        1.7553550    -2.1750520    -0.0313920
  H       -2.8635010    -1.2105310     0.8892080
  H       -2.8583950    -1.1972750    -0.8980640
  H       -3.0263160     0.3321150     0.0069490
  H        3.5027140    -0.4263080     0.3467730
  H        3.1453740     1.2255370     0.1175850
units angstrom
no_reorient  #important for SAPT in psi4, default
symmetry c1  #important for SAPT in psi4, default
}

set PROPERTIES_ORIGIN ["COM"]
properties('MP2/aug-cc-pvtz', properties = ['dipole'])
--------------------------------------------------------------------------

    Molecular point group: c1
  Charge       = 0
  Multiplicity = 1
  Basis Set: AUG-CC-PVTZ
    Blend: AUG-CC-PVTZ
  Basis Set: (AUG-CC-PVTZ AUX)
    Blend: AUG-CC-PVTZ-JKFIT

    Orbital Energies [Eh]
    ---------------------

    Doubly Occupied:

       1A    -20.508618     2A    -15.637764     3A    -15.585026
       4A    -15.539838     5A    -11.376574     6A    -11.341966
       7A    -11.330944     8A    -11.279205     9A    -11.239195
      10A     -1.396884    11A     -1.317239    12A     -1.274169
      13A     -1.169455    14A     -1.058953    15A     -0.978029
      16A     -0.909310    17A     -0.852531    18A     -0.760497
      19A     -0.722681    20A     -0.689104    21A     -0.672681
      22A     -0.669342    23A     -0.624966    24A     -0.598528
      25A     -0.584052    26A     -0.582108    27A     -0.562787
      28A     -0.522633    29A     -0.489134    30A     -0.442441
      31A     -0.419047    32A     -0.387160    33A     -0.327323

  @DF-RHF Final Energy:  -431.78830039704224

   => Energetics <=

    Nuclear Repulsion Energy =            442.4530991315110100
    One-Electron Energy =               -1464.7824346039651573
    Two-Electron Energy =                 590.5410350754119690
    Total Energy =                       -431.7883003970422351
  Basis Set: (AUG-CC-PVTZ AUX)
    Blend: AUG-CC-PVTZ-RI
    Molecular point group: c1

    Geometry (in Angstrom), charge = 0, multiplicity = 1:

       Center              X                  Y                   Z               Mass
    ------------   -----------------  -----------------  -----------------  -----------------
         O           -1.427213431647     1.798637665414    -0.005175346104    15.994914619570
         N           -1.120523431647    -0.480775334586     0.009797653896    14.003074004430
         N            0.740045568353     1.016804665414     0.012851653896    14.003074004430
         N            2.889064568353     0.207089665414    -0.072694346104    14.003074004430
         C           -0.338196231647    -1.472028934586     0.003045353896    12.000000000000
         C            1.073654568353    -1.384566334586    -0.000753346104    12.000000000000
         C           -0.636769431647     0.856466665414     0.018812653896    12.000000000000
         C           -2.564617431647    -0.705186334586     0.003806653896    12.000000000000
         C            1.534772568353    -0.029754334586     0.003084653896    12.000000000000
         H           -0.755115431647    -2.526479334586    -0.006666346104     1.007825032230
         H            1.752476568353    -2.229526334586    -0.028101346104     1.007825032230
         H           -2.866379431647    -1.265005334586     0.892498653896     1.007825032230
         H           -2.861273431647    -1.251749334586    -0.894773346104     1.007825032230
         H           -3.029194431647     0.277640665414     0.010239653896     1.007825032230
         H            3.499835568353    -0.480782334586     0.350063653896     1.007825032230
         H            3.142495568353     1.171062665414     0.120875653896     1.007825032230

  Basis Set: AUG-CC-PVTZ
    Blend: AUG-CC-PVTZ
  Basis Set: (AUG-CC-PVTZ AUX)
    Blend: AUG-CC-PVTZ-JKFIT
	 Reference Energy          =    -431.7883003970422351 [Eh]
	 Singles Energy            =      -0.0000000000000000 [Eh]
	 Same-Spin Energy          =      -0.4511814999503218 [Eh]
	 Opposite-Spin Energy      =      -1.3719653917307884 [Eh]
	 Correlation Energy        =      -1.8231468916811102 [Eh]
	 Total Energy              =    -433.6114472887233546 [Eh]

	 ================> DF-SCS-MP2 Energies <==================
	-----------------------------------------------------------
	 SCS Same-Spin Scale       =       0.3333333333333333 [-]
	 SCS Opposite-Spin Scale   =       1.2000000000000000 [-]
	 SCS Same-Spin Energy      =      -0.1503938333167739 [Eh]
	 SCS Opposite-Spin Energy  =      -1.6463584700769460 [Eh]
	 SCS Correlation Energy    =      -1.7967523033937201 [Eh]
	 SCS Total Energy          =    -433.5850527004359378 [Eh]
	-----------------------------------------------------------

  Dipole Moment: [D]
     X:     1.1713      Y:    -5.5250      Z:     0.8311     Total:     5.7086

*** Psi4 exiting successfully. Buy a developer a beer!
