                               Psi4 1.3.2 release

  ==> Input File <==

--------------------------------------------------------------------------
#psi4
#
memory 32 gb

molecule  {
0 1
  O       -1.4243350     1.8531120    -0.0084660
  N       -1.1176450    -0.4263010     0.0065070
  N        0.7986769     1.1113921     0.0055526
  N        2.8775969     0.3321972    -0.0773232
  C       -0.2733660    -1.4960510    -0.0007800
  C        1.0765330    -1.3300920    -0.0040440
  C       -0.6338910     0.9109410     0.0155220
  C       -2.5617390    -0.6507120     0.0005160
  C        1.5376510     0.0247200    -0.0002060
  H       -0.7522370    -2.4720050    -0.0099570
  H        1.7553550    -2.1750520    -0.0313920
  H       -2.8635010    -1.2105310     0.8892080
  H       -2.8583950    -1.1972750    -0.8980640
  H       -3.0263160     0.3321150     0.0069490
  H        3.5027140    -0.4263080     0.3467730
  H        3.1453740     1.2255370     0.1175850
units angstrom
no_reorient  #important for SAPT in psi4, default
symmetry c1  #important for SAPT in psi4, default
}

set PROPERTIES_ORIGIN ["COM"]
properties('MP2/aug-cc-pvtz', properties = ['dipole'])
--------------------------------------------------------------------------

    Molecular point group: c1
  Charge       = 0
  Multiplicity = 1
  Basis Set: AUG-CC-PVTZ
    Blend: AUG-CC-PVTZ
  Basis Set: (AUG-CC-PVTZ AUX)
    Blend: AUG-CC-PVTZ-JKFIT

    Orbital Energies [Eh]
    ---------------------

    Doubly Occupied:

       1A    -20.509117     2A    -15.628687     3A    -15.584851
       4A    -15.548350     5A    -11.376772     6A    -11.344389
       7A    -11.330063     8A    -11.273029     9A    -11.249736
      10A     -1.382249    11A     -1.296613    12A     -1.269681
      13A     -1.156434    14A     -1.074738    15A     -0.965908
      16A     -0.903879    17A     -0.843016    18A     -0.756137
      19A     -0.726092    20A     -0.688448    21A     -0.659050
      22A     -0.654301    23A     -0.628085    24A     -0.605357
      25A     -0.588052    26A     -0.576305    27A     -0.561021
      28A     -0.521537    29A     -0.477656    30A     -0.451110
      31A     -0.418555    32A     -0.383461    33A     -0.340280

  @DF-RHF Final Energy:  -431.78661176675928

   => Energetics <=

    Nuclear Repulsion Energy =            439.6415185186235703
    One-Electron Energy =               -1459.3103445768720121
    Two-Electron Energy =                 587.8822142914891629
    Total Energy =                       -431.7866117667592789
  Basis Set: (AUG-CC-PVTZ AUX)
    Blend: AUG-CC-PVTZ-RI
    Molecular point group: c1

    Geometry (in Angstrom), charge = 0, multiplicity = 1:

       Center              X                  Y                   Z               Mass
    ------------   -----------------  -----------------  -----------------  -----------------
         O           -1.437794397569     1.793769305170    -0.004525370550    15.994914619570
         N           -1.131104397569    -0.485643694830     0.010447629450    14.003074004430
         N            0.785217502431     1.052049405170     0.009493229450    14.003074004430
         N            2.864137502431     0.272854505170    -0.073382570550    14.003074004430
         C           -0.286825397569    -1.555393694830     0.003160629450    12.000000000000
         C            1.063073602431    -1.389434694830    -0.000103370550    12.000000000000
         C           -0.647350397569     0.851598305170     0.019462629450    12.000000000000
         C           -2.575198397569    -0.710054694830     0.004456629450    12.000000000000
         C            1.524191602431    -0.034622694830     0.003734629450    12.000000000000
         H           -0.765696397569    -2.531347694830    -0.006016370550     1.007825032230
         H            1.741895602431    -2.234394694830    -0.027451370550     1.007825032230
         H           -2.876960397569    -1.269873694830     0.893148629450     1.007825032230
         H           -2.871854397569    -1.256617694830    -0.894123370550     1.007825032230
         H           -3.039775397569     0.272772305170     0.010889629450     1.007825032230
         H            3.489254602431    -0.485650694830     0.350713629450     1.007825032230
         H            3.131914602431     1.166194305170     0.121525629450     1.007825032230

  Basis Set: AUG-CC-PVTZ
    Blend: AUG-CC-PVTZ
  Basis Set: (AUG-CC-PVTZ AUX)
    Blend: AUG-CC-PVTZ-JKFIT
	 Reference Energy          =    -431.7866117667592789 [Eh]
	 Singles Energy            =      -0.0000000000000000 [Eh]
	 Same-Spin Energy          =      -0.4503837600134734 [Eh]
	 Opposite-Spin Energy      =      -1.3738883891942928 [Eh]
	 Correlation Energy        =      -1.8242721492077663 [Eh]
	 Total Energy              =    -433.6108839159670651 [Eh]

	 ================> DF-SCS-MP2 Energies <==================
	-----------------------------------------------------------
	 SCS Same-Spin Scale       =       0.3333333333333333 [-]
	 SCS Opposite-Spin Scale   =       1.2000000000000000 [-]
	 SCS Same-Spin Energy      =      -0.1501279200044911 [Eh]
	 SCS Opposite-Spin Energy  =      -1.6486660670331512 [Eh]
	 SCS Correlation Energy    =      -1.7987939870376424 [Eh]
	 SCS Total Energy          =    -433.5854057537969197 [Eh]
	-----------------------------------------------------------

  Dipole Moment: [D]
     X:     1.3824      Y:    -5.7111      Z:     0.8271     Total:     5.9339

*** Psi4 exiting successfully. Buy a developer a beer!
