                               Psi4 1.4a3.dev225

  ==> Input File <==

--------------------------------------------------------------------------
#psi4
#
memory 32 gb

molecule  {
0 1
  O       -1.4602810    -1.8042760    -0.0008590
  N       -1.1067000     0.4494610     0.0014260
  N        0.7338450    -1.0777760     0.0056990
  N        2.8872480    -0.2944040    -0.0665390
  C       -0.2701315     1.4926146    -0.0002598
  C        1.0914800     1.3228940    -0.0047970
  C       -0.6316600    -0.8954310    -0.0014820
  C       -2.5563510     0.6193970     0.0049040
  C        1.5404980    -0.0347530    -0.0000590
  H       -0.7147670     2.4940890    -0.0022110
  H        1.7746080     2.1637920    -0.0246520
  H       -2.7835150     1.6863950     0.0041520
  H       -2.9802500     0.1433220     0.8903410
  H       -2.9840040     0.1411790    -0.8774920
  H        3.5206970     0.4000120     0.3068300
  H        3.1306380    -1.2574880     0.1361150
units angstrom
no_reorient  #important for SAPT in psi4, default
symmetry c1  #important for SAPT in psi4, default
}

set PROPERTIES_ORIGIN ["COM"]
properties('MP2/aug-cc-pvtz', properties = ['dipole'])
--------------------------------------------------------------------------

    Molecular point group: c1
  Charge       = 0
  Multiplicity = 1
  Basis Set: AUG-CC-PVTZ
    Blend: AUG-CC-PVTZ
  Basis Set: (AUG-CC-PVTZ AUX)
    Blend: AUG-CC-PVTZ-JKFIT

    Orbital Energies [Eh]
    ---------------------

    Doubly Occupied:

       1A    -20.503838     2A    -15.628739     3A    -15.590320
       4A    -15.541777     5A    -11.370072     6A    -11.348091
       7A    -11.328952     8A    -11.275263     9A    -11.242072
      10A     -1.385425    11A     -1.297919    12A     -1.270760
      13A     -1.171446    14A     -1.069692    15A     -0.967676
      16A     -0.899907    17A     -0.855482    18A     -0.759943
      19A     -0.723946    20A     -0.687070    21A     -0.673647
      22A     -0.658195    23A     -0.622806    24A     -0.598182
      25A     -0.591555    26A     -0.576643    27A     -0.567709
      28A     -0.517330    29A     -0.482623    30A     -0.442783
      31A     -0.418518    32A     -0.385054    33A     -0.335330

  @DF-RHF Final Energy:  -431.80302348427966

   => Energetics <=

    Nuclear Repulsion Energy =            441.8774354872929848
    One-Electron Energy =               -1463.7833886235302998
    Two-Electron Energy =                 590.1029296519576519
    Total Energy =                       -431.8030234842796062
  Basis Set: (AUG-CC-PVTZ AUX)
    Blend: AUG-CC-PVTZ-RI
    Molecular point group: c1

    Geometry (in Angstrom), charge = 0, multiplicity = 1:

       Center              X                  Y                   Z               Mass
    ------------   -----------------  -----------------  -----------------  -----------------
         O           -1.467425496563    -1.757042083534     0.002575956979    15.994914619570
         N           -1.113844496563     0.496694916466     0.004860956979    14.003074004430
         N            0.726700503437    -1.030542083534     0.009133956979    14.003074004430
         N            2.880103503437    -0.247170083534    -0.063104043021    14.003074004430
         C           -0.277275996563     1.539848516466     0.003175156979    12.000000000000
         C            1.084335503437     1.370127916466    -0.001362043021    12.000000000000
         C           -0.638804496563    -0.848197083534     0.001952956979    12.000000000000
         C           -2.563495496563     0.666630916466     0.008338956979    12.000000000000
         C            1.533353503437     0.012480916466     0.003375956979    12.000000000000
         H           -0.721911496563     2.541322916466     0.001223956979     1.007825032230
         H            1.767463503437     2.211025916466    -0.021217043021     1.007825032230
         H           -2.790659496563     1.733628916466     0.007586956979     1.007825032230
         H           -2.987394496563     0.190555916466     0.893775956979     1.007825032230
         H           -2.991148496563     0.188412916466    -0.874057043021     1.007825032230
         H            3.513552503437     0.447245916466     0.310264956979     1.007825032230
         H            3.123493503437    -1.210254083534     0.139549956979     1.007825032230

  Basis Set: AUG-CC-PVTZ
    Blend: AUG-CC-PVTZ
  Basis Set: (AUG-CC-PVTZ AUX)
    Blend: AUG-CC-PVTZ-JKFIT
	 Reference Energy          =    -431.8030234842796631 [Eh]
	 Singles Energy            =      -0.0000000000000000 [Eh]
	 Same-Spin Energy          =      -0.4505391289732888 [Eh]
	 Opposite-Spin Energy      =      -1.3717699173879356 [Eh]
	 Correlation Energy        =      -1.8223090463612244 [Eh]
	 Total Energy              =    -433.6253325306408897 [Eh]

	 ================> DF-SCS-MP2 Energies <==================
	-----------------------------------------------------------
	 SCS Same-Spin Scale       =       0.3333333333333333 [-]
	 SCS Opposite-Spin Scale   =       1.2000000000000000 [-]
	 SCS Same-Spin Energy      =      -0.1501797096577629 [Eh]
	 SCS Opposite-Spin Energy  =      -1.6461239008655226 [Eh]
	 SCS Correlation Energy    =      -1.7963036105232855 [Eh]
	 SCS Total Energy          =    -433.5993270948029590 [Eh]
	-----------------------------------------------------------

  Dipole Moment: [D]
     X:     1.6987      Y:     5.5867      Z:     0.7689     Total:     5.8897

*** Psi4 exiting successfully. Buy a developer a beer!
