                               Psi4 1.3.2 release

  ==> Input File <==

--------------------------------------------------------------------------
#psi4
#
memory 32 gb

molecule  {
0 1
  O       -1.4325244     1.8461752    -0.0086651
  N       -1.1292916    -0.4220280     0.0061820
  N        0.7429240     1.0712790     0.0095610
  N        2.8919430     0.2615640    -0.0759850
  C       -0.2733660    -1.4960510    -0.0007800
  C        1.0765330    -1.3300920    -0.0040440
  C       -0.6338910     0.9109410     0.0155220
  C       -2.5617390    -0.6507120     0.0005160
  C        1.5376510     0.0247200    -0.0002060
  H       -0.7522370    -2.4720050    -0.0099570
  H        1.7553550    -2.1750520    -0.0313920
  H       -2.8635010    -1.2105310     0.8892080
  H       -2.8583950    -1.1972750    -0.8980640
  H       -3.0263160     0.3321150     0.0069490
  H        3.5027140    -0.4263080     0.3467730
  H        3.1453740     1.2255370     0.1175850
units angstrom
no_reorient  #important for SAPT in psi4, default
symmetry c1  #important for SAPT in psi4, default
}

set PROPERTIES_ORIGIN ["COM"]
properties('MP2/aug-cc-pvtz', properties = ['dipole'])
--------------------------------------------------------------------------

    Molecular point group: c1
  Charge       = 0
  Multiplicity = 1
  Basis Set: AUG-CC-PVTZ
    Blend: AUG-CC-PVTZ
  Basis Set: (AUG-CC-PVTZ AUX)
    Blend: AUG-CC-PVTZ-JKFIT

    Orbital Energies [Eh]
    ---------------------

    Doubly Occupied:

       1A    -20.502860     2A    -15.624328     3A    -15.592405
       4A    -15.544577     5A    -11.372041     6A    -11.350348
       7A    -11.327976     8A    -11.268600     9A    -11.247220
      10A     -1.382412    11A     -1.295109    12A     -1.266917
      13A     -1.171662    14A     -1.073418    15A     -0.965138
      16A     -0.898367    17A     -0.853371    18A     -0.759069
      19A     -0.723298    20A     -0.686848    21A     -0.674775
      22A     -0.655293    23A     -0.622080    24A     -0.602717
      25A     -0.593398    26A     -0.579763    27A     -0.556680
      28A     -0.521846    29A     -0.474199    30A     -0.441256
      31A     -0.419954    32A     -0.388433    33A     -0.339626

  @DF-RHF Final Energy:  -431.80066753149072

   => Energetics <=

    Nuclear Repulsion Energy =            440.8671788936716212
    One-Electron Energy =               -1461.7837233440366163
    Two-Electron Energy =                 589.1158769188742781
    Total Energy =                       -431.8006675314907170
  Basis Set: (AUG-CC-PVTZ AUX)
    Blend: AUG-CC-PVTZ-RI
    Molecular point group: c1

    Geometry (in Angstrom), charge = 0, multiplicity = 1:

       Center              X                  Y                   Z               Mass
    ------------   -----------------  -----------------  -----------------  -----------------
         O           -1.438995895410     1.799641724436    -0.005261283544    15.994914619570
         N           -1.135763095410    -0.468561475564     0.009585816456    14.003074004430
         N            0.736452504590     1.024745524436     0.012964816456    14.003074004430
         N            2.885471504590     0.215030524436    -0.072581183544    14.003074004430
         C           -0.279837495410    -1.542584475564     0.002623816456    12.000000000000
         C            1.070061504590    -1.376625475564    -0.000640183544    12.000000000000
         C           -0.640362495410     0.864407524436     0.018925816456    12.000000000000
         C           -2.568210495410    -0.697245475564     0.003919816456    12.000000000000
         C            1.531179504590    -0.021813475564     0.003197816456    12.000000000000
         H           -0.758708495410    -2.518538475564    -0.006553183544     1.007825032230
         H            1.748883504590    -2.221585475564    -0.027988183544     1.007825032230
         H           -2.869972495410    -1.257064475564     0.892611816456     1.007825032230
         H           -2.864866495410    -1.243808475564    -0.894660183544     1.007825032230
         H           -3.032787495410     0.285581524436     0.010352816456     1.007825032230
         H            3.496242504590    -0.472841475564     0.350176816456     1.007825032230
         H            3.138902504590     1.179003524436     0.120988816456     1.007825032230

  Basis Set: AUG-CC-PVTZ
    Blend: AUG-CC-PVTZ
  Basis Set: (AUG-CC-PVTZ AUX)
    Blend: AUG-CC-PVTZ-JKFIT
	 Reference Energy          =    -431.8006675314907170 [Eh]
	 Singles Energy            =      -0.0000000000000000 [Eh]
	 Same-Spin Energy          =      -0.4503594466755840 [Eh]
	 Opposite-Spin Energy      =      -1.3721835444438859 [Eh]
	 Correlation Energy        =      -1.8225429911194699 [Eh]
	 Total Energy              =    -433.6232105226101794 [Eh]

	 ================> DF-SCS-MP2 Energies <==================
	-----------------------------------------------------------
	 SCS Same-Spin Scale       =       0.3333333333333333 [-]
	 SCS Opposite-Spin Scale   =       1.2000000000000000 [-]
	 SCS Same-Spin Energy      =      -0.1501198155585280 [Eh]
	 SCS Opposite-Spin Energy  =      -1.6466202533326630 [Eh]
	 SCS Correlation Energy    =      -1.7967400688911910 [Eh]
	 SCS Total Energy          =    -433.5974076003819278 [Eh]
	-----------------------------------------------------------

  Dipole Moment: [D]
     X:     1.7916      Y:    -5.6228      Z:     0.8328     Total:     5.9598

*** Psi4 exiting successfully. Buy a developer a beer!
