                               Psi4 1.3.2 release

  ==> Input File <==

--------------------------------------------------------------------------
#psi4
#
memory 32 gb

molecule  {
0 1
  O       -1.4325294     1.8461810    -0.0082721
  N       -1.1176450    -0.4263010     0.0065070
  N        0.7442717     1.0592622     0.0098778
  N        2.8919430     0.2615640    -0.0759850
  C       -0.2733660    -1.4960510    -0.0007800
  C        1.0765330    -1.3300920    -0.0040440
  C       -0.6338910     0.9109410     0.0155220
  C       -2.5617390    -0.6507120     0.0005160
  C        1.5376510     0.0247200    -0.0002060
  H       -0.7522370    -2.4720050    -0.0099570
  H        1.7553550    -2.1750520    -0.0313920
  H       -2.8635010    -1.2105310     0.8892080
  H       -2.8583950    -1.1972750    -0.8980640
  H       -3.0263160     0.3321150     0.0069490
  H        3.5027140    -0.4263080     0.3467730
  H        3.1453740     1.2255370     0.1175850
units angstrom
no_reorient  #important for SAPT in psi4, default
symmetry c1  #important for SAPT in psi4, default
}

set PROPERTIES_ORIGIN ["COM"]
properties('MP2/aug-cc-pvtz', properties = ['dipole'])
--------------------------------------------------------------------------

    Molecular point group: c1
  Charge       = 0
  Multiplicity = 1
  Basis Set: AUG-CC-PVTZ
    Blend: AUG-CC-PVTZ
  Basis Set: (AUG-CC-PVTZ AUX)
    Blend: AUG-CC-PVTZ-JKFIT

    Orbital Energies [Eh]
    ---------------------

    Doubly Occupied:

       1A    -20.504909     2A    -15.624643     3A    -15.590831
       4A    -15.542953     5A    -11.373511     6A    -11.348001
       7A    -11.326349     8A    -11.269925     9A    -11.245233
      10A     -1.383587    11A     -1.297278    12A     -1.267571
      13A     -1.172437    14A     -1.072101    15A     -0.965426
      16A     -0.898789    17A     -0.854994    18A     -0.759205
      19A     -0.723900    20A     -0.685893    21A     -0.674070
      22A     -0.655466    23A     -0.622404    24A     -0.601675
      25A     -0.593139    26A     -0.580587    27A     -0.558684
      28A     -0.522210    29A     -0.476131    30A     -0.441873
      31A     -0.418965    32A     -0.389111    33A     -0.338885

  @DF-RHF Final Energy:  -431.80136071921152

   => Energetics <=

    Nuclear Repulsion Energy =            441.2193309577364744
    One-Electron Energy =               -1462.4799149696259519
    Two-Electron Energy =                 589.4592232926779616
    Total Energy =                       -431.8013607192115160
  Basis Set: (AUG-CC-PVTZ AUX)
    Blend: AUG-CC-PVTZ-RI
    Molecular point group: c1

    Geometry (in Angstrom), charge = 0, multiplicity = 1:

       Center              X                  Y                   Z               Mass
    ------------   -----------------  -----------------  -----------------  -----------------
         O           -1.440455251340     1.801470781180    -0.004990411381    15.994914619570
         N           -1.125570851340    -0.471011218820     0.009788688619    14.003074004430
         N            0.736345848660     1.014551981180     0.013159488619    14.003074004430
         N            2.884017148660     0.216853781180    -0.072703311381    14.003074004430
         C           -0.281291851340    -1.540761218820     0.002501688619    12.000000000000
         C            1.068607148660    -1.374802218820    -0.000762311381    12.000000000000
         C           -0.641816851340     0.866230781180     0.018803688619    12.000000000000
         C           -2.569664851340    -0.695422218820     0.003797688619    12.000000000000
         C            1.529725148660    -0.019990218820     0.003075688619    12.000000000000
         H           -0.760162851340    -2.516715218820    -0.006675311381     1.007825032230
         H            1.747429148660    -2.219762218820    -0.028110311381     1.007825032230
         H           -2.871426851340    -1.255241218820     0.892489688619     1.007825032230
         H           -2.866320851340    -1.241985218820    -0.894782311381     1.007825032230
         H           -3.034241851340     0.287404781180     0.010230688619     1.007825032230
         H            3.494788148660    -0.471018218820     0.350054688619     1.007825032230
         H            3.137448148660     1.180826781180     0.120866688619     1.007825032230

  Basis Set: AUG-CC-PVTZ
    Blend: AUG-CC-PVTZ
  Basis Set: (AUG-CC-PVTZ AUX)
    Blend: AUG-CC-PVTZ-JKFIT
	 Reference Energy          =    -431.8013607192115160 [Eh]
	 Singles Energy            =      -0.0000000000000000 [Eh]
	 Same-Spin Energy          =      -0.4503394755033800 [Eh]
	 Opposite-Spin Energy      =      -1.3719466818004602 [Eh]
	 Correlation Energy        =      -1.8222861573038402 [Eh]
	 Total Energy              =    -433.6236468765153518 [Eh]

	 ================> DF-SCS-MP2 Energies <==================
	-----------------------------------------------------------
	 SCS Same-Spin Scale       =       0.3333333333333333 [-]
	 SCS Opposite-Spin Scale   =       1.2000000000000000 [-]
	 SCS Same-Spin Energy      =      -0.1501131585011267 [Eh]
	 SCS Opposite-Spin Energy  =      -1.6463360181605522 [Eh]
	 SCS Correlation Energy    =      -1.7964491766616788 [Eh]
	 SCS Total Energy          =    -433.5978098958731835 [Eh]
	-----------------------------------------------------------

  Dipole Moment: [D]
     X:     1.6939      Y:    -5.5759      Z:     0.8330     Total:     5.8867

*** Psi4 exiting successfully. Buy a developer a beer!
