                               Psi4 1.4a3.dev225

  ==> Input File <==

--------------------------------------------------------------------------
#psi4
#
memory 32 gb

molecule  {
0 1
  O       -1.4602810    -1.8042760    -0.0008590
  N       -1.1067000     0.4494610     0.0014260
  N        0.7338450    -1.0777760     0.0056990
  N        2.8872480    -0.2944040    -0.0665390
  C       -0.2576190     1.5082170    -0.0002850
  C        1.0914800     1.3228940    -0.0047970
  C       -0.6316600    -0.8954310    -0.0014820
  C       -2.5563510     0.6193970     0.0049040
  C        1.5561981    -0.0822238     0.0001067
  H       -0.7147670     2.4940890    -0.0022110
  H        1.7746080     2.1637920    -0.0246520
  H       -2.7835150     1.6863950     0.0041520
  H       -2.9802500     0.1433220     0.8903410
  H       -2.9840040     0.1411790    -0.8774920
  H        3.5206970     0.4000120     0.3068300
  H        3.1306380    -1.2574880     0.1361150
units angstrom
no_reorient  #important for SAPT in psi4, default
symmetry c1  #important for SAPT in psi4, default
}

set PROPERTIES_ORIGIN ["COM"]
properties('MP2/aug-cc-pvtz', properties = ['dipole'])
--------------------------------------------------------------------------

    Molecular point group: c1
  Charge       = 0
  Multiplicity = 1
  Basis Set: AUG-CC-PVTZ
    Blend: AUG-CC-PVTZ
  Basis Set: (AUG-CC-PVTZ AUX)
    Blend: AUG-CC-PVTZ-JKFIT

    Orbital Energies [Eh]
    ---------------------

    Doubly Occupied:

       1A    -20.505499     2A    -15.621535     3A    -15.594961
       4A    -15.541607     5A    -11.371956     6A    -11.349829
       7A    -11.321821     8A    -11.271528     9A    -11.243722
      10A     -1.384082    11A     -1.299767    12A     -1.271451
      13A     -1.181253    14A     -1.063936    15A     -0.962054
      16A     -0.891996    17A     -0.859997    18A     -0.760577
      19A     -0.725532    20A     -0.693739    21A     -0.674445
      22A     -0.653855    23A     -0.617767    24A     -0.599503
      25A     -0.589892    26A     -0.579361    27A     -0.564564
      28A     -0.520355    29A     -0.479037    30A     -0.442085
      31A     -0.416619    32A     -0.388639    33A     -0.334544

  @DF-RHF Final Energy:  -431.80199156264905

   => Energetics <=

    Nuclear Repulsion Energy =            441.5449814893339635
    One-Electron Energy =               -1463.1389298606929970
    Two-Electron Energy =                 589.7919568087099833
    Total Energy =                       -431.8019915626490501
  Basis Set: (AUG-CC-PVTZ AUX)
    Blend: AUG-CC-PVTZ-RI
    Molecular point group: c1

    Geometry (in Angstrom), charge = 0, multiplicity = 1:

       Center              X                  Y                   Z               Mass
    ------------   -----------------  -----------------  -----------------  -----------------
         O           -1.470132630305    -1.753984158318     0.002562475333    15.994914619570
         N           -1.116551630305     0.499752841682     0.004847475333    14.003074004430
         N            0.723993369695    -1.027484158318     0.009120475333    14.003074004430
         N            2.877396369695    -0.244112158318    -0.063117524667    14.003074004430
         C           -0.267470630305     1.558508841682     0.003136475333    12.000000000000
         C            1.081628369695     1.373185841682    -0.001375524667    12.000000000000
         C           -0.641511630305    -0.845139158318     0.001939475333    12.000000000000
         C           -2.566202630305     0.669688841682     0.008325475333    12.000000000000
         C            1.546346469695    -0.031931958318     0.003528175333    12.000000000000
         H           -0.724618630305     2.544380841682     0.001210475333     1.007825032230
         H            1.764756369695     2.214083841682    -0.021230524667     1.007825032230
         H           -2.793366630305     1.736686841682     0.007573475333     1.007825032230
         H           -2.990101630305     0.193613841682     0.893762475333     1.007825032230
         H           -2.993855630305     0.191470841682    -0.874070524667     1.007825032230
         H            3.510845369695     0.450303841682     0.310251475333     1.007825032230
         H            3.120786369695    -1.207196158318     0.139536475333     1.007825032230

  Basis Set: AUG-CC-PVTZ
    Blend: AUG-CC-PVTZ
  Basis Set: (AUG-CC-PVTZ AUX)
    Blend: AUG-CC-PVTZ-JKFIT
	 Reference Energy          =    -431.8019915626490501 [Eh]
	 Singles Energy            =      -0.0000000000000000 [Eh]
	 Same-Spin Energy          =      -0.4496587413095269 [Eh]
	 Opposite-Spin Energy      =      -1.3710620625648988 [Eh]
	 Correlation Energy        =      -1.8207208038744258 [Eh]
	 Total Energy              =    -433.6227123665235013 [Eh]

	 ================> DF-SCS-MP2 Energies <==================
	-----------------------------------------------------------
	 SCS Same-Spin Scale       =       0.3333333333333333 [-]
	 SCS Opposite-Spin Scale   =       1.2000000000000000 [-]
	 SCS Same-Spin Energy      =      -0.1498862471031756 [Eh]
	 SCS Opposite-Spin Energy  =      -1.6452744750778785 [Eh]
	 SCS Correlation Energy    =      -1.7951607221810542 [Eh]
	 SCS Total Energy          =    -433.5971522848300879 [Eh]
	-----------------------------------------------------------

  Dipole Moment: [D]
     X:     2.0350      Y:     5.3761      Z:     0.7675     Total:     5.7994

*** Psi4 exiting successfully. Buy a developer a beer!
