                               Psi4 1.3.2 release

  ==> Input File <==

--------------------------------------------------------------------------
#psi4
#
memory 32 gb

molecule  {
0 1
  O       -1.4243350     1.8531120    -0.0084660
  N       -1.1176450    -0.4263010     0.0065070
  N        0.7429240     1.0712790     0.0095610
  N        2.8919430     0.2615640    -0.0759850
  C       -0.2733660    -1.4960510    -0.0007800
  C        1.0765330    -1.3300920    -0.0040440
  C       -0.5658564     1.0990093     0.0167899
  C       -2.5617390    -0.6507120     0.0005160
  C        1.5376510     0.0247200    -0.0002060
  H       -0.7522370    -2.4720050    -0.0099570
  H        1.7553550    -2.1750520    -0.0313920
  H       -2.8635010    -1.2105310     0.8892080
  H       -2.8583950    -1.1972750    -0.8980640
  H       -3.0263160     0.3321150     0.0069490
  H        3.5027140    -0.4263080     0.3467730
  H        3.1453740     1.2255370     0.1175850
units angstrom
no_reorient  #important for SAPT in psi4, default
symmetry c1  #important for SAPT in psi4, default
}

set PROPERTIES_ORIGIN ["COM"]
properties('MP2/aug-cc-pvtz', properties = ['dipole'])
--------------------------------------------------------------------------

    Molecular point group: c1
  Charge       = 0
  Multiplicity = 1
  Basis Set: AUG-CC-PVTZ
    Blend: AUG-CC-PVTZ
  Basis Set: (AUG-CC-PVTZ AUX)
    Blend: AUG-CC-PVTZ-JKFIT

    Orbital Energies [Eh]
    ---------------------

    Doubly Occupied:

       1A    -20.533698     2A    -15.593605     3A    -15.590996
       4A    -15.539781     5A    -11.381752     6A    -11.358290
       7A    -11.314109     8A    -11.255742     9A    -11.228053
      10A     -1.441342    11A     -1.301967    12A     -1.242047
      13A     -1.185575    14A     -1.059694    15A     -0.947000
      16A     -0.872949    17A     -0.856260    18A     -0.751280
      19A     -0.718320    20A     -0.679017    21A     -0.671959
      22A     -0.652970    23A     -0.639648    24A     -0.602091
      25A     -0.590183    26A     -0.582626    27A     -0.545778
      28A     -0.542078    29A     -0.470436    30A     -0.466716
      31A     -0.400661    32A     -0.395013    33A     -0.324985

  @DF-RHF Final Energy:  -431.77556136385027

   => Energetics <=

    Nuclear Repulsion Energy =            439.9911862366789705
    One-Electron Energy =               -1460.0602441542616816
    Two-Electron Energy =                 588.2934965537325525
    Total Energy =                       -431.7755613638502155
  Basis Set: (AUG-CC-PVTZ AUX)
    Blend: AUG-CC-PVTZ-RI
    Molecular point group: c1

    Geometry (in Angstrom), charge = 0, multiplicity = 1:

       Center              X                  Y                   Z               Mass
    ------------   -----------------  -----------------  -----------------  -----------------
         O           -1.439686247673     1.788123718183    -0.005245700146    15.994914619570
         N           -1.132996247673    -0.491289281817     0.009727299854    14.003074004430
         N            0.727572752327     1.006290718183     0.012781299854    14.003074004430
         N            2.876591752327     0.196575718183    -0.072764700146    14.003074004430
         C           -0.288717247673    -1.561039281817     0.002440299854    12.000000000000
         C            1.061181752327    -1.395080281817    -0.000823700146    12.000000000000
         C           -0.581207647673     1.034021018183     0.020010199854    12.000000000000
         C           -2.577090247673    -0.715700281817     0.003736299854    12.000000000000
         C            1.522299752327    -0.040268281817     0.003014299854    12.000000000000
         H           -0.767588247673    -2.536993281817    -0.006736700146     1.007825032230
         H            1.740003752327    -2.240040281817    -0.028171700146     1.007825032230
         H           -2.878852247673    -1.275519281817     0.892428299854     1.007825032230
         H           -2.873746247673    -1.262263281817    -0.894843700146     1.007825032230
         H           -3.041667247673     0.267126718183     0.010169299854     1.007825032230
         H            3.487362752327    -0.491296281817     0.349993299854     1.007825032230
         H            3.130022752327     1.160548718183     0.120805299854     1.007825032230

  Basis Set: AUG-CC-PVTZ
    Blend: AUG-CC-PVTZ
  Basis Set: (AUG-CC-PVTZ AUX)
    Blend: AUG-CC-PVTZ-JKFIT
	 Reference Energy          =    -431.7755613638502723 [Eh]
	 Singles Energy            =      -0.0000000000000000 [Eh]
	 Same-Spin Energy          =      -0.4509772970927666 [Eh]
	 Opposite-Spin Energy      =      -1.3713712859962919 [Eh]
	 Correlation Energy        =      -1.8223485830890584 [Eh]
	 Total Energy              =    -433.5979099469393532 [Eh]

	 ================> DF-SCS-MP2 Energies <==================
	-----------------------------------------------------------
	 SCS Same-Spin Scale       =       0.3333333333333333 [-]
	 SCS Opposite-Spin Scale   =       1.2000000000000000 [-]
	 SCS Same-Spin Energy      =      -0.1503257656975888 [Eh]
	 SCS Opposite-Spin Energy  =      -1.6456455431955501 [Eh]
	 SCS Correlation Energy    =      -1.7959713088931391 [Eh]
	 SCS Total Energy          =    -433.5715326727433876 [Eh]
	-----------------------------------------------------------

  Dipole Moment: [D]
     X:     1.6988      Y:    -4.1614      Z:     0.8254     Total:     4.5700

*** Psi4 exiting successfully. Buy a developer a beer!
