                               Psi4 1.3.2 release

  ==> Input File <==

--------------------------------------------------------------------------
#psi4
#
memory 32 gb

molecule  {
-1 1
  N       -0.3751540    -0.9909538     0.0000449
  N       -0.3348100     1.1274550     0.0000810
  N        0.9473750    -0.6741020    -0.0001810
  N        0.9473650     0.6741170    -0.0001350
  C       -1.0701170    -0.0000090     0.0001780
  H       -2.1552810    -0.0000190     0.0003550
units angstrom
no_reorient  #important for SAPT in psi4, default
symmetry c1  #important for SAPT in psi4, default
}

set PROPERTIES_ORIGIN ["COM"]
properties('MP2/aug-cc-pvtz', properties = ['dipole'])
--------------------------------------------------------------------------

    Molecular point group: c1
  Charge       = -1
  Multiplicity = 1
  Basis Set: AUG-CC-PVTZ
    Blend: AUG-CC-PVTZ
  Basis Set: (AUG-CC-PVTZ AUX)
    Blend: AUG-CC-PVTZ-JKFIT

    Orbital Energies [Eh]
    ---------------------

    Doubly Occupied:

       1A    -15.425727     2A    -15.415554     3A    -15.376422
       4A    -15.365036     5A    -11.068437     6A     -1.235708
       7A     -0.991230     8A     -0.939960     9A     -0.649279
      10A     -0.611103    11A     -0.493622    12A     -0.426434
      13A     -0.356377    14A     -0.267537    15A     -0.243689
      16A     -0.232077    17A     -0.201692    18A     -0.175450

  @DF-RHF Final Energy:  -256.27753001864630

   => Energetics <=

    Nuclear Repulsion Energy =            158.1029555810994509
    One-Electron Energy =                -669.8103032123311777
    Two-Electron Energy =                 255.4298176125854809
    Total Energy =                       -256.2775300186463028
  Basis Set: (AUG-CC-PVTZ AUX)
    Blend: AUG-CC-PVTZ-RI
    Molecular point group: c1

    Geometry (in Angstrom), charge = -1, multiplicity = 1:

       Center              X                  Y                   Z               Mass
    ------------   -----------------  -----------------  -----------------  -----------------
         N           -0.398001770178    -1.018648902148     0.000047337064    14.003074004430
         N           -0.357657770178     1.099759897852     0.000083437064    14.003074004430
         N            0.924527229822    -0.701797102148    -0.000178562936    14.003074004430
         N            0.924517229822     0.646421897852    -0.000132562936    14.003074004430
         C           -1.092964770178    -0.027704102148     0.000180437064    12.000000000000
         H           -2.178128770178    -0.027714102148     0.000357437064     1.007825032230

  Basis Set: AUG-CC-PVTZ
    Blend: AUG-CC-PVTZ
  Basis Set: (AUG-CC-PVTZ AUX)
    Blend: AUG-CC-PVTZ-JKFIT
	 Reference Energy          =    -256.2775300186463028 [Eh]
	 Singles Energy            =      -0.0000000000000000 [Eh]
	 Same-Spin Energy          =      -0.2843418683966009 [Eh]
	 Opposite-Spin Energy      =      -0.7942301839841350 [Eh]
	 Correlation Energy        =      -1.0785720523807358 [Eh]
	 Total Energy              =    -257.3561020710270668 [Eh]

	 ================> DF-SCS-MP2 Energies <==================
	-----------------------------------------------------------
	 SCS Same-Spin Scale       =       0.3333333333333333 [-]
	 SCS Opposite-Spin Scale   =       1.2000000000000000 [-]
	 SCS Same-Spin Energy      =      -0.0947806227988670 [Eh]
	 SCS Opposite-Spin Energy  =      -0.9530762207809620 [Eh]
	 SCS Correlation Energy    =      -1.0478568435798290 [Eh]
	 SCS Total Energy          =    -257.3253868622261393 [Eh]
	-----------------------------------------------------------

  Dipole Moment: [D]
     X:    -2.4034      Y:    -0.2282      Z:     0.0004     Total:     2.4142

*** Psi4 exiting successfully. Buy a developer a beer!
