                               Psi4 1.3.2 release

  ==> Input File <==

--------------------------------------------------------------------------
#psi4
#
memory 32 gb

molecule  {
-1 1
  N       -0.3347890    -1.1274600     0.0000330
  N       -0.3348100     1.1274550     0.0000810
  N        0.9473750    -0.6741020    -0.0001810
  N        0.9473635     0.8741170    -0.0001282
  C       -1.0701170    -0.0000090     0.0001780
  H       -2.1552810    -0.0000190     0.0003550
units angstrom
no_reorient  #important for SAPT in psi4, default
symmetry c1  #important for SAPT in psi4, default
}

set PROPERTIES_ORIGIN ["COM"]
properties('MP2/aug-cc-pvtz', properties = ['dipole'])
--------------------------------------------------------------------------

    Molecular point group: c1
  Charge       = -1
  Multiplicity = 1
  Basis Set: AUG-CC-PVTZ
    Blend: AUG-CC-PVTZ
  Basis Set: (AUG-CC-PVTZ AUX)
    Blend: AUG-CC-PVTZ-JKFIT

    Orbital Energies [Eh]
    ---------------------

    Doubly Occupied:

       1A    -15.436783     2A    -15.424011     3A    -15.414591
       4A    -15.403342     5A    -11.083082     6A     -1.194857
       7A     -1.021288     8A     -0.872105     9A     -0.652311
      10A     -0.591149    11A     -0.486097    12A     -0.402800
      13A     -0.351179    14A     -0.298078    15A     -0.273556
      16A     -0.223253    17A     -0.201524    18A     -0.139128

  @DF-RHF Final Energy:  -256.25091718481531

   => Energetics <=

    Nuclear Repulsion Energy =            152.0698848262921388
    One-Electron Energy =                -657.7033357478914013
    Two-Electron Energy =                 249.3825337367839552
    Total Energy =                       -256.2509171848153073
  Basis Set: (AUG-CC-PVTZ AUX)
    Blend: AUG-CC-PVTZ-RI
    Molecular point group: c1

    Geometry (in Angstrom), charge = -1, multiplicity = 1:

       Center              X                  Y                   Z               Mass
    ------------   -----------------  -----------------  -----------------  -----------------
         N           -0.365825876035    -1.168036974371     0.000036471773    14.003074004430
         N           -0.365846876035     1.086878025629     0.000084471773    14.003074004430
         N            0.916338123965    -0.714678974371    -0.000177528227    14.003074004430
         N            0.916326623965     0.833540025629    -0.000124728227    14.003074004430
         C           -1.101153876035    -0.040585974371     0.000181471773    12.000000000000
         H           -2.186317876035    -0.040595974371     0.000358471773     1.007825032230

  Basis Set: AUG-CC-PVTZ
    Blend: AUG-CC-PVTZ
  Basis Set: (AUG-CC-PVTZ AUX)
    Blend: AUG-CC-PVTZ-JKFIT
	 Reference Energy          =    -256.2509171848153073 [Eh]
	 Singles Energy            =      -0.0000000000000000 [Eh]
	 Same-Spin Energy          =      -0.2927156468664111 [Eh]
	 Opposite-Spin Energy      =      -0.8124510931154587 [Eh]
	 Correlation Energy        =      -1.1051667399818699 [Eh]
	 Total Energy              =    -257.3560839247971899 [Eh]

	 ================> DF-SCS-MP2 Energies <==================
	-----------------------------------------------------------
	 SCS Same-Spin Scale       =       0.3333333333333333 [-]
	 SCS Opposite-Spin Scale   =       1.2000000000000000 [-]
	 SCS Same-Spin Energy      =      -0.0975718822888037 [Eh]
	 SCS Opposite-Spin Energy  =      -0.9749413117385504 [Eh]
	 SCS Correlation Energy    =      -1.0725131940273540 [Eh]
	 SCS Total Energy          =    -257.3234303788426587 [Eh]
	-----------------------------------------------------------

  Dipole Moment: [D]
     X:    -2.5069      Y:     0.0245      Z:     0.0004     Total:     2.5070

*** Psi4 exiting successfully. Buy a developer a beer!
