                               Psi4 1.3.2 release

  ==> Input File <==

--------------------------------------------------------------------------
#psi4
#
memory 32 gb

molecule  {
-1 1
  N       -0.3347890    -1.1274600     0.0000330
  N       -0.3348100     1.1274550     0.0000810
  N        0.8929624    -0.5425629    -0.0001695
  N        0.9473650     0.6741170    -0.0001350
  C       -1.0701170    -0.0000090     0.0001780
  H       -2.1552810    -0.0000190     0.0003550
units angstrom
no_reorient  #important for SAPT in psi4, default
symmetry c1  #important for SAPT in psi4, default
}

set PROPERTIES_ORIGIN ["COM"]
properties('MP2/aug-cc-pvtz', properties = ['dipole'])
--------------------------------------------------------------------------

    Molecular point group: c1
  Charge       = -1
  Multiplicity = 1
  Basis Set: AUG-CC-PVTZ
    Blend: AUG-CC-PVTZ
  Basis Set: (AUG-CC-PVTZ AUX)
    Blend: AUG-CC-PVTZ-JKFIT

    Orbital Energies [Eh]
    ---------------------

    Doubly Occupied:

       1A    -15.413613     2A    -15.404093     3A    -15.381663
       4A    -15.371968     5A    -11.088907     6A     -1.262551
       7A     -0.986557     8A     -0.948452     9A     -0.638688
      10A     -0.611908    11A     -0.486613    12A     -0.434640
      13A     -0.368159    14A     -0.274780    15A     -0.252156
      16A     -0.209331    17A     -0.196197    18A     -0.183181

  @DF-RHF Final Energy:  -256.28802437454789

   => Energetics <=

    Nuclear Repulsion Energy =            158.2918662520455939
    One-Electron Energy =                -670.1328688812833434
    Two-Electron Energy =                 255.5529782546898900
    Total Energy =                       -256.2880243745478879
  Basis Set: (AUG-CC-PVTZ AUX)
    Blend: AUG-CC-PVTZ-RI
    Molecular point group: c1

    Geometry (in Angstrom), charge = -1, multiplicity = 1:

       Center              X                  Y                   Z               Mass
    ------------   -----------------  -----------------  -----------------  -----------------
         N           -0.354786737761    -1.154147357336     0.000035518218    14.003074004430
         N           -0.354807737761     1.100767642664     0.000083518218    14.003074004430
         N            0.872964662239    -0.569250257336    -0.000166981782    14.003074004430
         N            0.927367262239     0.647429642664    -0.000132481782    14.003074004430
         C           -1.090114737761    -0.026696357336     0.000180518218    12.000000000000
         H           -2.175278737761    -0.026706357336     0.000357518218     1.007825032230

  Basis Set: AUG-CC-PVTZ
    Blend: AUG-CC-PVTZ
  Basis Set: (AUG-CC-PVTZ AUX)
    Blend: AUG-CC-PVTZ-JKFIT
	 Reference Energy          =    -256.2880243745478879 [Eh]
	 Singles Energy            =      -0.0000000000000000 [Eh]
	 Same-Spin Energy          =      -0.2819144298310902 [Eh]
	 Opposite-Spin Energy      =      -0.7898612065719094 [Eh]
	 Correlation Energy        =      -1.0717756364029996 [Eh]
	 Total Energy              =    -257.3598000109508916 [Eh]

	 ================> DF-SCS-MP2 Energies <==================
	-----------------------------------------------------------
	 SCS Same-Spin Scale       =       0.3333333333333333 [-]
	 SCS Opposite-Spin Scale   =       1.2000000000000000 [-]
	 SCS Same-Spin Energy      =      -0.0939714766103634 [Eh]
	 SCS Opposite-Spin Energy  =      -0.9478334478862912 [Eh]
	 SCS Correlation Energy    =      -1.0418049244966545 [Eh]
	 SCS Total Energy          =    -257.3298292990445475 [Eh]
	-----------------------------------------------------------

  Dipole Moment: [D]
     X:    -2.0759      Y:    -0.0564      Z:     0.0003     Total:     2.0767

*** Psi4 exiting successfully. Buy a developer a beer!
