                               Psi4 1.3.2 release

  ==> Input File <==

--------------------------------------------------------------------------
#psi4
#
memory 32 gb

molecule  {
-1 1
  N       -0.3347890    -1.1274600     0.0000330
  N       -0.3348100     1.1274550     0.0000810
  N        0.9473750    -0.6741020    -0.0001810
  N        0.9473650     0.6741170    -0.0001350
  C       -1.1793741     0.1675108     0.0001995
  H       -2.1552810    -0.0000190     0.0003550
units angstrom
no_reorient  #important for SAPT in psi4, default
symmetry c1  #important for SAPT in psi4, default
}

set PROPERTIES_ORIGIN ["COM"]
properties('MP2/aug-cc-pvtz', properties = ['dipole'])
--------------------------------------------------------------------------

    Molecular point group: c1
  Charge       = -1
  Multiplicity = 1
  Basis Set: AUG-CC-PVTZ
    Blend: AUG-CC-PVTZ
  Basis Set: (AUG-CC-PVTZ AUX)
    Blend: AUG-CC-PVTZ-JKFIT

    Orbital Energies [Eh]
    ---------------------

    Doubly Occupied:

       1A    -15.436730     2A    -15.410694     3A    -15.396758
       4A    -15.394410     5A    -11.091170     6A     -1.205006
       7A     -0.991963     8A     -0.902211     9A     -0.647104
      10A     -0.615315    11A     -0.490770    12A     -0.404445
      13A     -0.377035    14A     -0.260704    15A     -0.246269
      16A     -0.219436    17A     -0.210548    18A     -0.151535

  @DF-RHF Final Energy:  -256.24758446026982

   => Energetics <=

    Nuclear Repulsion Energy =            152.9587580500520403
    One-Electron Energy =                -659.5084766932794764
    Two-Electron Energy =                 250.3021341829576158
    Total Energy =                       -256.2475844602698203
  Basis Set: (AUG-CC-PVTZ AUX)
    Blend: AUG-CC-PVTZ-RI
    Molecular point group: c1

    Geometry (in Angstrom), charge = -1, multiplicity = 1:

       Center              X                  Y                   Z               Mass
    ------------   -----------------  -----------------  -----------------  -----------------
         N           -0.346830484902    -1.156585571666     0.000034113343    14.003074004430
         N           -0.346851484902     1.098329428334     0.000082113343    14.003074004430
         N            0.935333515098    -0.703227571666    -0.000179886657    14.003074004430
         N            0.935323515098     0.644991428334    -0.000133886657    14.003074004430
         C           -1.191415584902     0.138385228334     0.000200613343    12.000000000000
         H           -2.167322484902    -0.029144571666     0.000356113343     1.007825032230

  Basis Set: AUG-CC-PVTZ
    Blend: AUG-CC-PVTZ
  Basis Set: (AUG-CC-PVTZ AUX)
    Blend: AUG-CC-PVTZ-JKFIT
	 Reference Energy          =    -256.2475844602698203 [Eh]
	 Singles Energy            =      -0.0000000000000000 [Eh]
	 Same-Spin Energy          =      -0.2885602449000418 [Eh]
	 Opposite-Spin Energy      =      -0.8045128341464183 [Eh]
	 Correlation Energy        =      -1.0930730790464600 [Eh]
	 Total Energy              =    -257.3406575393162825 [Eh]

	 ================> DF-SCS-MP2 Energies <==================
	-----------------------------------------------------------
	 SCS Same-Spin Scale       =       0.3333333333333333 [-]
	 SCS Opposite-Spin Scale   =       1.2000000000000000 [-]
	 SCS Same-Spin Energy      =      -0.0961867483000139 [Eh]
	 SCS Opposite-Spin Energy  =      -0.9654154009757019 [Eh]
	 SCS Correlation Energy    =      -1.0616021492757159 [Eh]
	 SCS Total Energy          =    -257.3091866095455202 [Eh]
	-----------------------------------------------------------

  Dipole Moment: [D]
     X:    -2.4823      Y:     0.3674      Z:     0.0004     Total:     2.5093

*** Psi4 exiting successfully. Buy a developer a beer!
