                               Psi4 1.4a3.dev225

  ==> Input File <==

--------------------------------------------------------------------------
#psi4
#
memory 32 gb

molecule  {
-1 1
  N       -0.3347890    -1.1274600     0.0000330
  N       -0.3348100     1.1274550     0.0000810
  N        0.9473750    -0.6741020    -0.0001810
  N        0.9473646     0.7241170    -0.0001333
  C       -1.0701170    -0.0000090     0.0001780
  H       -2.1552810    -0.0000190     0.0003550
units angstrom
no_reorient  #important for SAPT in psi4, default
symmetry c1  #important for SAPT in psi4, default
}

set PROPERTIES_ORIGIN ["COM"]
properties('MP2/aug-cc-pvtz', properties = ['dipole'])
--------------------------------------------------------------------------

    Molecular point group: c1
  Charge       = -1
  Multiplicity = 1
  Basis Set: AUG-CC-PVTZ
    Blend: AUG-CC-PVTZ
  Basis Set: (AUG-CC-PVTZ AUX)
    Blend: AUG-CC-PVTZ-JKFIT

    Orbital Energies [Eh]
    ---------------------

    Doubly Occupied:

       1A    -15.426646     2A    -15.423530     3A    -15.396762
       4A    -15.393491     5A    -11.086765     6A     -1.210139
       7A     -0.999536     8A     -0.903821     9A     -0.634618
      10A     -0.614912    11A     -0.484276    12A     -0.410084
      13A     -0.354352    14A     -0.271384    15A     -0.259829
      16A     -0.235440    17A     -0.204193    18A     -0.161547

  @DF-RHF Final Energy:  -256.28461885431869

   => Energetics <=

    Nuclear Repulsion Energy =            154.1967536058784844
    One-Electron Energy =                -662.0200961410459968
    Two-Electron Energy =                 251.5387236808488183
    Total Energy =                       -256.2846188543186940
  Basis Set: (AUG-CC-PVTZ AUX)
    Blend: AUG-CC-PVTZ-RI
    Molecular point group: c1

    Geometry (in Angstrom), charge = -1, multiplicity = 1:

       Center              X                  Y                   Z               Mass
    ------------   -----------------  -----------------  -----------------  -----------------
         N           -0.365826099208    -1.137604383574     0.000037506481    14.003074004430
         N           -0.365847099208     1.117310616426     0.000085506481    14.003074004430
         N            0.916337900792    -0.684246383574    -0.000176493519    14.003074004430
         N            0.916327500792     0.713972616426    -0.000128793519    14.003074004430
         C           -1.101154099208    -0.010153383574     0.000182506481    12.000000000000
         H           -2.186318099208    -0.010163383574     0.000359506481     1.007825032230

  Basis Set: AUG-CC-PVTZ
    Blend: AUG-CC-PVTZ
  Basis Set: (AUG-CC-PVTZ AUX)
    Blend: AUG-CC-PVTZ-JKFIT
	 Reference Energy          =    -256.2846188543186940 [Eh]
	 Singles Energy            =      -0.0000000000000000 [Eh]
	 Same-Spin Energy          =      -0.2879156817869413 [Eh]
	 Opposite-Spin Energy      =      -0.8021698386346959 [Eh]
	 Correlation Energy        =      -1.0900855204216371 [Eh]
	 Total Energy              =    -257.3747043747403040 [Eh]

	 ================> DF-SCS-MP2 Energies <==================
	-----------------------------------------------------------
	 SCS Same-Spin Scale       =       0.3333333333333333 [-]
	 SCS Opposite-Spin Scale   =       1.2000000000000000 [-]
	 SCS Same-Spin Energy      =      -0.0959718939289804 [Eh]
	 SCS Opposite-Spin Energy  =      -0.9626038063616351 [Eh]
	 SCS Correlation Energy    =      -1.0585757002906155 [Eh]
	 SCS Total Energy          =    -257.3431945546092834 [Eh]
	-----------------------------------------------------------

  Dipole Moment: [D]
     X:    -2.3976      Y:     0.0073      Z:     0.0004     Total:     2.3976

*** Psi4 exiting successfully. Buy a developer a beer!
