                               Psi4 1.3.2 release

  ==> Input File <==

--------------------------------------------------------------------------
#psi4
#
memory 32 gb

molecule  {
-1 1
  N       -0.3347890    -1.1274600     0.0000330
  N       -0.3348100     1.1274550     0.0000810
  N        1.1359347    -0.6074295    -0.0002125
  N        0.9473650     0.6741170    -0.0001350
  C       -1.0701170    -0.0000090     0.0001780
  H       -2.1552810    -0.0000190     0.0003550
units angstrom
no_reorient  #important for SAPT in psi4, default
symmetry c1  #important for SAPT in psi4, default
}

set PROPERTIES_ORIGIN ["COM"]
properties('MP2/aug-cc-pvtz', properties = ['dipole'])
--------------------------------------------------------------------------

    Molecular point group: c1
  Charge       = -1
  Multiplicity = 1
  Basis Set: AUG-CC-PVTZ
    Blend: AUG-CC-PVTZ
  Basis Set: (AUG-CC-PVTZ AUX)
    Blend: AUG-CC-PVTZ-JKFIT

    Orbital Energies [Eh]
    ---------------------

    Doubly Occupied:

       1A    -15.438236     2A    -15.436315     3A    -15.385697
       4A    -15.382493     5A    -11.100087     6A     -1.203625
       7A     -0.957841     8A     -0.937793     9A     -0.642412
      10A     -0.591660    11A     -0.470852    12A     -0.404698
      13A     -0.358418    14A     -0.296952    15A     -0.249389
      16A     -0.207929    17A     -0.201875    18A     -0.171007

  @DF-RHF Final Energy:  -256.26184735518393

   => Energetics <=

    Nuclear Repulsion Energy =            152.1764426403419179
    One-Electron Energy =                -658.0020203555178568
    Two-Electron Energy =                 249.5637303599920074
    Total Energy =                       -256.2618473551839315
  Basis Set: (AUG-CC-PVTZ AUX)
    Blend: AUG-CC-PVTZ-RI
    Molecular point group: c1

    Geometry (in Angstrom), charge = -1, multiplicity = 1:

       Center              X                  Y                   Z               Mass
    ------------   -----------------  -----------------  -----------------  -----------------
         N           -0.404081914967    -1.140986966042     0.000044242227    14.003074004430
         N           -0.404102914967     1.113928033958     0.000092242227    14.003074004430
         N            1.066641785033    -0.620956466042    -0.000201257773    14.003074004430
         N            0.878072085033     0.660590033958    -0.000123757773    14.003074004430
         C           -1.139409914967    -0.013535966042     0.000189242227    12.000000000000
         H           -2.224573914967    -0.013545966042     0.000366242227     1.007825032230

  Basis Set: AUG-CC-PVTZ
    Blend: AUG-CC-PVTZ
  Basis Set: (AUG-CC-PVTZ AUX)
    Blend: AUG-CC-PVTZ-JKFIT
	 Reference Energy          =    -256.2618473551839315 [Eh]
	 Singles Energy            =      -0.0000000000000000 [Eh]
	 Same-Spin Energy          =      -0.2869532104078800 [Eh]
	 Opposite-Spin Energy      =      -0.8049436146807220 [Eh]
	 Correlation Energy        =      -1.0918968250886021 [Eh]
	 Total Energy              =    -257.3537441802725425 [Eh]

	 ================> DF-SCS-MP2 Energies <==================
	-----------------------------------------------------------
	 SCS Same-Spin Scale       =       0.3333333333333333 [-]
	 SCS Opposite-Spin Scale   =       1.2000000000000000 [-]
	 SCS Same-Spin Energy      =      -0.0956510701359600 [Eh]
	 SCS Opposite-Spin Energy  =      -0.9659323376168663 [Eh]
	 SCS Correlation Energy    =      -1.0615834077528263 [Eh]
	 SCS Total Energy          =    -257.3234307629367663 [Eh]
	-----------------------------------------------------------

  Dipole Moment: [D]
     X:    -2.1197      Y:     0.2004      Z:     0.0003     Total:     2.1292

*** Psi4 exiting successfully. Buy a developer a beer!
