                               Psi4 1.3.2 release

  ==> Input File <==

--------------------------------------------------------------------------
#psi4
#
memory 32 gb

molecule  {
-1 1
  N       -0.3347890    -1.1274600     0.0000330
  N       -0.3348100     1.1274550     0.0000810
  N        0.9877400    -0.8106082    -0.0001902
  N        0.9473650     0.6741170    -0.0001350
  C       -1.0701170    -0.0000090     0.0001780
  H       -2.1552810    -0.0000190     0.0003550
units angstrom
no_reorient  #important for SAPT in psi4, default
symmetry c1  #important for SAPT in psi4, default
}

set PROPERTIES_ORIGIN ["COM"]
properties('MP2/aug-cc-pvtz', properties = ['dipole'])
--------------------------------------------------------------------------

    Molecular point group: c1
  Charge       = -1
  Multiplicity = 1
  Basis Set: AUG-CC-PVTZ
    Blend: AUG-CC-PVTZ
  Basis Set: (AUG-CC-PVTZ AUX)
    Blend: AUG-CC-PVTZ-JKFIT

    Orbital Energies [Eh]
    ---------------------

    Doubly Occupied:

       1A    -15.436774     2A    -15.428885     3A    -15.407304
       4A    -15.399817     5A    -11.087580     6A     -1.190537
       7A     -1.001917     8A     -0.887236     9A     -0.644567
      10A     -0.599887    11A     -0.482818    12A     -0.400780
      13A     -0.349117    14A     -0.291023    15A     -0.264572
      16A     -0.218370    17A     -0.209441    18A     -0.151603

  @DF-RHF Final Energy:  -256.26026510225751

   => Energetics <=

    Nuclear Repulsion Energy =            152.0816882455046937
    One-Electron Energy =                -657.7794500202157906
    Two-Electron Energy =                 249.4374966724536193
    Total Energy =                       -256.2602651022575060
  Basis Set: (AUG-CC-PVTZ AUX)
    Blend: AUG-CC-PVTZ-RI
    Molecular point group: c1

    Geometry (in Angstrom), charge = -1, multiplicity = 1:

       Center              X                  Y                   Z               Mass
    ------------   -----------------  -----------------  -----------------  -----------------
         N           -0.374015590545    -1.099765271137     0.000039717916    14.003074004430
         N           -0.374036590545     1.155149728863     0.000087717916    14.003074004430
         N            0.948513409455    -0.782913471137    -0.000183482084    14.003074004430
         N            0.908138409455     0.701811728863    -0.000128282084    14.003074004430
         C           -1.109343590545     0.027685728863     0.000184717916    12.000000000000
         H           -2.194507590545     0.027675728863     0.000361717916     1.007825032230

  Basis Set: AUG-CC-PVTZ
    Blend: AUG-CC-PVTZ
  Basis Set: (AUG-CC-PVTZ AUX)
    Blend: AUG-CC-PVTZ-JKFIT
	 Reference Energy          =    -256.2602651022575060 [Eh]
	 Singles Energy            =      -0.0000000000000000 [Eh]
	 Same-Spin Energy          =      -0.2916289571142422 [Eh]
	 Opposite-Spin Energy      =      -0.8106660653284141 [Eh]
	 Correlation Energy        =      -1.1022950224426564 [Eh]
	 Total Energy              =    -257.3625601247001669 [Eh]

	 ================> DF-SCS-MP2 Energies <==================
	-----------------------------------------------------------
	 SCS Same-Spin Scale       =       0.3333333333333333 [-]
	 SCS Opposite-Spin Scale   =       1.2000000000000000 [-]
	 SCS Same-Spin Energy      =      -0.0972096523714141 [Eh]
	 SCS Opposite-Spin Energy  =      -0.9727992783940969 [Eh]
	 SCS Correlation Energy    =      -1.0700089307655110 [Eh]
	 SCS Total Energy          =    -257.3302740330230449 [Eh]
	-----------------------------------------------------------

  Dipole Moment: [D]
     X:    -2.4746      Y:     0.0352      Z:     0.0004     Total:     2.4748

*** Psi4 exiting successfully. Buy a developer a beer!
