                               Psi4 1.3.2 release

  ==> Input File <==

--------------------------------------------------------------------------
#psi4
#
memory 32 gb

molecule  {
-1 1
  N       -0.3347890    -1.1274600     0.0000330
  N       -0.3348100     1.1274550     0.0000810
  N        0.9624159    -0.7191251    -0.0001843
  N        0.9473650     0.6741170    -0.0001350
  C       -1.0701170    -0.0000090     0.0001780
  H       -2.1552810    -0.0000190     0.0003550
units angstrom
no_reorient  #important for SAPT in psi4, default
symmetry c1  #important for SAPT in psi4, default
}

set PROPERTIES_ORIGIN ["COM"]
properties('MP2/aug-cc-pvtz', properties = ['dipole'])
--------------------------------------------------------------------------

    Molecular point group: c1
  Charge       = -1
  Multiplicity = 1
  Basis Set: AUG-CC-PVTZ
    Blend: AUG-CC-PVTZ
  Basis Set: (AUG-CC-PVTZ AUX)
    Blend: AUG-CC-PVTZ-JKFIT

    Orbital Energies [Eh]
    ---------------------

    Doubly Occupied:

       1A    -15.427928     2A    -15.425027     3A    -15.396009
       4A    -15.393288     5A    -11.087969     6A     -1.207544
       7A     -0.994825     8A     -0.906646     9A     -0.633718
      10A     -0.614793    11A     -0.483189    12A     -0.408756
      13A     -0.353969    14A     -0.271967    15A     -0.257627
      16A     -0.237359    17A     -0.201467    18A     -0.164006

  @DF-RHF Final Energy:  -256.28377785212928

   => Energetics <=

    Nuclear Repulsion Energy =            153.9491193777148794
    One-Electron Energy =                -661.5336201397016112
    Two-Electron Energy =                 251.3007229098574840
    Total Energy =                       -256.2837778521292762
  Basis Set: (AUG-CC-PVTZ AUX)
    Blend: AUG-CC-PVTZ-RI
    Molecular point group: c1

    Geometry (in Angstrom), charge = -1, multiplicity = 1:

       Center              X                  Y                   Z               Mass
    ------------   -----------------  -----------------  -----------------  -----------------
         N           -0.368877737394    -1.118325722784     0.000038520900    14.003074004430
         N           -0.368898737394     1.136589277216     0.000086520900    14.003074004430
         N            0.928327162606    -0.709990822784    -0.000178779100    14.003074004430
         N            0.913276262606     0.683251277216    -0.000129479100    14.003074004430
         C           -1.104205737394     0.009125277216     0.000183520900    12.000000000000
         H           -2.189369737394     0.009115277216     0.000360520900     1.007825032230

  Basis Set: AUG-CC-PVTZ
    Blend: AUG-CC-PVTZ
  Basis Set: (AUG-CC-PVTZ AUX)
    Blend: AUG-CC-PVTZ-JKFIT
	 Reference Energy          =    -256.2837778521292762 [Eh]
	 Singles Energy            =      -0.0000000000000000 [Eh]
	 Same-Spin Energy          =      -0.2880128719811161 [Eh]
	 Opposite-Spin Energy      =      -0.8026664958048824 [Eh]
	 Correlation Energy        =      -1.0906793677859985 [Eh]
	 Total Energy              =    -257.3744572199152572 [Eh]

	 ================> DF-SCS-MP2 Energies <==================
	-----------------------------------------------------------
	 SCS Same-Spin Scale       =       0.3333333333333333 [-]
	 SCS Opposite-Spin Scale   =       1.2000000000000000 [-]
	 SCS Same-Spin Energy      =      -0.0960042906603720 [Eh]
	 SCS Opposite-Spin Energy  =      -0.9631997949658588 [Eh]
	 SCS Correlation Energy    =      -1.0592040856262308 [Eh]
	 SCS Total Energy          =    -257.3429819377554963 [Eh]
	-----------------------------------------------------------

  Dipole Moment: [D]
     X:    -2.3913      Y:     0.0116      Z:     0.0004     Total:     2.3913

*** Psi4 exiting successfully. Buy a developer a beer!
