                               Psi4 1.4a3.dev225

  ==> Input File <==

--------------------------------------------------------------------------
#psi4
#
memory 32 gb

molecule  {
-1 1
  N       -0.3347890    -1.1274600     0.0000330
  N       -0.3348100     1.1274550     0.0000810
  N        0.9473750    -0.6741020    -0.0001810
  N        0.9473650     0.6741170    -0.0001350
  C       -1.0701170    -0.0000090     0.0001780
  H       -2.1052810    -0.0000185     0.0003468
units angstrom
no_reorient  #important for SAPT in psi4, default
symmetry c1  #important for SAPT in psi4, default
}

set PROPERTIES_ORIGIN ["COM"]
properties('MP2/aug-cc-pvtz', properties = ['dipole'])
--------------------------------------------------------------------------

    Molecular point group: c1
  Charge       = -1
  Multiplicity = 1
  Basis Set: AUG-CC-PVTZ
    Blend: AUG-CC-PVTZ
  Basis Set: (AUG-CC-PVTZ AUX)
    Blend: AUG-CC-PVTZ-JKFIT

    Orbital Energies [Eh]
    ---------------------

    Doubly Occupied:

       1A    -15.422464     2A    -15.421628     3A    -15.389471
       4A    -15.389435     5A    -11.081791     6A     -1.217710
       7A     -0.990669     8A     -0.918541     9A     -0.629246
      10A     -0.627576    11A     -0.489172    12A     -0.413174
      13A     -0.360472    14A     -0.263795    15A     -0.250150
      16A     -0.245728    17A     -0.197032    18A     -0.170276

  @DF-RHF Final Energy:  -256.29078758347418

   => Energetics <=

    Nuclear Repulsion Energy =            155.2042685599298011
    One-Electron Energy =                -664.0334477727723197
    Two-Electron Energy =                 252.5383916293683342
    Total Energy =                       -256.2907875834741844
  Basis Set: (AUG-CC-PVTZ AUX)
    Blend: AUG-CC-PVTZ-RI
    Molecular point group: c1

    Geometry (in Angstrom), charge = -1, multiplicity = 1:

       Center              X                  Y                   Z               Mass
    ------------   -----------------  -----------------  -----------------  -----------------
         N           -0.366556275453    -1.127460193943     0.000037971119    14.003074004430
         N           -0.366577275453     1.127454806057     0.000085971119    14.003074004430
         N            0.915607724547    -0.674102193943    -0.000176028881    14.003074004430
         N            0.915597724547     0.674116806057    -0.000130028881    14.003074004430
         C           -1.101884275453    -0.000009193943     0.000182971119    12.000000000000
         H           -2.137048275453    -0.000018693943     0.000351771119     1.007825032230

  Basis Set: AUG-CC-PVTZ
    Blend: AUG-CC-PVTZ
  Basis Set: (AUG-CC-PVTZ AUX)
    Blend: AUG-CC-PVTZ-JKFIT
	 Reference Energy          =    -256.2907875834741844 [Eh]
	 Singles Energy            =      -0.0000000000000000 [Eh]
	 Same-Spin Energy          =      -0.2862420364250098 [Eh]
	 Opposite-Spin Energy      =      -0.7988626869176336 [Eh]
	 Correlation Energy        =      -1.0851047233426434 [Eh]
	 Total Energy              =    -257.3758923068168087 [Eh]

	 ================> DF-SCS-MP2 Energies <==================
	-----------------------------------------------------------
	 SCS Same-Spin Scale       =       0.3333333333333333 [-]
	 SCS Opposite-Spin Scale   =       1.2000000000000000 [-]
	 SCS Same-Spin Energy      =      -0.0954140121416699 [Eh]
	 SCS Opposite-Spin Energy  =      -0.9586352243011603 [Eh]
	 SCS Correlation Energy    =      -1.0540492364428302 [Eh]
	 SCS Total Energy          =    -257.3448368199170204 [Eh]
	-----------------------------------------------------------

  Dipole Moment: [D]
     X:    -2.3650      Y:    -0.0000      Z:     0.0004     Total:     2.3650

*** Psi4 exiting successfully. Buy a developer a beer!
