                               Psi4 1.3.2 release

  ==> Input File <==

--------------------------------------------------------------------------
#psi4
#
memory 32 gb

molecule  {
-1 1
  N       -0.3347890    -1.1274600     0.0000330
  N       -0.3348100     1.1274550     0.0000810
  N        0.9758764    -0.7646456    -0.0001874
  N        0.9473650     0.6741170    -0.0001350
  C       -1.0701170    -0.0000090     0.0001780
  H       -2.1552810    -0.0000190     0.0003550
units angstrom
no_reorient  #important for SAPT in psi4, default
symmetry c1  #important for SAPT in psi4, default
}

set PROPERTIES_ORIGIN ["COM"]
properties('MP2/aug-cc-pvtz', properties = ['dipole'])
--------------------------------------------------------------------------

    Molecular point group: c1
  Charge       = -1
  Multiplicity = 1
  Basis Set: AUG-CC-PVTZ
    Blend: AUG-CC-PVTZ
  Basis Set: (AUG-CC-PVTZ AUX)
    Blend: AUG-CC-PVTZ-JKFIT

    Orbital Energies [Eh]
    ---------------------

    Doubly Occupied:

       1A    -15.432592     2A    -15.427122     3A    -15.401759
       4A    -15.396544     5A    -11.087763     6A     -1.198332
       7A     -0.998395     8A     -0.896438     9A     -0.639188
      10A     -0.607465    11A     -0.482949    12A     -0.404451
      13A     -0.351291    14A     -0.281480    15A     -0.261785
      16A     -0.227906    17A     -0.205444    18A     -0.157577

  @DF-RHF Final Energy:  -256.27307856942048

   => Energetics <=

    Nuclear Repulsion Energy =            152.9913978349620436
    One-Electron Energy =                -659.6119913748266299
    Two-Electron Energy =                 250.3475149704441094
    Total Energy =                       -256.2730785694204769
  Basis Set: (AUG-CC-PVTZ AUX)
    Blend: AUG-CC-PVTZ-RI
    Molecular point group: c1

    Geometry (in Angstrom), charge = -1, multiplicity = 1:

       Center              X                  Y                   Z               Mass
    ------------   -----------------  -----------------  -----------------  -----------------
         N           -0.371608656650    -1.109090344455     0.000039149841    14.003074004430
         N           -0.371629656650     1.145824655545     0.000087149841    14.003074004430
         N            0.939056743350    -0.746275944455    -0.000181250159    14.003074004430
         N            0.910545343350     0.692486655545    -0.000128850159    14.003074004430
         C           -1.106936656650     0.018360655545     0.000184149841    12.000000000000
         H           -2.192100656650     0.018350655545     0.000361149841     1.007825032230

  Basis Set: AUG-CC-PVTZ
    Blend: AUG-CC-PVTZ
  Basis Set: (AUG-CC-PVTZ AUX)
    Blend: AUG-CC-PVTZ-JKFIT
	 Reference Energy          =    -256.2730785694204769 [Eh]
	 Singles Energy            =      -0.0000000000000000 [Eh]
	 Same-Spin Energy          =      -0.2897997735963774 [Eh]
	 Opposite-Spin Energy      =      -0.8065777819634860 [Eh]
	 Correlation Energy        =      -1.0963775555598634 [Eh]
	 Total Energy              =    -257.3694561249803314 [Eh]

	 ================> DF-SCS-MP2 Energies <==================
	-----------------------------------------------------------
	 SCS Same-Spin Scale       =       0.3333333333333333 [-]
	 SCS Opposite-Spin Scale   =       1.2000000000000000 [-]
	 SCS Same-Spin Energy      =      -0.0965999245321258 [Eh]
	 SCS Opposite-Spin Energy  =      -0.9678933383561831 [Eh]
	 SCS Correlation Energy    =      -1.0644932628883088 [Eh]
	 SCS Total Energy          =    -257.3375718323088108 [Eh]
	-----------------------------------------------------------

  Dipole Moment: [D]
     X:    -2.4387      Y:     0.0227      Z:     0.0004     Total:     2.4388

*** Psi4 exiting successfully. Buy a developer a beer!
