                               Psi4 1.3.2 release

  ==> Input File <==

--------------------------------------------------------------------------
#psi4
#
memory 32 gb

molecule  {
-1 1
  N       -0.3347890    -1.1274600     0.0000330
  N       -0.3348100     1.1274550     0.0000810
  N        0.8530951    -0.7074382    -0.0001653
  N        0.9473650     0.6741170    -0.0001350
  C       -1.0701170    -0.0000090     0.0001780
  H       -2.1552810    -0.0000190     0.0003550
units angstrom
no_reorient  #important for SAPT in psi4, default
symmetry c1  #important for SAPT in psi4, default
}

set PROPERTIES_ORIGIN ["COM"]
properties('MP2/aug-cc-pvtz', properties = ['dipole'])
--------------------------------------------------------------------------

    Molecular point group: c1
  Charge       = -1
  Multiplicity = 1
  Basis Set: AUG-CC-PVTZ
    Blend: AUG-CC-PVTZ
  Basis Set: (AUG-CC-PVTZ AUX)
    Blend: AUG-CC-PVTZ-JKFIT

    Orbital Energies [Eh]
    ---------------------

    Doubly Occupied:

       1A    -15.414500     2A    -15.413492     3A    -15.395748
       4A    -15.391254     5A    -11.080424     6A     -1.237906
       7A     -1.022697     8A     -0.897397     9A     -0.643042
      10A     -0.613399    11A     -0.491264    12A     -0.423689
      13A     -0.359838    14A     -0.269329    15A     -0.266247
      16A     -0.220947    17A     -0.216166    18A     -0.154135

  @DF-RHF Final Energy:  -256.28645204117061

   => Energetics <=

    Nuclear Repulsion Energy =            156.5278906877325085
    One-Electron Energy =                -666.6057385914339193
    Two-Electron Energy =                 253.7913958625308055
    Total Energy =                       -256.2864520411706053
  Basis Set: (AUG-CC-PVTZ AUX)
    Blend: AUG-CC-PVTZ-RI
    Molecular point group: c1

    Geometry (in Angstrom), charge = -1, multiplicity = 1:

       Center              X                  Y                   Z               Mass
    ------------   -----------------  -----------------  -----------------  -----------------
         N           -0.346698302914    -1.120696807087     0.000034666105    14.003074004430
         N           -0.346719302914     1.134218192913     0.000082666105    14.003074004430
         N            0.841185797086    -0.700675007087    -0.000163633895    14.003074004430
         N            0.935455697086     0.680880192913    -0.000133333895    14.003074004430
         C           -1.082026302914     0.006754192913     0.000179666105    12.000000000000
         H           -2.167190302914     0.006744192913     0.000356666105     1.007825032230

  Basis Set: AUG-CC-PVTZ
    Blend: AUG-CC-PVTZ
  Basis Set: (AUG-CC-PVTZ AUX)
    Blend: AUG-CC-PVTZ-JKFIT
	 Reference Energy          =    -256.2864520411706053 [Eh]
	 Singles Energy            =      -0.0000000000000000 [Eh]
	 Same-Spin Energy          =      -0.2859008747005792 [Eh]
	 Opposite-Spin Energy      =      -0.7966465708825854 [Eh]
	 Correlation Energy        =      -1.0825474455831645 [Eh]
	 Total Energy              =    -257.3689994867537507 [Eh]

	 ================> DF-SCS-MP2 Energies <==================
	-----------------------------------------------------------
	 SCS Same-Spin Scale       =       0.3333333333333333 [-]
	 SCS Opposite-Spin Scale   =       1.2000000000000000 [-]
	 SCS Same-Spin Energy      =      -0.0953002915668597 [Eh]
	 SCS Opposite-Spin Energy  =      -0.9559758850591025 [Eh]
	 SCS Correlation Energy    =      -1.0512761766259622 [Eh]
	 SCS Total Energy          =    -257.3377282177965526 [Eh]
	-----------------------------------------------------------

  Dipole Moment: [D]
     X:    -2.3668      Y:    -0.1477      Z:     0.0004     Total:     2.3714

*** Psi4 exiting successfully. Buy a developer a beer!
