                               Psi4 1.3.2 release

  ==> Input File <==

--------------------------------------------------------------------------
#psi4
#
memory 32 gb

molecule  {
-1 1
  N       -0.3266815    -1.1497678     0.0000308
  N       -0.3348100     1.1274550     0.0000810
  N        0.9473750    -0.6741020    -0.0001810
  N        0.9473650     0.6741170    -0.0001350
  C       -1.0701170    -0.0000090     0.0001780
  H       -2.1552810    -0.0000190     0.0003550
units angstrom
no_reorient  #important for SAPT in psi4, default
symmetry c1  #important for SAPT in psi4, default
}

set PROPERTIES_ORIGIN ["COM"]
properties('MP2/aug-cc-pvtz', properties = ['dipole'])
--------------------------------------------------------------------------

    Molecular point group: c1
  Charge       = -1
  Multiplicity = 1
  Basis Set: AUG-CC-PVTZ
    Blend: AUG-CC-PVTZ
  Basis Set: (AUG-CC-PVTZ AUX)
    Blend: AUG-CC-PVTZ-JKFIT

    Orbital Energies [Eh]
    ---------------------

    Doubly Occupied:

       1A    -15.424000     2A    -15.422029     3A    -15.393859
       4A    -15.392326     5A    -11.091095     6A     -1.216159
       7A     -0.992203     8A     -0.913782     9A     -0.626009
      10A     -0.621681    11A     -0.482249    12A     -0.412245
      13A     -0.357966    14A     -0.264750    15A     -0.251265
      16A     -0.246407    17A     -0.198700    18A     -0.168654

  @DF-RHF Final Energy:  -256.28924957561679

   => Energetics <=

    Nuclear Repulsion Energy =            154.4786686666465698
    One-Electron Energy =                -662.5850767921261877
    Two-Electron Energy =                 251.8171585498627962
    Total Energy =                       -256.2892495756168501
  Basis Set: (AUG-CC-PVTZ AUX)
    Blend: AUG-CC-PVTZ-RI
    Molecular point group: c1

    Geometry (in Angstrom), charge = -1, multiplicity = 1:

       Center              X                  Y                   Z               Mass
    ------------   -----------------  -----------------  -----------------  -----------------
         N           -0.359363561894    -1.145242092316     0.000036097728    14.003074004430
         N           -0.367492061894     1.131980707684     0.000086297728    14.003074004430
         N            0.914692938106    -0.669576292316    -0.000175702272    14.003074004430
         N            0.914682938106     0.678642707684    -0.000129702272    14.003074004430
         C           -1.102799061894     0.004516707684     0.000183297728    12.000000000000
         H           -2.187963061894     0.004506707684     0.000360297728     1.007825032230

  Basis Set: AUG-CC-PVTZ
    Blend: AUG-CC-PVTZ
  Basis Set: (AUG-CC-PVTZ AUX)
    Blend: AUG-CC-PVTZ-JKFIT
	 Reference Energy          =    -256.2892495756167932 [Eh]
	 Singles Energy            =      -0.0000000000000000 [Eh]
	 Same-Spin Energy          =      -0.2866775868660669 [Eh]
	 Opposite-Spin Energy      =      -0.7999589970325747 [Eh]
	 Correlation Energy        =      -1.0866365838986416 [Eh]
	 Total Energy              =    -257.3758861595154599 [Eh]

	 ================> DF-SCS-MP2 Energies <==================
	-----------------------------------------------------------
	 SCS Same-Spin Scale       =       0.3333333333333333 [-]
	 SCS Opposite-Spin Scale   =       1.2000000000000000 [-]
	 SCS Same-Spin Energy      =      -0.0955591956220223 [Eh]
	 SCS Opposite-Spin Energy  =      -0.9599507964390895 [Eh]
	 SCS Correlation Energy    =      -1.0555099920611117 [Eh]
	 SCS Total Energy          =    -257.3447595676778974 [Eh]
	-----------------------------------------------------------

  Dipole Moment: [D]
     X:    -2.3203      Y:     0.0292      Z:     0.0004     Total:     2.3205

*** Psi4 exiting successfully. Buy a developer a beer!
