                               Psi4 1.3.2 release

  ==> Input File <==

--------------------------------------------------------------------------
#psi4
#
memory 32 gb

molecule  {
-1 1
  N       -0.4152272    -1.1760075     0.0000450
  N       -0.3348100     1.1274550     0.0000810
  N        0.9473750    -0.6741020    -0.0001810
  N        0.9473650     0.6741170    -0.0001350
  C       -1.0701170    -0.0000090     0.0001780
  H       -2.1552810    -0.0000190     0.0003550
units angstrom
no_reorient  #important for SAPT in psi4, default
symmetry c1  #important for SAPT in psi4, default
}

set PROPERTIES_ORIGIN ["COM"]
properties('MP2/aug-cc-pvtz', properties = ['dipole'])
--------------------------------------------------------------------------

    Molecular point group: c1
  Charge       = -1
  Multiplicity = 1
  Basis Set: AUG-CC-PVTZ
    Blend: AUG-CC-PVTZ
  Basis Set: (AUG-CC-PVTZ AUX)
    Blend: AUG-CC-PVTZ-JKFIT

    Orbital Energies [Eh]
    ---------------------

    Doubly Occupied:

       1A    -15.435893     2A    -15.427931     3A    -15.397038
       4A    -15.388651     5A    -11.094324     6A     -1.203932
       7A     -0.976636     8A     -0.922915     9A     -0.634090
      10A     -0.608755    11A     -0.474158    12A     -0.406648
      13A     -0.349647    14A     -0.278924    15A     -0.256614
      16A     -0.238609    17A     -0.193589    18A     -0.175899

  @DF-RHF Final Energy:  -256.27758020101214

   => Energetics <=

    Nuclear Repulsion Energy =            153.0900613901293355
    One-Electron Energy =                -659.8067780354791694
    Two-Electron Energy =                 250.4391364443376915
    Total Energy =                       -256.2775802010121424
  Basis Set: (AUG-CC-PVTZ AUX)
    Blend: AUG-CC-PVTZ-RI
    Molecular point group: c1

    Geometry (in Angstrom), charge = -1, multiplicity = 1:

       Center              X                  Y                   Z               Mass
    ------------   -----------------  -----------------  -----------------  -----------------
         N           -0.429944761528    -1.166158178631     0.000047416776    14.003074004430
         N           -0.349527561528     1.137304321369     0.000083416776    14.003074004430
         N            0.932657438472    -0.664252678631    -0.000178583224    14.003074004430
         N            0.932647438472     0.683966321369    -0.000132583224    14.003074004430
         C           -1.084834561528     0.009840321369     0.000180416776    12.000000000000
         H           -2.169998561528     0.009830321369     0.000357416776     1.007825032230

  Basis Set: AUG-CC-PVTZ
    Blend: AUG-CC-PVTZ
  Basis Set: (AUG-CC-PVTZ AUX)
    Blend: AUG-CC-PVTZ-JKFIT
	 Reference Energy          =    -256.2775802010121424 [Eh]
	 Singles Energy            =      -0.0000000000000000 [Eh]
	 Same-Spin Energy          =      -0.2877102246598836 [Eh]
	 Opposite-Spin Energy      =      -0.8042355765172646 [Eh]
	 Correlation Energy        =      -1.0919458011771481 [Eh]
	 Total Energy              =    -257.3695260021892750 [Eh]

	 ================> DF-SCS-MP2 Energies <==================
	-----------------------------------------------------------
	 SCS Same-Spin Scale       =       0.3333333333333333 [-]
	 SCS Opposite-Spin Scale   =       1.2000000000000000 [-]
	 SCS Same-Spin Energy      =      -0.0959034082199612 [Eh]
	 SCS Opposite-Spin Energy  =      -0.9650826918207175 [Eh]
	 SCS Correlation Energy    =      -1.0609861000406786 [Eh]
	 SCS Total Energy          =    -257.3385663010528219 [Eh]
	-----------------------------------------------------------

  Dipole Moment: [D]
     X:    -2.2227      Y:     0.1269      Z:     0.0004     Total:     2.2263

*** Psi4 exiting successfully. Buy a developer a beer!
