                               Psi4 1.3.2 release

  ==> Input File <==

--------------------------------------------------------------------------
#psi4
#
memory 32 gb

molecule  {
-1 1
  N       -0.2209665    -1.0444210     0.0000163
  N       -0.3348100     1.1274550     0.0000810
  N        0.9473750    -0.6741020    -0.0001810
  N        0.9473650     0.6741170    -0.0001350
  C       -1.0701170    -0.0000090     0.0001780
  H       -2.1552810    -0.0000190     0.0003550
units angstrom
no_reorient  #important for SAPT in psi4, default
symmetry c1  #important for SAPT in psi4, default
}

set PROPERTIES_ORIGIN ["COM"]
properties('MP2/aug-cc-pvtz', properties = ['dipole'])
--------------------------------------------------------------------------

    Molecular point group: c1
  Charge       = -1
  Multiplicity = 1
  Basis Set: AUG-CC-PVTZ
    Blend: AUG-CC-PVTZ
  Basis Set: (AUG-CC-PVTZ AUX)
    Blend: AUG-CC-PVTZ-JKFIT

    Orbital Energies [Eh]
    ---------------------

    Doubly Occupied:

       1A    -15.412525     2A    -15.400779     3A    -15.392775
       4A    -15.377343     5A    -11.079037     6A     -1.256391
       7A     -1.017253     8A     -0.907680     9A     -0.647937
      10A     -0.614488    11A     -0.496751    12A     -0.431712
      13A     -0.375322    14A     -0.263717    15A     -0.251063
      16A     -0.213266    17A     -0.213175    18A     -0.156453

  @DF-RHF Final Energy:  -256.28437878863753

   => Energetics <=

    Nuclear Repulsion Energy =            158.1763882741552720
    One-Electron Energy =                -669.9061983459009753
    Two-Electron Energy =                 255.4454312831081779
    Total Energy =                       -256.2843787886375253
  Basis Set: (AUG-CC-PVTZ AUX)
    Blend: AUG-CC-PVTZ-RI
    Molecular point group: c1

    Geometry (in Angstrom), charge = -1, multiplicity = 1:

       Center              X                  Y                   Z               Mass
    ------------   -----------------  -----------------  -----------------  -----------------
         N           -0.275096437468    -1.061268466023     0.000024539545    14.003074004430
         N           -0.388939937468     1.110607533977     0.000089239545    14.003074004430
         N            0.893245062532    -0.690949466023    -0.000172760455    14.003074004430
         N            0.893235062532     0.657269533977    -0.000126760455    14.003074004430
         C           -1.124246937468    -0.016856466023     0.000186239545    12.000000000000
         H           -2.209410937468    -0.016866466023     0.000363239545     1.007825032230

  Basis Set: AUG-CC-PVTZ
    Blend: AUG-CC-PVTZ
  Basis Set: (AUG-CC-PVTZ AUX)
    Blend: AUG-CC-PVTZ-JKFIT
	 Reference Energy          =    -256.2843787886375253 [Eh]
	 Singles Energy            =      -0.0000000000000000 [Eh]
	 Same-Spin Energy          =      -0.2844253135587448 [Eh]
	 Opposite-Spin Energy      =      -0.7924062129495831 [Eh]
	 Correlation Energy        =      -1.0768315265083279 [Eh]
	 Total Energy              =    -257.3612103151458541 [Eh]

	 ================> DF-SCS-MP2 Energies <==================
	-----------------------------------------------------------
	 SCS Same-Spin Scale       =       0.3333333333333333 [-]
	 SCS Opposite-Spin Scale   =       1.2000000000000000 [-]
	 SCS Same-Spin Energy      =      -0.0948084378529149 [Eh]
	 SCS Opposite-Spin Energy  =      -0.9508874555394997 [Eh]
	 SCS Correlation Energy    =      -1.0456958933924145 [Eh]
	 SCS Total Energy          =    -257.3300746820299310 [Eh]
	-----------------------------------------------------------

  Dipole Moment: [D]
     X:    -2.4264      Y:    -0.2751      Z:     0.0004     Total:     2.4420

*** Psi4 exiting successfully. Buy a developer a beer!
