                               Psi4 1.3.2 release

  ==> Input File <==

--------------------------------------------------------------------------
#psi4
#
memory 32 gb

molecule  {
-1 1
  N       -0.3498299    -1.0824369     0.0000372
  N       -0.3348100     1.1274550     0.0000810
  N        0.9473750    -0.6741020    -0.0001810
  N        0.9473650     0.6741170    -0.0001350
  C       -1.0701170    -0.0000090     0.0001780
  H       -2.1552810    -0.0000190     0.0003550
units angstrom
no_reorient  #important for SAPT in psi4, default
symmetry c1  #important for SAPT in psi4, default
}

set PROPERTIES_ORIGIN ["COM"]
properties('MP2/aug-cc-pvtz', properties = ['dipole'])
--------------------------------------------------------------------------

    Molecular point group: c1
  Charge       = -1
  Multiplicity = 1
  Basis Set: AUG-CC-PVTZ
    Blend: AUG-CC-PVTZ
  Basis Set: (AUG-CC-PVTZ AUX)
    Blend: AUG-CC-PVTZ-JKFIT

    Orbital Energies [Eh]
    ---------------------

    Doubly Occupied:

       1A    -15.423791     2A    -15.420168     3A    -15.385585
       4A    -15.382207     5A    -11.082003     6A     -1.223359
       7A     -0.990100     8A     -0.925544     9A     -0.635529
      10A     -0.618453    11A     -0.486537    12A     -0.417335
      13A     -0.355936    14A     -0.264773    15A     -0.247762
      16A     -0.244967    17A     -0.196493    18A     -0.174322

  @DF-RHF Final Energy:  -256.29289097765212

   => Energetics <=

    Nuclear Repulsion Energy =            155.9514114218531518
    One-Electron Energy =                -665.5388766769011681
    Two-Electron Energy =                 253.2945742773958955
    Total Energy =                       -256.2928909776521209
  Basis Set: (AUG-CC-PVTZ AUX)
    Blend: AUG-CC-PVTZ-RI
    Molecular point group: c1

    Geometry (in Angstrom), charge = -1, multiplicity = 1:

       Center              X                  Y                   Z               Mass
    ------------   -----------------  -----------------  -----------------  -----------------
         N           -0.377815523328    -1.091571550500     0.000041199271    14.003074004430
         N           -0.362795623328     1.118320349500     0.000084999271    14.003074004430
         N            0.919389376672    -0.683236650500    -0.000177000729    14.003074004430
         N            0.919379376672     0.664982349500    -0.000131000729    14.003074004430
         C           -1.098102623328    -0.009143650500     0.000181999271    12.000000000000
         H           -2.183266623328    -0.009153650500     0.000358999271     1.007825032230

  Basis Set: AUG-CC-PVTZ
    Blend: AUG-CC-PVTZ
  Basis Set: (AUG-CC-PVTZ AUX)
    Blend: AUG-CC-PVTZ-JKFIT
	 Reference Energy          =    -256.2928909776521209 [Eh]
	 Singles Energy            =      -0.0000000000000000 [Eh]
	 Same-Spin Energy          =      -0.2855686613293543 [Eh]
	 Opposite-Spin Energy      =      -0.7971752897739431 [Eh]
	 Correlation Energy        =      -1.0827439511032975 [Eh]
	 Total Energy              =    -257.3756349287554031 [Eh]

	 ================> DF-SCS-MP2 Energies <==================
	-----------------------------------------------------------
	 SCS Same-Spin Scale       =       0.3333333333333333 [-]
	 SCS Opposite-Spin Scale   =       1.2000000000000000 [-]
	 SCS Same-Spin Energy      =      -0.0951895537764514 [Eh]
	 SCS Opposite-Spin Energy  =      -0.9566103477287318 [Eh]
	 SCS Correlation Energy    =      -1.0517999015051833 [Eh]
	 SCS Total Energy          =    -257.3446908791573264 [Eh]
	-----------------------------------------------------------

  Dipole Moment: [D]
     X:    -2.3549      Y:    -0.0655      Z:     0.0004     Total:     2.3558

*** Psi4 exiting successfully. Buy a developer a beer!
