                               Psi4 1.3.2 release

  ==> Input File <==

--------------------------------------------------------------------------
#psi4
#
memory 32 gb

molecule  {
-1 1
  N       -0.2958895    -1.1011106     0.0000272
  N       -0.3348100     1.1274550     0.0000810
  N        0.9473750    -0.6741020    -0.0001810
  N        0.9473650     0.6741170    -0.0001350
  C       -1.0701170    -0.0000090     0.0001780
  H       -2.1552810    -0.0000190     0.0003550
units angstrom
no_reorient  #important for SAPT in psi4, default
symmetry c1  #important for SAPT in psi4, default
}

set PROPERTIES_ORIGIN ["COM"]
properties('MP2/aug-cc-pvtz', properties = ['dipole'])
--------------------------------------------------------------------------

    Molecular point group: c1
  Charge       = -1
  Multiplicity = 1
  Basis Set: AUG-CC-PVTZ
    Blend: AUG-CC-PVTZ
  Basis Set: (AUG-CC-PVTZ AUX)
    Blend: AUG-CC-PVTZ-JKFIT

    Orbital Energies [Eh]
    ---------------------

    Doubly Occupied:

       1A    -15.419617     2A    -15.415546     3A    -15.390950
       4A    -15.386168     5A    -11.085080     6A     -1.228572
       7A     -0.999728     8A     -0.914531     9A     -0.632671
      10A     -0.621224    11A     -0.488164    12A     -0.418650
      13A     -0.362217    14A     -0.259090    15A     -0.255278
      16A     -0.237722    17A     -0.202088    18A     -0.166325

  @DF-RHF Final Energy:  -256.29398014289239

   => Energetics <=

    Nuclear Repulsion Energy =            155.9715884322270085
    One-Electron Energy =                -665.5638926580669477
    Two-Electron Energy =                 253.2983240829475449
    Total Energy =                       -256.2939801428923943
  Basis Set: (AUG-CC-PVTZ AUX)
    Blend: AUG-CC-PVTZ-RI
    Molecular point group: c1

    Geometry (in Angstrom), charge = -1, multiplicity = 1:

       Center              X                  Y                   Z               Mass
    ------------   -----------------  -----------------  -----------------  -----------------
         N           -0.334818764132    -1.106456656695     0.000033228110    14.003074004430
         N           -0.373739264132     1.122108943305     0.000087028110    14.003074004430
         N            0.908445735868    -0.679448056695    -0.000174971890    14.003074004430
         N            0.908435735868     0.668770943305    -0.000128971890    14.003074004430
         C           -1.109046264132    -0.005355056695     0.000184028110    12.000000000000
         H           -2.194210264132    -0.005365056695     0.000361028110     1.007825032230

  Basis Set: AUG-CC-PVTZ
    Blend: AUG-CC-PVTZ
  Basis Set: (AUG-CC-PVTZ AUX)
    Blend: AUG-CC-PVTZ-JKFIT
	 Reference Energy          =    -256.2939801428923943 [Eh]
	 Singles Energy            =      -0.0000000000000000 [Eh]
	 Same-Spin Energy          =      -0.2856356290744748 [Eh]
	 Opposite-Spin Energy      =      -0.7965914614068480 [Eh]
	 Correlation Energy        =      -1.0822270904813229 [Eh]
	 Total Energy              =    -257.3762072333736910 [Eh]

	 ================> DF-SCS-MP2 Energies <==================
	-----------------------------------------------------------
	 SCS Same-Spin Scale       =       0.3333333333333333 [-]
	 SCS Opposite-Spin Scale   =       1.2000000000000000 [-]
	 SCS Same-Spin Energy      =      -0.0952118763581583 [Eh]
	 SCS Opposite-Spin Energy  =      -0.9559097536882175 [Eh]
	 SCS Correlation Energy    =      -1.0511216300463757 [Eh]
	 SCS Total Energy          =    -257.3451017729387900 [Eh]
	-----------------------------------------------------------

  Dipole Moment: [D]
     X:    -2.3709      Y:    -0.0791      Z:     0.0004     Total:     2.3722

*** Psi4 exiting successfully. Buy a developer a beer!
