                               Psi4 1.3.2 release

  ==> Input File <==

--------------------------------------------------------------------------
#psi4
#
memory 32 gb

molecule  {
-1 1
  N       -0.3347890    -1.1274600     0.0000330
  N       -0.3348100     1.1274550     0.0000810
  N        0.9473750    -0.6741020    -0.0001810
  N        1.0416454     0.6407823    -0.0001509
  C       -1.0701170    -0.0000090     0.0001780
  H       -2.1552810    -0.0000190     0.0003550
units angstrom
no_reorient  #important for SAPT in psi4, default
symmetry c1  #important for SAPT in psi4, default
}

set PROPERTIES_ORIGIN ["COM"]
properties('MP2/aug-cc-pvtz', properties = ['dipole'])
--------------------------------------------------------------------------

    Molecular point group: c1
  Charge       = -1
  Multiplicity = 1
  Basis Set: AUG-CC-PVTZ
    Blend: AUG-CC-PVTZ
  Basis Set: (AUG-CC-PVTZ AUX)
    Blend: AUG-CC-PVTZ-JKFIT

    Orbital Energies [Eh]
    ---------------------

    Doubly Occupied:

       1A    -15.430750     2A    -15.429771     3A    -15.388090
       4A    -15.385544     5A    -11.094840     6A     -1.208702
       7A     -0.964551     8A     -0.935728     9A     -0.634532
      10A     -0.607464    11A     -0.476909    12A     -0.408062
      13A     -0.357181    14A     -0.277419    15A     -0.252737
      16A     -0.229674    17A     -0.187960    18A     -0.181696

  @DF-RHF Final Energy:  -256.28141407691152

   => Energetics <=

    Nuclear Repulsion Energy =            153.5250792606580603
    One-Electron Energy =                -660.7097658497262955
    Two-Electron Energy =                 250.9032725121567182
    Total Energy =                       -256.2814140769115170
  Basis Set: (AUG-CC-PVTZ AUX)
    Blend: AUG-CC-PVTZ-RI
    Molecular point group: c1

    Geometry (in Angstrom), charge = -1, multiplicity = 1:

       Center              X                  Y                   Z               Mass
    ------------   -----------------  -----------------  -----------------  -----------------
         N           -0.384954159250    -1.120697111413     0.000041077238    14.003074004430
         N           -0.384975159250     1.134217888587     0.000089077238    14.003074004430
         N            0.897209840750    -0.667339111413    -0.000172922762    14.003074004430
         N            0.991480240750     0.647545188587    -0.000142822762    14.003074004430
         C           -1.120282159250     0.006753888587     0.000186077238    12.000000000000
         H           -2.205446159250     0.006743888587     0.000363077238     1.007825032230

  Basis Set: AUG-CC-PVTZ
    Blend: AUG-CC-PVTZ
  Basis Set: (AUG-CC-PVTZ AUX)
    Blend: AUG-CC-PVTZ-JKFIT
	 Reference Energy          =    -256.2814140769115170 [Eh]
	 Singles Energy            =      -0.0000000000000000 [Eh]
	 Same-Spin Energy          =      -0.2864673805638315 [Eh]
	 Opposite-Spin Energy      =      -0.8015704794866351 [Eh]
	 Correlation Energy        =      -1.0880378600504665 [Eh]
	 Total Energy              =    -257.3694519369619798 [Eh]

	 ================> DF-SCS-MP2 Energies <==================
	-----------------------------------------------------------
	 SCS Same-Spin Scale       =       0.3333333333333333 [-]
	 SCS Opposite-Spin Scale   =       1.2000000000000000 [-]
	 SCS Same-Spin Energy      =      -0.0954891268546105 [Eh]
	 SCS Opposite-Spin Energy  =      -0.9618845753839620 [Eh]
	 SCS Correlation Energy    =      -1.0573737022385725 [Eh]
	 SCS Total Energy          =    -257.3387877791500955 [Eh]
	-----------------------------------------------------------

  Dipole Moment: [D]
     X:    -2.2454      Y:    -0.1054      Z:     0.0004     Total:     2.2479

*** Psi4 exiting successfully. Buy a developer a beer!
