                               Psi4 1.3.2 release

  ==> Input File <==

--------------------------------------------------------------------------
#psi4
#
memory 32 gb

molecule  {
-1 1
  N       -0.3347890    -1.1274600     0.0000330
  N       -0.3348100     1.1274550     0.0000810
  N        0.9473750    -0.6741020    -0.0001810
  N        0.9473650     0.6741170    -0.0001350
  C       -1.0701170    -0.0000090     0.0001780
  H       -2.1552810    -0.0000190     0.0003550
units angstrom
no_reorient  #important for SAPT in psi4, default
symmetry c1  #important for SAPT in psi4, default
}

set PROPERTIES_ORIGIN ["COM"]
properties('MP2/aug-cc-pvtz', properties = ['dipole'])
--------------------------------------------------------------------------

    Molecular point group: c1
  Charge       = -1
  Multiplicity = 1
  Basis Set: AUG-CC-PVTZ
    Blend: AUG-CC-PVTZ
  Basis Set: (AUG-CC-PVTZ AUX)
    Blend: AUG-CC-PVTZ-JKFIT

    Orbital Energies [Eh]
    ---------------------

    Doubly Occupied:

       1A    -15.423087     2A    -15.422251     3A    -15.390122
       4A    -15.390086     5A    -11.088188     6A     -1.218385
       7A     -0.991355     8A     -0.917629     9A     -0.628201
      10A     -0.621699    11A     -0.483591    12A     -0.413803
      13A     -0.357069    14A     -0.264389    15A     -0.250635
      16A     -0.246304    17A     -0.197597    18A     -0.170784

  @DF-RHF Final Energy:  -256.29160633303104

   => Energetics <=

    Nuclear Repulsion Energy =            154.9566952651657346
    One-Electron Energy =                -663.5462489046575456
    Two-Electron Energy =                 252.2979473064607419
    Total Energy =                       -256.2916063330310408
  Basis Set: (AUG-CC-PVTZ AUX)
    Blend: AUG-CC-PVTZ-RI
    Molecular point group: c1

    Geometry (in Angstrom), charge = -1, multiplicity = 1:

       Center              X                  Y                   Z               Mass
    ------------   -----------------  -----------------  -----------------  -----------------
         N           -0.365826180361    -1.127460186642     0.000037851383    14.003074004430
         N           -0.365847180361     1.127454813358     0.000085851383    14.003074004430
         N            0.916337819639    -0.674102186642    -0.000176148617    14.003074004430
         N            0.916327819639     0.674116813358    -0.000130148617    14.003074004430
         C           -1.101154180361    -0.000009186642     0.000182851383    12.000000000000
         H           -2.186318180361    -0.000019186642     0.000359851383     1.007825032230

  Basis Set: AUG-CC-PVTZ
    Blend: AUG-CC-PVTZ
  Basis Set: (AUG-CC-PVTZ AUX)
    Blend: AUG-CC-PVTZ-JKFIT
	 Reference Energy          =    -256.2916063330310408 [Eh]
	 Singles Energy            =      -0.0000000000000000 [Eh]
	 Same-Spin Energy          =      -0.2862951790996030 [Eh]
	 Opposite-Spin Energy      =      -0.7989829297642491 [Eh]
	 Correlation Energy        =      -1.0852781088638521 [Eh]
	 Total Energy              =    -257.3768844418949016 [Eh]

	 ================> DF-SCS-MP2 Energies <==================
	-----------------------------------------------------------
	 SCS Same-Spin Scale       =       0.3333333333333333 [-]
	 SCS Opposite-Spin Scale   =       1.2000000000000000 [-]
	 SCS Same-Spin Energy      =      -0.0954317263665343 [Eh]
	 SCS Opposite-Spin Energy  =      -0.9587795157170989 [Eh]
	 SCS Correlation Energy    =      -1.0542112420836331 [Eh]
	 SCS Total Energy          =    -257.3458175751146655 [Eh]
	-----------------------------------------------------------

  Dipole Moment: [D]
     X:    -2.3313      Y:    -0.0000      Z:     0.0004     Total:     2.3313

*** Psi4 exiting successfully. Buy a developer a beer!
