                               Psi4 1.4a3.dev225

  ==> Input File <==

--------------------------------------------------------------------------
#psi4
#
memory 32 gb

molecule  {
-1 1
  N       -0.3347890    -1.1274600     0.0000330
  N       -0.3348100     1.1274550     0.0000810
  N        0.9473750    -0.6741020    -0.0001810
  N        0.9285089     0.6807839    -0.0001318
  C       -1.0701170    -0.0000090     0.0001780
  H       -2.1552810    -0.0000190     0.0003550
units angstrom
no_reorient  #important for SAPT in psi4, default
symmetry c1  #important for SAPT in psi4, default
}

set PROPERTIES_ORIGIN ["COM"]
properties('MP2/aug-cc-pvtz', properties = ['dipole'])
--------------------------------------------------------------------------

    Molecular point group: c1
  Charge       = -1
  Multiplicity = 1
  Basis Set: AUG-CC-PVTZ
    Blend: AUG-CC-PVTZ
  Basis Set: (AUG-CC-PVTZ AUX)
    Blend: AUG-CC-PVTZ-JKFIT

    Orbital Energies [Eh]
    ---------------------

    Doubly Occupied:

       1A    -15.421440     2A    -15.420623     3A    -15.391163
       4A    -15.390426     5A    -11.086706     6A     -1.221287
       7A     -0.997453     8A     -0.913674     9A     -0.630124
      10A     -0.621229    11A     -0.485022    12A     -0.415374
      13A     -0.357324    14A     -0.264366    15A     -0.254365
      16A     -0.242228    17A     -0.201006    18A     -0.167471

  @DF-RHF Final Energy:  -256.29205835158098

   => Energetics <=

    Nuclear Repulsion Energy =            155.2577360981551351
    One-Electron Energy =                -664.1370246351743845
    Two-Electron Energy =                 252.5872301854383011
    Total Energy =                       -256.2920583515809767
  Basis Set: (AUG-CC-PVTZ AUX)
    Blend: AUG-CC-PVTZ-RI
    Molecular point group: c1

    Geometry (in Angstrom), charge = -1, multiplicity = 1:

       Center              X                  Y                   Z               Mass
    ------------   -----------------  -----------------  -----------------  -----------------
         N           -0.362000580526    -1.128812793573     0.000037202155    14.003074004430
         N           -0.362021580526     1.126102206427     0.000085202155    14.003074004430
         N            0.920163419474    -0.675454793573    -0.000176797845    14.003074004430
         N            0.901297319474     0.679431106427    -0.000127597845    14.003074004430
         C           -1.097328580526    -0.001361793573     0.000182202155    12.000000000000
         H           -2.182492580526    -0.001371793573     0.000359202155     1.007825032230

  Basis Set: AUG-CC-PVTZ
    Blend: AUG-CC-PVTZ
  Basis Set: (AUG-CC-PVTZ AUX)
    Blend: AUG-CC-PVTZ-JKFIT
	 Reference Energy          =    -256.2920583515809767 [Eh]
	 Singles Energy            =      -0.0000000000000000 [Eh]
	 Same-Spin Energy          =      -0.2862506557008818 [Eh]
	 Opposite-Spin Energy      =      -0.7985106284208151 [Eh]
	 Correlation Energy        =      -1.0847612841216969 [Eh]
	 Total Energy              =    -257.3768196357026454 [Eh]

	 ================> DF-SCS-MP2 Energies <==================
	-----------------------------------------------------------
	 SCS Same-Spin Scale       =       0.3333333333333333 [-]
	 SCS Opposite-Spin Scale   =       1.2000000000000000 [-]
	 SCS Same-Spin Energy      =      -0.0954168852336273 [Eh]
	 SCS Opposite-Spin Energy  =      -0.9582127541049781 [Eh]
	 SCS Correlation Energy    =      -1.0536296393386053 [Eh]
	 SCS Total Energy          =    -257.3456879909196005 [Eh]
	-----------------------------------------------------------

  Dipole Moment: [D]
     X:    -2.3426      Y:     0.0248      Z:     0.0004     Total:     2.3428

*** Psi4 exiting successfully. Buy a developer a beer!
