                               Psi4 1.4a3.dev225

  ==> Input File <==

--------------------------------------------------------------------------
#psi4
#
memory 32 gb

molecule  {
-1 1
  N       -0.3347890    -1.1274600     0.0000330
  N       -0.3348100     1.1274550     0.0000810
  N        0.9473750    -0.6741020    -0.0001810
  N        0.9473650     0.6741170    -0.0001350
  C       -1.0428027    -0.0418890     0.0001726
  H       -2.1552810    -0.0000190     0.0003550
units angstrom
no_reorient  #important for SAPT in psi4, default
symmetry c1  #important for SAPT in psi4, default
}

set PROPERTIES_ORIGIN ["COM"]
properties('MP2/aug-cc-pvtz', properties = ['dipole'])
--------------------------------------------------------------------------

    Molecular point group: c1
  Charge       = -1
  Multiplicity = 1
  Basis Set: AUG-CC-PVTZ
    Blend: AUG-CC-PVTZ
  Basis Set: (AUG-CC-PVTZ AUX)
    Blend: AUG-CC-PVTZ-JKFIT

    Orbital Energies [Eh]
    ---------------------

    Doubly Occupied:

       1A    -15.426264     2A    -15.418740     3A    -15.388712
       4A    -15.387559     5A    -11.087567     6A     -1.223457
       7A     -0.997494     8A     -0.918957     9A     -0.634128
      10A     -0.615262    11A     -0.481130    12A     -0.417673
      13A     -0.350498    14A     -0.267499    15A     -0.253443
      16A     -0.244756    17A     -0.201728    18A     -0.170779

  @DF-RHF Final Energy:  -256.28975238219027

   => Energetics <=

    Nuclear Repulsion Energy =            155.5216517705696049
    One-Electron Energy =                -664.6515170125305758
    Two-Electron Energy =                 252.8401128597706702
    Total Energy =                       -256.2897523821902723
  Basis Set: (AUG-CC-PVTZ AUX)
    Blend: AUG-CC-PVTZ-RI
    Molecular point group: c1

    Geometry (in Angstrom), charge = -1, multiplicity = 1:

       Center              X                  Y                   Z               Mass
    ------------   -----------------  -----------------  -----------------  -----------------
         N           -0.370575108572    -1.120178831693     0.000038790240    14.003074004430
         N           -0.370596108572     1.134736168307     0.000086790240    14.003074004430
         N            0.911588891428    -0.666820831693    -0.000175209760    14.003074004430
         N            0.911578891428     0.681398168307    -0.000129209760    14.003074004430
         C           -1.078588808572    -0.034607831693     0.000178390240    12.000000000000
         H           -2.191067108572     0.007262168307     0.000360790240     1.007825032230

  Basis Set: AUG-CC-PVTZ
    Blend: AUG-CC-PVTZ
  Basis Set: (AUG-CC-PVTZ AUX)
    Blend: AUG-CC-PVTZ-JKFIT
	 Reference Energy          =    -256.2897523821902723 [Eh]
	 Singles Energy            =      -0.0000000000000000 [Eh]
	 Same-Spin Energy          =      -0.2858671491741628 [Eh]
	 Opposite-Spin Energy      =      -0.7981385602768472 [Eh]
	 Correlation Energy        =      -1.0840057094510098 [Eh]
	 Total Energy              =    -257.3737580916412639 [Eh]

	 ================> DF-SCS-MP2 Energies <==================
	-----------------------------------------------------------
	 SCS Same-Spin Scale       =       0.3333333333333333 [-]
	 SCS Opposite-Spin Scale   =       1.2000000000000000 [-]
	 SCS Same-Spin Energy      =      -0.0952890497247209 [Eh]
	 SCS Opposite-Spin Energy  =      -0.9577662723322166 [Eh]
	 SCS Correlation Energy    =      -1.0530553220569374 [Eh]
	 SCS Total Energy          =    -257.3428077042472069 [Eh]
	-----------------------------------------------------------

  Dipole Moment: [D]
     X:    -2.2784      Y:    -0.1156      Z:     0.0004     Total:     2.2813

*** Psi4 exiting successfully. Buy a developer a beer!
