                               Psi4 1.3.2 release

  ==> Input File <==

--------------------------------------------------------------------------
#psi4
#
memory 32 gb

molecule  {
-1 1
  N       -0.4566679    -1.1981464     0.0000516
  N       -0.3348100     1.1274550     0.0000810
  N        0.9473750    -0.6741020    -0.0001810
  N        0.9473650     0.6741170    -0.0001350
  C       -1.0701170    -0.0000090     0.0001780
  H       -2.1552810    -0.0000190     0.0003550
units angstrom
no_reorient  #important for SAPT in psi4, default
symmetry c1  #important for SAPT in psi4, default
}

set PROPERTIES_ORIGIN ["COM"]
properties('MP2/aug-cc-pvtz', properties = ['dipole'])
--------------------------------------------------------------------------

    Molecular point group: c1
  Charge       = -1
  Multiplicity = 1
  Basis Set: AUG-CC-PVTZ
    Blend: AUG-CC-PVTZ
  Basis Set: (AUG-CC-PVTZ AUX)
    Blend: AUG-CC-PVTZ-JKFIT

    Orbital Energies [Eh]
    ---------------------

    Doubly Occupied:

       1A    -15.441931     2A    -15.430168     3A    -15.400100
       4A    -15.388076     5A    -11.097295     6A     -1.199025
       7A     -0.970720     8A     -0.924961     9A     -0.637828
      10A     -0.602052    11A     -0.469493    12A     -0.404071
      13A     -0.347449    14A     -0.286502    15A     -0.258961
      16A     -0.232242    17A     -0.195327    18A     -0.175265

  @DF-RHF Final Energy:  -256.26741240926913

   => Energetics <=

    Nuclear Repulsion Energy =            152.2331767132527034
    One-Electron Energy =                -658.0782465443400042
    Two-Electron Energy =                 249.5776574218182020
    Total Energy =                       -256.2674124092691272
  Basis Set: (AUG-CC-PVTZ AUX)
    Blend: AUG-CC-PVTZ-RI
    Molecular point group: c1

    Geometry (in Angstrom), charge = -1, multiplicity = 1:

       Center              X                  Y                   Z               Mass
    ------------   -----------------  -----------------  -----------------  -----------------
         N           -0.462977809091    -1.183805451401     0.000052677742    14.003074004430
         N           -0.341119909091     1.141795948599     0.000082077742    14.003074004430
         N            0.941065090909    -0.659761051401    -0.000179922258    14.003074004430
         N            0.941055090909     0.688457948599    -0.000133922258    14.003074004430
         C           -1.076426909091     0.014331948599     0.000179077742    12.000000000000
         H           -2.161590909091     0.014321948599     0.000356077742     1.007825032230

  Basis Set: AUG-CC-PVTZ
    Blend: AUG-CC-PVTZ
  Basis Set: (AUG-CC-PVTZ AUX)
    Blend: AUG-CC-PVTZ-JKFIT
	 Reference Energy          =    -256.2674124092691272 [Eh]
	 Singles Energy            =      -0.0000000000000000 [Eh]
	 Same-Spin Energy          =      -0.2884752438027541 [Eh]
	 Opposite-Spin Energy      =      -0.8070597978118667 [Eh]
	 Correlation Energy        =      -1.0955350416146208 [Eh]
	 Total Energy              =    -257.3629474508837234 [Eh]

	 ================> DF-SCS-MP2 Energies <==================
	-----------------------------------------------------------
	 SCS Same-Spin Scale       =       0.3333333333333333 [-]
	 SCS Opposite-Spin Scale   =       1.2000000000000000 [-]
	 SCS Same-Spin Energy      =      -0.0961584146009180 [Eh]
	 SCS Opposite-Spin Energy  =      -0.9684717573742400 [Eh]
	 SCS Correlation Energy    =      -1.0646301719751581 [Eh]
	 SCS Total Energy          =    -257.3320425812443091 [Eh]
	-----------------------------------------------------------

  Dipole Moment: [D]
     X:    -2.1516      Y:     0.1791      Z:     0.0004     Total:     2.1591

*** Psi4 exiting successfully. Buy a developer a beer!
