                               Psi4 1.3.2 release

  ==> Input File <==

--------------------------------------------------------------------------
#psi4
#
memory 32 gb

molecule  {
-1 1
  N       -0.3347890    -1.1274600     0.0000330
  N       -0.3348100     1.1274550     0.0000810
  N        0.9126271    -0.5857671    -0.0001736
  N        0.9473650     0.6741170    -0.0001350
  C       -1.0701170    -0.0000090     0.0001780
  H       -2.1552810    -0.0000190     0.0003550
units angstrom
no_reorient  #important for SAPT in psi4, default
symmetry c1  #important for SAPT in psi4, default
}

set PROPERTIES_ORIGIN ["COM"]
properties('MP2/aug-cc-pvtz', properties = ['dipole'])
--------------------------------------------------------------------------

    Molecular point group: c1
  Charge       = -1
  Multiplicity = 1
  Basis Set: AUG-CC-PVTZ
    Blend: AUG-CC-PVTZ
  Basis Set: (AUG-CC-PVTZ AUX)
    Blend: AUG-CC-PVTZ-JKFIT

    Orbital Energies [Eh]
    ---------------------

    Doubly Occupied:

       1A    -15.416930     2A    -15.410672     3A    -15.384217
       4A    -15.378033     5A    -11.088651     6A     -1.245744
       7A     -0.986231     8A     -0.939741     9A     -0.633724
      10A     -0.617232    11A     -0.485195    12A     -0.426612
      13A     -0.364254    14A     -0.265721    15A     -0.255463
      16A     -0.224762    17A     -0.192271    18A     -0.183125

  @DF-RHF Final Energy:  -256.29486414396803

   => Energetics <=

    Nuclear Repulsion Energy =            157.1272309571859012
    One-Electron Energy =                -667.8470367009067559
    Two-Electron Energy =                 254.4249415997527990
    Total Energy =                       -256.2948641439680273
  Basis Set: (AUG-CC-PVTZ AUX)
    Blend: AUG-CC-PVTZ-RI
    Molecular point group: c1

    Geometry (in Angstrom), charge = -1, multiplicity = 1:

       Center              X                  Y                   Z               Mass
    ------------   -----------------  -----------------  -----------------  -----------------
         N           -0.358776389549    -1.145381919074     0.000036350042    14.003074004430
         N           -0.358797389549     1.109533080926     0.000084350042    14.003074004430
         N            0.888639710451    -0.603689019074    -0.000170249958    14.003074004430
         N            0.923377610451     0.656195080926    -0.000131649958    14.003074004430
         C           -1.094104389549    -0.017930919074     0.000181350042    12.000000000000
         H           -2.179268389549    -0.017940919074     0.000358350042     1.007825032230

  Basis Set: AUG-CC-PVTZ
    Blend: AUG-CC-PVTZ
  Basis Set: (AUG-CC-PVTZ AUX)
    Blend: AUG-CC-PVTZ-JKFIT
	 Reference Energy          =    -256.2948641439680273 [Eh]
	 Singles Energy            =      -0.0000000000000000 [Eh]
	 Same-Spin Energy          =      -0.2832049207033218 [Eh]
	 Opposite-Spin Energy      =      -0.7925230536789825 [Eh]
	 Correlation Energy        =      -1.0757279743823043 [Eh]
	 Total Energy              =    -257.3705921183503165 [Eh]

	 ================> DF-SCS-MP2 Energies <==================
	-----------------------------------------------------------
	 SCS Same-Spin Scale       =       0.3333333333333333 [-]
	 SCS Opposite-Spin Scale   =       1.2000000000000000 [-]
	 SCS Same-Spin Energy      =      -0.0944016402344406 [Eh]
	 SCS Opposite-Spin Energy  =      -0.9510276644147789 [Eh]
	 SCS Correlation Energy    =      -1.0454293046492196 [Eh]
	 SCS Total Energy          =    -257.3402934486172740 [Eh]
	-----------------------------------------------------------

  Dipole Moment: [D]
     X:    -2.1731      Y:    -0.0321      Z:     0.0004     Total:     2.1733

*** Psi4 exiting successfully. Buy a developer a beer!
