                               Psi4 1.4a3.dev225

  ==> Input File <==

--------------------------------------------------------------------------
#psi4
#
memory 32 gb

molecule  {
-1 1
  N       -0.3347890    -1.1274600     0.0000330
  N       -0.3348100     1.1274550     0.0000810
  N        0.9662310    -0.6674348    -0.0001841
  N        0.9473650     0.6741170    -0.0001350
  C       -1.0701170    -0.0000090     0.0001780
  H       -2.1552810    -0.0000190     0.0003550
units angstrom
no_reorient  #important for SAPT in psi4, default
symmetry c1  #important for SAPT in psi4, default
}

set PROPERTIES_ORIGIN ["COM"]
properties('MP2/aug-cc-pvtz', properties = ['dipole'])
--------------------------------------------------------------------------

    Molecular point group: c1
  Charge       = -1
  Multiplicity = 1
  Basis Set: AUG-CC-PVTZ
    Blend: AUG-CC-PVTZ
  Basis Set: (AUG-CC-PVTZ AUX)
    Blend: AUG-CC-PVTZ-JKFIT

    Orbital Energies [Eh]
    ---------------------

    Doubly Occupied:

       1A    -15.424693     2A    -15.423831     3A    -15.389748
       4A    -15.389088     5A    -11.089624     6A     -1.215868
       7A     -0.985441     8A     -0.921509     9A     -0.628295
      10A     -0.620095    11A     -0.482198    12A     -0.412395
      13A     -0.356928    14A     -0.265178    15A     -0.250092
      16A     -0.246179    17A     -0.194362    18A     -0.174053

  @DF-RHF Final Energy:  -256.29055502641387

   => Energetics <=

    Nuclear Repulsion Energy =            154.6611927556286048
    One-Electron Energy =                -662.9643420559689275
    Two-Electron Energy =                 252.0125942739265099
    Total Energy =                       -256.2905550264138128
  Basis Set: (AUG-CC-PVTZ AUX)
    Blend: AUG-CC-PVTZ-RI
    Molecular point group: c1

    Geometry (in Angstrom), charge = -1, multiplicity = 1:

       Center              X                  Y                   Z               Mass
    ------------   -----------------  -----------------  -----------------  -----------------
         N           -0.369651759908    -1.128812854438     0.000038480324    14.003074004430
         N           -0.369672759908     1.126102145562     0.000086480324    14.003074004430
         N            0.931368240092    -0.668787654438    -0.000178619676    14.003074004430
         N            0.912502240092     0.672764145562    -0.000129519676    14.003074004430
         C           -1.104979759908    -0.001361854438     0.000183480324    12.000000000000
         H           -2.190143759908    -0.001371854438     0.000360480324     1.007825032230

  Basis Set: AUG-CC-PVTZ
    Blend: AUG-CC-PVTZ
  Basis Set: (AUG-CC-PVTZ AUX)
    Blend: AUG-CC-PVTZ-JKFIT
	 Reference Energy          =    -256.2905550264138697 [Eh]
	 Singles Energy            =      -0.0000000000000000 [Eh]
	 Same-Spin Energy          =      -0.2863301261746715 [Eh]
	 Opposite-Spin Energy      =      -0.7994643104701282 [Eh]
	 Correlation Energy        =      -1.0857944366447998 [Eh]
	 Total Energy              =    -257.3763494630586592 [Eh]

	 ================> DF-SCS-MP2 Energies <==================
	-----------------------------------------------------------
	 SCS Same-Spin Scale       =       0.3333333333333333 [-]
	 SCS Opposite-Spin Scale   =       1.2000000000000000 [-]
	 SCS Same-Spin Energy      =      -0.0954433753915571 [Eh]
	 SCS Opposite-Spin Energy  =      -0.9593571725641539 [Eh]
	 SCS Correlation Energy    =      -1.0548005479557110 [Eh]
	 SCS Total Energy          =    -257.3453555743695915 [Eh]
	-----------------------------------------------------------

  Dipole Moment: [D]
     X:    -2.3180      Y:     0.0231      Z:     0.0004     Total:     2.3181

*** Psi4 exiting successfully. Buy a developer a beer!
