                               Psi4 1.4a3.dev225

  ==> Input File <==

--------------------------------------------------------------------------
#psi4
#
memory 32 gb

molecule  {
-1 1
  N       -0.3347890    -1.1274600     0.0000330
  N       -0.3348100     1.1274550     0.0000810
  N        0.9002351    -0.6907701    -0.0001731
  N        0.9473650     0.6741170    -0.0001350
  C       -1.0701170    -0.0000090     0.0001780
  H       -2.1552810    -0.0000190     0.0003550
units angstrom
no_reorient  #important for SAPT in psi4, default
symmetry c1  #important for SAPT in psi4, default
}

set PROPERTIES_ORIGIN ["COM"]
properties('MP2/aug-cc-pvtz', properties = ['dipole'])
--------------------------------------------------------------------------

    Molecular point group: c1
  Charge       = -1
  Multiplicity = 1
  Basis Set: AUG-CC-PVTZ
    Blend: AUG-CC-PVTZ
  Basis Set: (AUG-CC-PVTZ AUX)
    Blend: AUG-CC-PVTZ-JKFIT

    Orbital Energies [Eh]
    ---------------------

    Doubly Occupied:

       1A    -15.418901     2A    -15.418072     3A    -15.392825
       4A    -15.390833     5A    -11.084407     6A     -1.226484
       7A     -1.006843     8A     -0.907635     9A     -0.634683
      10A     -0.618725    11A     -0.487251    12A     -0.418075
      13A     -0.357957    14A     -0.265145    15A     -0.259852
      16A     -0.234891    17A     -0.206420    18A     -0.162463

  @DF-RHF Final Energy:  -256.29146896774478

   => Energetics <=

    Nuclear Repulsion Energy =            155.7208113746847289
    One-Electron Energy =                -665.0416372973633088
    Two-Electron Energy =                 253.0293569549338031
    Total Energy =                       -256.2914689677447768
  Basis Set: (AUG-CC-PVTZ AUX)
    Blend: AUG-CC-PVTZ-RI
    Molecular point group: c1

    Geometry (in Angstrom), charge = -1, multiplicity = 1:

       Center              X                  Y                   Z               Mass
    ------------   -----------------  -----------------  -----------------  -----------------
         N           -0.356262251782    -1.124078496864     0.000036248600    14.003074004430
         N           -0.356283251782     1.130836503136     0.000084248600    14.003074004430
         N            0.878761848218    -0.687388596864    -0.000169851400    14.003074004430
         N            0.925891748218     0.677498503136    -0.000131751400    14.003074004430
         C           -1.091590251782     0.003372503136     0.000181248600    12.000000000000
         H           -2.176754251782     0.003362503136     0.000358248600     1.007825032230

  Basis Set: AUG-CC-PVTZ
    Blend: AUG-CC-PVTZ
  Basis Set: (AUG-CC-PVTZ AUX)
    Blend: AUG-CC-PVTZ-JKFIT
	 Reference Energy          =    -256.2914689677447768 [Eh]
	 Singles Energy            =      -0.0000000000000000 [Eh]
	 Same-Spin Energy          =      -0.2861566810998254 [Eh]
	 Opposite-Spin Energy      =      -0.7978109719195429 [Eh]
	 Correlation Energy        =      -1.0839676530193683 [Eh]
	 Total Energy              =    -257.3754366207641624 [Eh]

	 ================> DF-SCS-MP2 Energies <==================
	-----------------------------------------------------------
	 SCS Same-Spin Scale       =       0.3333333333333333 [-]
	 SCS Opposite-Spin Scale   =       1.2000000000000000 [-]
	 SCS Same-Spin Energy      =      -0.0953855603666085 [Eh]
	 SCS Opposite-Spin Energy  =      -0.9573731663034514 [Eh]
	 SCS Correlation Energy    =      -1.0527587266700598 [Eh]
	 SCS Total Energy          =    -257.3442276944148261 [Eh]
	-----------------------------------------------------------

  Dipole Moment: [D]
     X:    -2.3556      Y:    -0.0658      Z:     0.0004     Total:     2.3566

*** Psi4 exiting successfully. Buy a developer a beer!
