                               Psi4 1.3.2 release

  ==> Input File <==

--------------------------------------------------------------------------
#psi4
#
memory 32 gb

molecule  {
-1 1
  N       -0.3347890    -1.1274600     0.0000330
  N       -0.3348100     1.1274550     0.0000810
  N        1.0416549    -0.6407658    -0.0001967
  N        0.9473650     0.6741170    -0.0001350
  C       -1.0701170    -0.0000090     0.0001780
  H       -2.1552810    -0.0000190     0.0003550
units angstrom
no_reorient  #important for SAPT in psi4, default
symmetry c1  #important for SAPT in psi4, default
}

set PROPERTIES_ORIGIN ["COM"]
properties('MP2/aug-cc-pvtz', properties = ['dipole'])
--------------------------------------------------------------------------

    Molecular point group: c1
  Charge       = -1
  Multiplicity = 1
  Basis Set: AUG-CC-PVTZ
    Blend: AUG-CC-PVTZ
  Basis Set: (AUG-CC-PVTZ AUX)
    Blend: AUG-CC-PVTZ-JKFIT

    Orbital Energies [Eh]
    ---------------------

    Doubly Occupied:

       1A    -15.430750     2A    -15.429771     3A    -15.388089
       4A    -15.385544     5A    -11.094840     6A     -1.208702
       7A     -0.964551     8A     -0.935728     9A     -0.634532
      10A     -0.607465    11A     -0.476909    12A     -0.408062
      13A     -0.357180    14A     -0.277418    15A     -0.252738
      16A     -0.229674    17A     -0.187959    18A     -0.181696

  @DF-RHF Final Energy:  -256.28141433163717

   => Energetics <=

    Nuclear Repulsion Energy =            153.5250727061896896
    One-Electron Energy =                -660.7097538602721443
    Two-Electron Energy =                 250.9032668224452607
    Total Energy =                       -256.2814143316371656
  Basis Set: (AUG-CC-PVTZ AUX)
    Blend: AUG-CC-PVTZ-RI
    Molecular point group: c1

    Geometry (in Angstrom), charge = -1, multiplicity = 1:

       Center              X                  Y                   Z               Mass
    ------------   -----------------  -----------------  -----------------  -----------------
         N           -0.384954057808    -1.134223566198     0.000041036661    14.003074004430
         N           -0.384975057808     1.120691433802     0.000089036661    14.003074004430
         N            0.991489842192    -0.647529366198    -0.000188663339    14.003074004430
         N            0.897199942192     0.667353433802    -0.000126963339    14.003074004430
         C           -1.120282057808    -0.006772566198     0.000186036661    12.000000000000
         H           -2.205446057808    -0.006782566198     0.000363036661     1.007825032230

  Basis Set: AUG-CC-PVTZ
    Blend: AUG-CC-PVTZ
  Basis Set: (AUG-CC-PVTZ AUX)
    Blend: AUG-CC-PVTZ-JKFIT
	 Reference Energy          =    -256.2814143316371656 [Eh]
	 Singles Energy            =      -0.0000000000000000 [Eh]
	 Same-Spin Energy          =      -0.2864673737523348 [Eh]
	 Opposite-Spin Energy      =      -0.8015704613227179 [Eh]
	 Correlation Energy        =      -1.0880378350750526 [Eh]
	 Total Energy              =    -257.3694521667122217 [Eh]

	 ================> DF-SCS-MP2 Energies <==================
	-----------------------------------------------------------
	 SCS Same-Spin Scale       =       0.3333333333333333 [-]
	 SCS Opposite-Spin Scale   =       1.2000000000000000 [-]
	 SCS Same-Spin Energy      =      -0.0954891245841116 [Eh]
	 SCS Opposite-Spin Energy  =      -0.9618845535872614 [Eh]
	 SCS Correlation Energy    =      -1.0573736781713730 [Eh]
	 SCS Total Energy          =    -257.3387880098085247 [Eh]
	-----------------------------------------------------------

  Dipole Moment: [D]
     X:    -2.2454      Y:     0.1053      Z:     0.0004     Total:     2.2479

*** Psi4 exiting successfully. Buy a developer a beer!
