                               Psi4 1.4a3.dev225

  ==> Input File <==

--------------------------------------------------------------------------
#psi4
#
memory 32 gb

molecule  {
-1 1
  N       -0.3347890    -1.1274600     0.0000330
  N       -0.3348100     1.1274550     0.0000810
  N        0.9945149    -0.6574339    -0.0001889
  N        0.9473650     0.6741170    -0.0001350
  C       -1.0701170    -0.0000090     0.0001780
  H       -2.1552810    -0.0000190     0.0003550
units angstrom
no_reorient  #important for SAPT in psi4, default
symmetry c1  #important for SAPT in psi4, default
}

set PROPERTIES_ORIGIN ["COM"]
properties('MP2/aug-cc-pvtz', properties = ['dipole'])
--------------------------------------------------------------------------

    Molecular point group: c1
  Charge       = -1
  Multiplicity = 1
  Basis Set: AUG-CC-PVTZ
    Blend: AUG-CC-PVTZ
  Basis Set: (AUG-CC-PVTZ AUX)
    Blend: AUG-CC-PVTZ-JKFIT

    Orbital Energies [Eh]
    ---------------------

    Doubly Occupied:

       1A    -15.427025     2A    -15.426126     3A    -15.389164
       4A    -15.387657     5A    -11.091682     6A     -1.212704
       7A     -0.977006     8A     -0.927145     9A     -0.630359
      10A     -0.615682    11A     -0.480167    12A     -0.410548
      13A     -0.356893    14A     -0.268399    15A     -0.252599
      16A     -0.240207    17A     -0.189911    18A     -0.178780

  @DF-RHF Final Energy:  -256.28797804098537

   => Energetics <=

    Nuclear Repulsion Energy =            154.2272618632118508
    One-Electron Energy =                -662.1063748132527280
    Two-Electron Energy =                 251.5911349090554836
    Total Energy =                       -256.2879780409853652
  Basis Set: (AUG-CC-PVTZ AUX)
    Blend: AUG-CC-PVTZ-RI
    Molecular point group: c1

    Geometry (in Angstrom), charge = -1, multiplicity = 1:

       Center              X                  Y                   Z               Mass
    ------------   -----------------  -----------------  -----------------  -----------------
         N           -0.375390108940    -1.130841876420     0.000039454166    14.003074004430
         N           -0.375411108940     1.124073123580     0.000087454166    14.003074004430
         N            0.953913791060    -0.660815776420    -0.000182445834    14.003074004430
         N            0.906763891060     0.670735123580    -0.000128545834    14.003074004430
         C           -1.110718108940    -0.003390876420     0.000184454166    12.000000000000
         H           -2.195882108940    -0.003400876420     0.000361454166     1.007825032230

  Basis Set: AUG-CC-PVTZ
    Blend: AUG-CC-PVTZ
  Basis Set: (AUG-CC-PVTZ AUX)
    Blend: AUG-CC-PVTZ-JKFIT
	 Reference Energy          =    -256.2879780409853652 [Eh]
	 Singles Energy            =      -0.0000000000000000 [Eh]
	 Same-Spin Energy          =      -0.2863747222903060 [Eh]
	 Opposite-Spin Energy      =      -0.8002129482946434 [Eh]
	 Correlation Energy        =      -1.0865876705849495 [Eh]
	 Total Energy              =    -257.3745657115703125 [Eh]

	 ================> DF-SCS-MP2 Energies <==================
	-----------------------------------------------------------
	 SCS Same-Spin Scale       =       0.3333333333333333 [-]
	 SCS Opposite-Spin Scale   =       1.2000000000000000 [-]
	 SCS Same-Spin Energy      =      -0.0954582407634353 [Eh]
	 SCS Opposite-Spin Energy  =      -0.9602555379535720 [Eh]
	 SCS Correlation Energy    =      -1.0557137787170072 [Eh]
	 SCS Total Energy          =    -257.3436918197023715 [Eh]
	-----------------------------------------------------------

  Dipole Moment: [D]
     X:    -2.2942      Y:     0.0555      Z:     0.0004     Total:     2.2949

*** Psi4 exiting successfully. Buy a developer a beer!
