                               Psi4 1.4a3.dev225

  ==> Input File <==

--------------------------------------------------------------------------
#psi4
#
memory 32 gb

molecule  {
-1 1
  N       -0.3347890    -1.1274600     0.0000330
  N       -0.3348100     1.1274550     0.0000810
  N        0.9285190    -0.6807692    -0.0001779
  N        0.9473650     0.6741170    -0.0001350
  C       -1.0701170    -0.0000090     0.0001780
  H       -2.1552810    -0.0000190     0.0003550
units angstrom
no_reorient  #important for SAPT in psi4, default
symmetry c1  #important for SAPT in psi4, default
}

set PROPERTIES_ORIGIN ["COM"]
properties('MP2/aug-cc-pvtz', properties = ['dipole'])
--------------------------------------------------------------------------

    Molecular point group: c1
  Charge       = -1
  Multiplicity = 1
  Basis Set: AUG-CC-PVTZ
    Blend: AUG-CC-PVTZ
  Basis Set: (AUG-CC-PVTZ AUX)
    Blend: AUG-CC-PVTZ-JKFIT

    Orbital Energies [Eh]
    ---------------------

    Doubly Occupied:

       1A    -15.421440     2A    -15.420623     3A    -15.391164
       4A    -15.390426     5A    -11.086706     6A     -1.221287
       7A     -0.997453     8A     -0.913674     9A     -0.630125
      10A     -0.621228    11A     -0.485022    12A     -0.415374
      13A     -0.357324    14A     -0.264367    15A     -0.254365
      16A     -0.242228    17A     -0.201006    18A     -0.167471

  @DF-RHF Final Energy:  -256.29205827000379

   => Energetics <=

    Nuclear Repulsion Energy =            155.2577376422630664
    One-Electron Energy =                -664.1370274246048666
    Two-Electron Energy =                 252.5872315123380076
    Total Energy =                       -256.2920582700037926
  Basis Set: (AUG-CC-PVTZ AUX)
    Blend: AUG-CC-PVTZ-RI
    Molecular point group: c1

    Geometry (in Angstrom), charge = -1, multiplicity = 1:

       Center              X                  Y                   Z               Mass
    ------------   -----------------  -----------------  -----------------  -----------------
         N           -0.362000600814    -1.126107518846     0.000037222443    14.003074004430
         N           -0.362021600814     1.128807481154     0.000085222443    14.003074004430
         N            0.901307399186    -0.679416718846    -0.000173677557    14.003074004430
         N            0.920153399186     0.675469481154    -0.000130777557    14.003074004430
         C           -1.097328600814     0.001343481154     0.000182222443    12.000000000000
         H           -2.182492600814     0.001333481154     0.000359222443     1.007825032230

  Basis Set: AUG-CC-PVTZ
    Blend: AUG-CC-PVTZ
  Basis Set: (AUG-CC-PVTZ AUX)
    Blend: AUG-CC-PVTZ-JKFIT
	 Reference Energy          =    -256.2920582700037926 [Eh]
	 Singles Energy            =      -0.0000000000000000 [Eh]
	 Same-Spin Energy          =      -0.2862506545711065 [Eh]
	 Opposite-Spin Energy      =      -0.7985106296764449 [Eh]
	 Correlation Energy        =      -1.0847612842475516 [Eh]
	 Total Energy              =    -257.3768195542513695 [Eh]

	 ================> DF-SCS-MP2 Energies <==================
	-----------------------------------------------------------
	 SCS Same-Spin Scale       =       0.3333333333333333 [-]
	 SCS Opposite-Spin Scale   =       1.2000000000000000 [-]
	 SCS Same-Spin Energy      =      -0.0954168848570355 [Eh]
	 SCS Opposite-Spin Energy  =      -0.9582127556117339 [Eh]
	 SCS Correlation Energy    =      -1.0536296404687695 [Eh]
	 SCS Total Energy          =    -257.3456879104725772 [Eh]
	-----------------------------------------------------------

  Dipole Moment: [D]
     X:    -2.3426      Y:    -0.0248      Z:     0.0004     Total:     2.3428

*** Psi4 exiting successfully. Buy a developer a beer!
