                               Psi4 1.3.2 release

  ==> Input File <==

--------------------------------------------------------------------------
#psi4
#
memory 32 gb

molecule  {
-1 1
  N       -0.3347890    -1.1274600     0.0000330
  N       -0.3348100     1.1274550     0.0000810
  N        0.9473750    -0.6741020    -0.0001810
  N        0.9473665     0.4741170    -0.0001418
  C       -1.0701170    -0.0000090     0.0001780
  H       -2.1552810    -0.0000190     0.0003550
units angstrom
no_reorient  #important for SAPT in psi4, default
symmetry c1  #important for SAPT in psi4, default
}

set PROPERTIES_ORIGIN ["COM"]
properties('MP2/aug-cc-pvtz', properties = ['dipole'])
--------------------------------------------------------------------------

    Molecular point group: c1
  Charge       = -1
  Multiplicity = 1
  Basis Set: AUG-CC-PVTZ
    Blend: AUG-CC-PVTZ
  Basis Set: (AUG-CC-PVTZ AUX)
    Blend: AUG-CC-PVTZ-JKFIT

    Orbital Energies [Eh]
    ---------------------

    Doubly Occupied:

       1A    -15.412423     2A    -15.402350     3A    -15.377146
       4A    -15.362536     5A    -11.093592     6A     -1.282768
       7A     -0.981632     8A     -0.953390     9A     -0.642019
      10A     -0.600119    11A     -0.482748    12A     -0.442480
      13A     -0.376394    14A     -0.288092    15A     -0.245993
      16A     -0.216256    17A     -0.190641    18A     -0.170877

  @DF-RHF Final Energy:  -256.26970679621166

   => Energetics <=

    Nuclear Repulsion Energy =            158.4607498431408601
    One-Electron Energy =                -670.4179998873889872
    Two-Electron Energy =                 255.6875432480364339
    Total Energy =                       -256.2697067962116648
  Basis Set: (AUG-CC-PVTZ AUX)
    Blend: AUG-CC-PVTZ-RI
    Molecular point group: c1

    Geometry (in Angstrom), charge = -1, multiplicity = 1:

       Center              X                  Y                   Z               Mass
    ------------   -----------------  -----------------  -----------------  -----------------
         N           -0.365826484687    -1.086883398913     0.000039230994    14.003074004430
         N           -0.365847484687     1.168031601087     0.000087230994    14.003074004430
         N            0.916337515313    -0.633525398913    -0.000174769006    14.003074004430
         N            0.916329015313     0.514693601087    -0.000135569006    14.003074004430
         C           -1.101154484687     0.040567601087     0.000184230994    12.000000000000
         H           -2.186318484687     0.040557601087     0.000361230994     1.007825032230

  Basis Set: AUG-CC-PVTZ
    Blend: AUG-CC-PVTZ
  Basis Set: (AUG-CC-PVTZ AUX)
    Blend: AUG-CC-PVTZ-JKFIT
	 Reference Energy          =    -256.2697067962116648 [Eh]
	 Singles Energy            =      -0.0000000000000000 [Eh]
	 Same-Spin Energy          =      -0.2802869702921553 [Eh]
	 Opposite-Spin Energy      =      -0.7880066962542569 [Eh]
	 Correlation Energy        =      -1.0682936665464122 [Eh]
	 Total Energy              =    -257.3380004627580888 [Eh]

	 ================> DF-SCS-MP2 Energies <==================
	-----------------------------------------------------------
	 SCS Same-Spin Scale       =       0.3333333333333333 [-]
	 SCS Opposite-Spin Scale   =       1.2000000000000000 [-]
	 SCS Same-Spin Energy      =      -0.0934289900973851 [Eh]
	 SCS Opposite-Spin Energy  =      -0.9456080355051082 [Eh]
	 SCS Correlation Energy    =      -1.0390370256024932 [Eh]
	 SCS Total Energy          =    -257.3087438218141756 [Eh]
	-----------------------------------------------------------

  Dipole Moment: [D]
     X:    -1.8348      Y:    -0.0420      Z:     0.0003     Total:     1.8353

*** Psi4 exiting successfully. Buy a developer a beer!
