                               Psi4 1.3.2 release

  ==> Input File <==

--------------------------------------------------------------------------
#psi4
#
memory 32 gb

molecule  {
-1 1
  N       -0.3347890    -1.1274600     0.0000330
  N       -0.3348100     1.1274550     0.0000810
  N        0.9392675    -0.6517942    -0.0001792
  N        0.9473650     0.6741170    -0.0001350
  C       -1.0701170    -0.0000090     0.0001780
  H       -2.1552810    -0.0000190     0.0003550
units angstrom
no_reorient  #important for SAPT in psi4, default
symmetry c1  #important for SAPT in psi4, default
}

set PROPERTIES_ORIGIN ["COM"]
properties('MP2/aug-cc-pvtz', properties = ['dipole'])
--------------------------------------------------------------------------

    Molecular point group: c1
  Charge       = -1
  Multiplicity = 1
  Basis Set: AUG-CC-PVTZ
    Blend: AUG-CC-PVTZ
  Basis Set: (AUG-CC-PVTZ AUX)
    Blend: AUG-CC-PVTZ-JKFIT

    Orbital Energies [Eh]
    ---------------------

    Doubly Occupied:

       1A    -15.421470     2A    -15.419736     3A    -15.388559
       4A    -15.387109     5A    -11.088301     6A     -1.224481
       7A     -0.989740     8A     -0.923284     9A     -0.625444
      10A     -0.624944    11A     -0.483876    12A     -0.416642
      13A     -0.358757    14A     -0.261731    15A     -0.251783
      16A     -0.244480    17A     -0.195764    18A     -0.174231

  @DF-RHF Final Energy:  -256.29416634267915

   => Energetics <=

    Nuclear Repulsion Energy =            155.4796814571060963
    One-Electron Energy =                -664.5870330408429254
    Two-Electron Energy =                 252.8131852410576812
    Total Energy =                       -256.2941663426791479
  Basis Set: (AUG-CC-PVTZ AUX)
    Blend: AUG-CC-PVTZ-RI
    Molecular point group: c1

    Geometry (in Angstrom), charge = -1, multiplicity = 1:

       Center              X                  Y                   Z               Mass
    ------------   -----------------  -----------------  -----------------  -----------------
         N           -0.364181298829    -1.131986080969     0.000037486192    14.003074004430
         N           -0.364202298829     1.122928919031     0.000085486192    14.003074004430
         N            0.909875201171    -0.656320280969    -0.000174713808    14.003074004430
         N            0.917972701171     0.669590919031    -0.000130513808    14.003074004430
         C           -1.099509298829    -0.004535080969     0.000182486192    12.000000000000
         H           -2.184673298829    -0.004545080969     0.000359486192     1.007825032230

  Basis Set: AUG-CC-PVTZ
    Blend: AUG-CC-PVTZ
  Basis Set: (AUG-CC-PVTZ AUX)
    Blend: AUG-CC-PVTZ-JKFIT
	 Reference Energy          =    -256.2941663426791479 [Eh]
	 Singles Energy            =      -0.0000000000000000 [Eh]
	 Same-Spin Energy          =      -0.2854723407461458 [Eh]
	 Opposite-Spin Energy      =      -0.7972437385261784 [Eh]
	 Correlation Energy        =      -1.0827160792723243 [Eh]
	 Total Energy              =    -257.3768824219514499 [Eh]

	 ================> DF-SCS-MP2 Energies <==================
	-----------------------------------------------------------
	 SCS Same-Spin Scale       =       0.3333333333333333 [-]
	 SCS Opposite-Spin Scale   =       1.2000000000000000 [-]
	 SCS Same-Spin Energy      =      -0.0951574469153819 [Eh]
	 SCS Opposite-Spin Energy  =      -0.9566924862314140 [Eh]
	 SCS Correlation Energy    =      -1.0518499331467959 [Eh]
	 SCS Total Energy          =    -257.3460162758259457 [Eh]
	-----------------------------------------------------------

  Dipole Moment: [D]
     X:    -2.2965      Y:    -0.0066      Z:     0.0004     Total:     2.2965

*** Psi4 exiting successfully. Buy a developer a beer!
