                               Psi4 1.3.2 release

  ==> Input File <==

--------------------------------------------------------------------------
#psi4
#
memory 32 gb

molecule  {
-1 1
  N       -0.3347890    -1.1274600     0.0000330
  N       -0.3348100     1.1274550     0.0000810
  N        0.9473750    -0.6741020    -0.0001810
  N        0.9473657     0.5741170    -0.0001384
  C       -1.0701170    -0.0000090     0.0001780
  H       -2.1552810    -0.0000190     0.0003550
units angstrom
no_reorient  #important for SAPT in psi4, default
symmetry c1  #important for SAPT in psi4, default
}

set PROPERTIES_ORIGIN ["COM"]
properties('MP2/aug-cc-pvtz', properties = ['dipole'])
--------------------------------------------------------------------------

    Molecular point group: c1
  Charge       = -1
  Multiplicity = 1
  Basis Set: AUG-CC-PVTZ
    Blend: AUG-CC-PVTZ
  Basis Set: (AUG-CC-PVTZ AUX)
    Blend: AUG-CC-PVTZ-JKFIT

    Orbital Energies [Eh]
    ---------------------

    Doubly Occupied:

       1A    -15.419045     2A    -15.413455     3A    -15.383426
       4A    -15.376233     5A    -11.091027     6A     -1.243050
       7A     -0.974865     8A     -0.947435     9A     -0.633499
      10A     -0.614183    11A     -0.482476    12A     -0.424606
      13A     -0.364924    14A     -0.268740    15A     -0.253881
      16A     -0.223524    17A     -0.193764    18A     -0.182526

  @DF-RHF Final Energy:  -256.29386078137088

   => Energetics <=

    Nuclear Repulsion Energy =            156.5973934905057945
    One-Electron Energy =                -666.8011943671128847
    Two-Electron Energy =                 253.9099400952361805
    Total Energy =                       -256.2938607813708813
  Basis Set: (AUG-CC-PVTZ AUX)
    Blend: AUG-CC-PVTZ-RI
    Molecular point group: c1

    Geometry (in Angstrom), charge = -1, multiplicity = 1:

       Center              X                  Y                   Z               Mass
    ------------   -----------------  -----------------  -----------------  -----------------
         N           -0.365826322380    -1.107171792778     0.000038541189    14.003074004430
         N           -0.365847322380     1.147743207222     0.000086541189    14.003074004430
         N            0.916337677620    -0.653813792778    -0.000175458811    14.003074004430
         N            0.916328377620     0.594405207222    -0.000132858811    14.003074004430
         C           -1.101154322380     0.020279207222     0.000183541189    12.000000000000
         H           -2.186318322380     0.020269207222     0.000360541189     1.007825032230

  Basis Set: AUG-CC-PVTZ
    Blend: AUG-CC-PVTZ
  Basis Set: (AUG-CC-PVTZ AUX)
    Blend: AUG-CC-PVTZ-JKFIT
	 Reference Energy          =    -256.2938607813708813 [Eh]
	 Singles Energy            =      -0.0000000000000000 [Eh]
	 Same-Spin Energy          =      -0.2830709015990606 [Eh]
	 Opposite-Spin Energy      =      -0.7930199954764523 [Eh]
	 Correlation Energy        =      -1.0760908970755128 [Eh]
	 Total Energy              =    -257.3699516784463981 [Eh]

	 ================> DF-SCS-MP2 Energies <==================
	-----------------------------------------------------------
	 SCS Same-Spin Scale       =       0.3333333333333333 [-]
	 SCS Opposite-Spin Scale   =       1.2000000000000000 [-]
	 SCS Same-Spin Energy      =      -0.0943569671996869 [Eh]
	 SCS Opposite-Spin Energy  =      -0.9516239945717427 [Eh]
	 SCS Correlation Energy    =      -1.0459809617714295 [Eh]
	 SCS Total Energy          =    -257.3398417431423013 [Eh]
	-----------------------------------------------------------

  Dipole Moment: [D]
     X:    -2.1334      Y:    -0.0165      Z:     0.0004     Total:     2.1335

*** Psi4 exiting successfully. Buy a developer a beer!
