                               Psi4 1.3.2 release

  ==> Input File <==

--------------------------------------------------------------------------
#psi4
#
memory 32 gb

molecule  {
-1 1
  N       -0.3347890    -1.1274600     0.0000330
  N       -0.3348100     1.1274550     0.0000810
  N        0.7588153    -0.7407745    -0.0001495
  N        0.9473650     0.6741170    -0.0001350
  C       -1.0701170    -0.0000090     0.0001780
  H       -2.1552810    -0.0000190     0.0003550
units angstrom
no_reorient  #important for SAPT in psi4, default
symmetry c1  #important for SAPT in psi4, default
}

set PROPERTIES_ORIGIN ["COM"]
properties('MP2/aug-cc-pvtz', properties = ['dipole'])
--------------------------------------------------------------------------

    Molecular point group: c1
  Charge       = -1
  Multiplicity = 1
  Basis Set: AUG-CC-PVTZ
    Blend: AUG-CC-PVTZ
  Basis Set: (AUG-CC-PVTZ AUX)
    Blend: AUG-CC-PVTZ-JKFIT

    Orbital Energies [Eh]
    ---------------------

    Doubly Occupied:

       1A    -15.404838     2A    -15.403502     3A    -15.401833
       4A    -15.390788     5A    -11.072362     6A     -1.274469
       7A     -1.051886     8A     -0.877012     9A     -0.659633
      10A     -0.601322    11A     -0.501098    12A     -0.440768
      13A     -0.367595    14A     -0.282891    15A     -0.271204
      16A     -0.237582    17A     -0.188574    18A     -0.138250

  @DF-RHF Final Energy:  -256.25522416123812

   => Energetics <=

    Nuclear Repulsion Energy =            158.3090375372150618
    One-Electron Energy =                -669.9973073536679067
    Two-Electron Energy =                 255.4330456552147268
    Total Energy =                       -256.2552241612380612
  Basis Set: (AUG-CC-PVTZ AUX)
    Blend: AUG-CC-PVTZ-RI
    Molecular point group: c1

    Geometry (in Angstrom), charge = -1, multiplicity = 1:

       Center              X                  Y                   Z               Mass
    ------------   -----------------  -----------------  -----------------  -----------------
         N           -0.327570445755    -1.113933407243     0.000031460539    14.003074004430
         N           -0.327591445755     1.140981592757     0.000079460539    14.003074004430
         N            0.766033854245    -0.727247907243    -0.000151039461    14.003074004430
         N            0.954583554245     0.687643592757    -0.000136539461    14.003074004430
         C           -1.062898445755     0.013517592757     0.000176460539    12.000000000000
         H           -2.148062445755     0.013507592757     0.000353460539     1.007825032230

  Basis Set: AUG-CC-PVTZ
    Blend: AUG-CC-PVTZ
  Basis Set: (AUG-CC-PVTZ AUX)
    Blend: AUG-CC-PVTZ-JKFIT
	 Reference Energy          =    -256.2552241612381181 [Eh]
	 Singles Energy            =      -0.0000000000000000 [Eh]
	 Same-Spin Energy          =      -0.2850035128177803 [Eh]
	 Opposite-Spin Energy      =      -0.7943341924813416 [Eh]
	 Correlation Energy        =      -1.0793377052991220 [Eh]
	 Total Energy              =    -257.3345618665372285 [Eh]

	 ================> DF-SCS-MP2 Energies <==================
	-----------------------------------------------------------
	 SCS Same-Spin Scale       =       0.3333333333333333 [-]
	 SCS Opposite-Spin Scale   =       1.2000000000000000 [-]
	 SCS Same-Spin Energy      =      -0.0950011709392601 [Eh]
	 SCS Opposite-Spin Energy  =      -0.9532010309776099 [Eh]
	 SCS Correlation Energy    =      -1.0482022019168700 [Eh]
	 SCS Total Energy          =    -257.3034263631549834 [Eh]
	-----------------------------------------------------------

  Dipole Moment: [D]
     X:    -2.3521      Y:    -0.3842      Z:     0.0004     Total:     2.3833

*** Psi4 exiting successfully. Buy a developer a beer!
