                               Psi4 1.4a3.dev225

  ==> Input File <==

--------------------------------------------------------------------------
#psi4
#
memory 32 gb

molecule  {
-1 1
  N       -0.3347890    -1.1274600     0.0000330
  N       -0.3348100     1.1274550     0.0000810
  N        0.9473750    -0.6741020    -0.0001810
  N        0.9002248     0.6907843    -0.0001271
  C       -1.0701170    -0.0000090     0.0001780
  H       -2.1552810    -0.0000190     0.0003550
units angstrom
no_reorient  #important for SAPT in psi4, default
symmetry c1  #important for SAPT in psi4, default
}

set PROPERTIES_ORIGIN ["COM"]
properties('MP2/aug-cc-pvtz', properties = ['dipole'])
--------------------------------------------------------------------------

    Molecular point group: c1
  Charge       = -1
  Multiplicity = 1
  Basis Set: AUG-CC-PVTZ
    Blend: AUG-CC-PVTZ
  Basis Set: (AUG-CC-PVTZ AUX)
    Blend: AUG-CC-PVTZ-JKFIT

    Orbital Energies [Eh]
    ---------------------

    Doubly Occupied:

       1A    -15.418901     2A    -15.418073     3A    -15.392825
       4A    -15.390834     5A    -11.084407     6A     -1.226483
       7A     -1.006843     8A     -0.907635     9A     -0.634682
      10A     -0.618726    11A     -0.487251    12A     -0.418075
      13A     -0.357957    14A     -0.265145    15A     -0.259852
      16A     -0.234892    17A     -0.206420    18A     -0.162463

  @DF-RHF Final Energy:  -256.29146920242312

   => Energetics <=

    Nuclear Repulsion Energy =            155.7208091973550950
    One-Electron Energy =                -665.0416337192275478
    Two-Electron Energy =                 253.0293553194493370
    Total Energy =                       -256.2914692024231158
  Basis Set: (AUG-CC-PVTZ AUX)
    Blend: AUG-CC-PVTZ-RI
    Molecular point group: c1

    Geometry (in Angstrom), charge = -1, multiplicity = 1:

       Center              X                  Y                   Z               Mass
    ------------   -----------------  -----------------  -----------------  -----------------
         N           -0.356262190917    -1.130841714113     0.000036248600    14.003074004430
         N           -0.356283190917     1.124073285887     0.000084248600    14.003074004430
         N            0.925901809083    -0.677483714113    -0.000177751400    14.003074004430
         N            0.878751609083     0.687402585887    -0.000123851400    14.003074004430
         C           -1.091590190917    -0.003390714113     0.000181248600    12.000000000000
         H           -2.176754190917    -0.003400714113     0.000358248600     1.007825032230

  Basis Set: AUG-CC-PVTZ
    Blend: AUG-CC-PVTZ
  Basis Set: (AUG-CC-PVTZ AUX)
    Blend: AUG-CC-PVTZ-JKFIT
	 Reference Energy          =    -256.2914692024231158 [Eh]
	 Singles Energy            =      -0.0000000000000000 [Eh]
	 Same-Spin Energy          =      -0.2861566833312072 [Eh]
	 Opposite-Spin Energy      =      -0.7978109651824297 [Eh]
	 Correlation Energy        =      -1.0839676485136369 [Eh]
	 Total Energy              =    -257.3754368509367509 [Eh]

	 ================> DF-SCS-MP2 Energies <==================
	-----------------------------------------------------------
	 SCS Same-Spin Scale       =       0.3333333333333333 [-]
	 SCS Opposite-Spin Scale   =       1.2000000000000000 [-]
	 SCS Same-Spin Energy      =      -0.0953855611104024 [Eh]
	 SCS Opposite-Spin Energy  =      -0.9573731582189156 [Eh]
	 SCS Correlation Energy    =      -1.0527587193293180 [Eh]
	 SCS Total Energy          =    -257.3442279217524060 [Eh]
	-----------------------------------------------------------

  Dipole Moment: [D]
     X:    -2.3556      Y:     0.0658      Z:     0.0004     Total:     2.3566

*** Psi4 exiting successfully. Buy a developer a beer!
