                               Psi4 1.3.2 release

  ==> Input File <==

--------------------------------------------------------------------------
#psi4
#
memory 32 gb

molecule  {
-1 1
  N       -0.3000411    -1.2157949     0.0000238
  N       -0.3348100     1.1274550     0.0000810
  N        0.9473750    -0.6741020    -0.0001810
  N        0.9473650     0.6741170    -0.0001350
  C       -1.0701170    -0.0000090     0.0001780
  H       -2.1552810    -0.0000190     0.0003550
units angstrom
no_reorient  #important for SAPT in psi4, default
symmetry c1  #important for SAPT in psi4, default
}

set PROPERTIES_ORIGIN ["COM"]
properties('MP2/aug-cc-pvtz', properties = ['dipole'])
--------------------------------------------------------------------------

    Molecular point group: c1
  Charge       = -1
  Multiplicity = 1
  Basis Set: AUG-CC-PVTZ
    Blend: AUG-CC-PVTZ
  Basis Set: (AUG-CC-PVTZ AUX)
    Blend: AUG-CC-PVTZ-JKFIT

    Orbital Energies [Eh]
    ---------------------

    Doubly Occupied:

       1A    -15.427634     2A    -15.420465     3A    -15.404346
       4A    -15.398780     5A    -11.099006     6A     -1.210390
       7A     -0.995196     8A     -0.903171     9A     -0.630086
      10A     -0.610544    11A     -0.478686    12A     -0.408267
      13A     -0.361812    14A     -0.267103    15A     -0.251883
      16A     -0.243635    17A     -0.203061    18A     -0.161969

  @DF-RHF Final Energy:  -256.27680448222605

   => Energetics <=

    Nuclear Repulsion Energy =            153.1183812474107810
    One-Electron Energy =                -659.8383001207880625
    Two-Electron Energy =                 250.4431143911512549
    Total Energy =                       -256.2768044822260549
  Basis Set: (AUG-CC-PVTZ AUX)
    Blend: AUG-CC-PVTZ-RI
    Molecular point group: c1

    Geometry (in Angstrom), charge = -1, multiplicity = 1:

       Center              X                  Y                   Z               Mass
    ------------   -----------------  -----------------  -----------------  -----------------
         N           -0.338128071173    -1.197873354210     0.000030517916    14.003074004430
         N           -0.372896971173     1.145376545790     0.000087717916    14.003074004430
         N            0.909288028827    -0.656180454210    -0.000174282084    14.003074004430
         N            0.909278028827     0.692038545790    -0.000128282084    14.003074004430
         C           -1.108203971173     0.017912545790     0.000184717916    12.000000000000
         H           -2.193367971173     0.017902545790     0.000361717916     1.007825032230

  Basis Set: AUG-CC-PVTZ
    Blend: AUG-CC-PVTZ
  Basis Set: (AUG-CC-PVTZ AUX)
    Blend: AUG-CC-PVTZ-JKFIT
	 Reference Energy          =    -256.2768044822260549 [Eh]
	 Singles Energy            =      -0.0000000000000000 [Eh]
	 Same-Spin Energy          =      -0.2878804804186351 [Eh]
	 Opposite-Spin Energy      =      -0.8031380320271733 [Eh]
	 Correlation Energy        =      -1.0910185124458085 [Eh]
	 Total Energy              =    -257.3678229946718830 [Eh]

	 ================> DF-SCS-MP2 Energies <==================
	-----------------------------------------------------------
	 SCS Same-Spin Scale       =       0.3333333333333333 [-]
	 SCS Opposite-Spin Scale   =       1.2000000000000000 [-]
	 SCS Same-Spin Energy      =      -0.0959601601395450 [Eh]
	 SCS Opposite-Spin Energy  =      -0.9637656384326079 [Eh]
	 SCS Correlation Energy    =      -1.0597257985721529 [Eh]
	 SCS Total Energy          =    -257.3365302807982289 [Eh]
	-----------------------------------------------------------

  Dipole Moment: [D]
     X:    -2.2912      Y:     0.1043      Z:     0.0004     Total:     2.2936

*** Psi4 exiting successfully. Buy a developer a beer!
