                               Psi4 1.4a3.dev225

  ==> Input File <==

--------------------------------------------------------------------------
#psi4
#
memory 32 gb

molecule  {
-1 1
  N       -0.3347890    -1.1274600     0.0000330
  N       -0.3348100     1.1274550     0.0000810
  N        0.9473750    -0.6741020    -0.0001810
  N        0.9473651     0.6541170    -0.0001357
  C       -1.0701170    -0.0000090     0.0001780
  H       -2.1552810    -0.0000190     0.0003550
units angstrom
no_reorient  #important for SAPT in psi4, default
symmetry c1  #important for SAPT in psi4, default
}

set PROPERTIES_ORIGIN ["COM"]
properties('MP2/aug-cc-pvtz', properties = ['dipole'])
--------------------------------------------------------------------------

    Molecular point group: c1
  Charge       = -1
  Multiplicity = 1
  Basis Set: AUG-CC-PVTZ
    Blend: AUG-CC-PVTZ
  Basis Set: (AUG-CC-PVTZ AUX)
    Blend: AUG-CC-PVTZ-JKFIT

    Orbital Energies [Eh]
    ---------------------

    Doubly Occupied:

       1A    -15.422305     2A    -15.420830     3A    -15.388750
       4A    -15.387371     5A    -11.088764     6A     -1.222349
       7A     -0.988008     8A     -0.923482     9A     -0.626077
      10A     -0.623693    11A     -0.483327    12A     -0.415559
      13A     -0.358374    14A     -0.262309    15A     -0.250923
      16A     -0.245545    17A     -0.195034    18A     -0.174650

  @DF-RHF Final Energy:  -256.29348829098745

   => Energetics <=

    Nuclear Repulsion Energy =            155.2707087847977334
    One-Electron Energy =                -664.1736928462611331
    Two-Electron Energy =                 252.6094957704758883
    Total Energy =                       -256.2934882909875114
  Basis Set: (AUG-CC-PVTZ AUX)
    Blend: AUG-CC-PVTZ-RI
    Molecular point group: c1

    Geometry (in Angstrom), charge = -1, multiplicity = 1:

       Center              X                  Y                   Z               Mass
    ------------   -----------------  -----------------  -----------------  -----------------
         N           -0.365826200649    -1.123402507869     0.000037993402    14.003074004430
         N           -0.365847200649     1.131512492131     0.000085993402    14.003074004430
         N            0.916337799351    -0.670044507869    -0.000176006598    14.003074004430
         N            0.916327899351     0.658174492131    -0.000130706598    14.003074004430
         C           -1.101154200649     0.004048492131     0.000182993402    12.000000000000
         H           -2.186318200649     0.004038492131     0.000359993402     1.007825032230

  Basis Set: AUG-CC-PVTZ
    Blend: AUG-CC-PVTZ
  Basis Set: (AUG-CC-PVTZ AUX)
    Blend: AUG-CC-PVTZ-JKFIT
	 Reference Energy          =    -256.2934882909874545 [Eh]
	 Singles Energy            =      -0.0000000000000000 [Eh]
	 Same-Spin Energy          =      -0.2856432754472136 [Eh]
	 Opposite-Spin Energy      =      -0.7977409182693573 [Eh]
	 Correlation Energy        =      -1.0833841937165709 [Eh]
	 Total Energy              =    -257.3768724847040517 [Eh]

	 ================> DF-SCS-MP2 Energies <==================
	-----------------------------------------------------------
	 SCS Same-Spin Scale       =       0.3333333333333333 [-]
	 SCS Opposite-Spin Scale   =       1.2000000000000000 [-]
	 SCS Same-Spin Energy      =      -0.0952144251490712 [Eh]
	 SCS Opposite-Spin Energy  =      -0.9572891019232288 [Eh]
	 SCS Correlation Energy    =      -1.0525035270723000 [Eh]
	 SCS Total Energy          =    -257.3459918180597583 [Eh]
	-----------------------------------------------------------

  Dipole Moment: [D]
     X:    -2.2992      Y:    -0.0031      Z:     0.0004     Total:     2.2992

*** Psi4 exiting successfully. Buy a developer a beer!
