                               Psi4 1.3.2 release

  ==> Input File <==

--------------------------------------------------------------------------
#psi4
#
memory 32 gb

molecule  {
-1 1
  N       -0.3152243    -1.1144550     0.0000301
  N       -0.3348100     1.1274550     0.0000810
  N        0.9473750    -0.6741020    -0.0001810
  N        0.9473650     0.6741170    -0.0001350
  C       -1.0701170    -0.0000090     0.0001780
  H       -2.1552810    -0.0000190     0.0003550
units angstrom
no_reorient  #important for SAPT in psi4, default
symmetry c1  #important for SAPT in psi4, default
}

set PROPERTIES_ORIGIN ["COM"]
properties('MP2/aug-cc-pvtz', properties = ['dipole'])
--------------------------------------------------------------------------

    Molecular point group: c1
  Charge       = -1
  Multiplicity = 1
  Basis Set: AUG-CC-PVTZ
    Blend: AUG-CC-PVTZ
  Basis Set: (AUG-CC-PVTZ AUX)
    Blend: AUG-CC-PVTZ-JKFIT

    Orbital Energies [Eh]
    ---------------------

    Doubly Occupied:

       1A    -15.421244     2A    -15.419080     3A    -15.390519
       4A    -15.388177     5A    -11.086633     6A     -1.223198
       7A     -0.995482     8A     -0.916112     9A     -0.629559
      10A     -0.622307    11A     -0.485898    12A     -0.416105
      13A     -0.359525    14A     -0.261556    15A     -0.252913
      16A     -0.242475    17A     -0.199717    18A     -0.168631

  @DF-RHF Final Energy:  -256.29327281066037

   => Energetics <=

    Nuclear Repulsion Energy =            155.4570837060455233
    One-Electron Energy =                -664.5424513106945597
    Two-Electron Energy =                 252.7920947939886673
    Total Energy =                       -256.2932728106603690
  Basis Set: (AUG-CC-PVTZ AUX)
    Blend: AUG-CC-PVTZ-RI
    Molecular point group: c1

    Geometry (in Angstrom), charge = -1, multiplicity = 1:

       Center              X                  Y                   Z               Mass
    ------------   -----------------  -----------------  -----------------  -----------------
         N           -0.350230843756    -1.117093692264     0.000035539747    14.003074004430
         N           -0.369816543756     1.124816307736     0.000086439747    14.003074004430
         N            0.912368456244    -0.676740692264    -0.000175560253    14.003074004430
         N            0.912358456244     0.671478307736    -0.000129560253    14.003074004430
         C           -1.105123543756    -0.002647692264     0.000183439747    12.000000000000
         H           -2.190287543756    -0.002657692264     0.000360439747     1.007825032230

  Basis Set: AUG-CC-PVTZ
    Blend: AUG-CC-PVTZ
  Basis Set: (AUG-CC-PVTZ AUX)
    Blend: AUG-CC-PVTZ-JKFIT
	 Reference Energy          =    -256.2932728106603690 [Eh]
	 Singles Energy            =      -0.0000000000000000 [Eh]
	 Same-Spin Energy          =      -0.2859616250781211 [Eh]
	 Opposite-Spin Energy      =      -0.7977653157571831 [Eh]
	 Correlation Energy        =      -1.0837269408353043 [Eh]
	 Total Energy              =    -257.3769997514956458 [Eh]

	 ================> DF-SCS-MP2 Energies <==================
	-----------------------------------------------------------
	 SCS Same-Spin Scale       =       0.3333333333333333 [-]
	 SCS Opposite-Spin Scale   =       1.2000000000000000 [-]
	 SCS Same-Spin Energy      =      -0.0953205416927070 [Eh]
	 SCS Opposite-Spin Energy  =      -0.9573183789086197 [Eh]
	 SCS Correlation Energy    =      -1.0526389206013267 [Eh]
	 SCS Total Energy          =    -257.3459117312617082 [Eh]
	-----------------------------------------------------------

  Dipole Moment: [D]
     X:    -2.3522      Y:    -0.0381      Z:     0.0004     Total:     2.3525

*** Psi4 exiting successfully. Buy a developer a beer!
