                               Psi4 1.3.2 release

  ==> Input File <==

--------------------------------------------------------------------------
#psi4
#
memory 32 gb

molecule  {
-1 1
  N       -0.3347890    -1.1274600     0.0000330
  N       -0.3348100     1.1274550     0.0000810
  N        0.9473750    -0.6741020    -0.0001810
  N        0.9473650     0.6741170    -0.0001350
  C       -1.0701170    -0.0000090     0.0001780
  H       -2.0552810    -0.0000181     0.0003387
units angstrom
no_reorient  #important for SAPT in psi4, default
symmetry c1  #important for SAPT in psi4, default
}

set PROPERTIES_ORIGIN ["COM"]
properties('MP2/aug-cc-pvtz', properties = ['dipole'])
--------------------------------------------------------------------------

    Molecular point group: c1
  Charge       = -1
  Multiplicity = 1
  Basis Set: AUG-CC-PVTZ
    Blend: AUG-CC-PVTZ
  Basis Set: (AUG-CC-PVTZ AUX)
    Blend: AUG-CC-PVTZ-JKFIT

    Orbital Energies [Eh]
    ---------------------

    Doubly Occupied:

       1A    -15.421922     2A    -15.421085     3A    -15.388927
       4A    -15.388891     5A    -11.075328     6A     -1.217122
       7A     -0.990062     8A     -0.919840     9A     -0.638211
      10A     -0.627041    11A     -0.494547    12A     -0.412630
      13A     -0.363460    14A     -0.263296    15A     -0.249735
      16A     -0.245215    17A     -0.196534    18A     -0.169874

  @DF-RHF Final Energy:  -256.28560725306306

   => Energetics <=

    Nuclear Repulsion Energy =            155.4695870998928342
    One-Electron Energy =                -664.5429493165272561
    Two-Electron Energy =                 252.7877549635713876
    Total Energy =                       -256.2856072530630627
  Basis Set: (AUG-CC-PVTZ AUX)
    Blend: AUG-CC-PVTZ-RI
    Molecular point group: c1

    Geometry (in Angstrom), charge = -1, multiplicity = 1:

       Center              X                  Y                   Z               Mass
    ------------   -----------------  -----------------  -----------------  -----------------
         N           -0.367286370545    -1.127460199784     0.000038089394    14.003074004430
         N           -0.367307370545     1.127454800216     0.000086089394    14.003074004430
         N            0.914877629455    -0.674102199784    -0.000175910606    14.003074004430
         N            0.914867629455     0.674116800216    -0.000129910606    14.003074004430
         C           -1.102614370545    -0.000009199784     0.000183089394    12.000000000000
         H           -2.087778370545    -0.000018299784     0.000343789394     1.007825032230

  Basis Set: AUG-CC-PVTZ
    Blend: AUG-CC-PVTZ
  Basis Set: (AUG-CC-PVTZ AUX)
    Blend: AUG-CC-PVTZ-JKFIT
	 Reference Energy          =    -256.2856072530630627 [Eh]
	 Singles Energy            =      -0.0000000000000000 [Eh]
	 Same-Spin Energy          =      -0.2862120494329736 [Eh]
	 Opposite-Spin Energy      =      -0.7988536641098294 [Eh]
	 Correlation Energy        =      -1.0850657135428030 [Eh]
	 Total Energy              =    -257.3706729666058663 [Eh]

	 ================> DF-SCS-MP2 Energies <==================
	-----------------------------------------------------------
	 SCS Same-Spin Scale       =       0.3333333333333333 [-]
	 SCS Opposite-Spin Scale   =       1.2000000000000000 [-]
	 SCS Same-Spin Energy      =      -0.0954040164776579 [Eh]
	 SCS Opposite-Spin Energy  =      -0.9586243969317952 [Eh]
	 SCS Correlation Energy    =      -1.0540284134094531 [Eh]
	 SCS Total Energy          =    -257.3396356664725317 [Eh]
	-----------------------------------------------------------

  Dipole Moment: [D]
     X:    -2.3928      Y:    -0.0000      Z:     0.0004     Total:     2.3928

*** Psi4 exiting successfully. Buy a developer a beer!
