                               Psi4 1.3.2 release

  ==> Input File <==

--------------------------------------------------------------------------
#psi4
#
memory 32 gb

molecule  {
-1 1
  N       -0.2803764    -1.2589991     0.0000188
  N       -0.3348100     1.1274550     0.0000810
  N        0.9473750    -0.6741020    -0.0001810
  N        0.9473650     0.6741170    -0.0001350
  C       -1.0701170    -0.0000090     0.0001780
  H       -2.1552810    -0.0000190     0.0003550
units angstrom
no_reorient  #important for SAPT in psi4, default
symmetry c1  #important for SAPT in psi4, default
}

set PROPERTIES_ORIGIN ["COM"]
properties('MP2/aug-cc-pvtz', properties = ['dipole'])
--------------------------------------------------------------------------

    Molecular point group: c1
  Charge       = -1
  Multiplicity = 1
  Basis Set: AUG-CC-PVTZ
    Blend: AUG-CC-PVTZ
  Basis Set: (AUG-CC-PVTZ AUX)
    Blend: AUG-CC-PVTZ-JKFIT

    Orbital Energies [Eh]
    ---------------------

    Doubly Occupied:

       1A    -15.430052     2A    -15.419434     3A    -15.410714
       4A    -15.402856     5A    -11.103583     6A     -1.207200
       7A     -0.997362     8A     -0.897059     9A     -0.633581
      10A     -0.602197    11A     -0.476647    12A     -0.406108
      13A     -0.365141    14A     -0.268675    15A     -0.252464
      16A     -0.239315    17A     -0.206385    18A     -0.157712

  @DF-RHF Final Energy:  -256.26506425940073

   => Energetics <=

    Nuclear Repulsion Energy =            152.2700040627062776
    One-Electron Energy =                -658.1171692100966766
    Two-Electron Energy =                 249.5821008879896681
    Total Energy =                       -256.2650642594007309
  Basis Set: (AUG-CC-PVTZ AUX)
    Blend: AUG-CC-PVTZ-RI
    Molecular point group: c1

    Geometry (in Angstrom), charge = -1, multiplicity = 1:

       Center              X                  Y                   Z               Mass
    ------------   -----------------  -----------------  -----------------  -----------------
         N           -0.322453022961    -1.232312115948     0.000026532335    14.003074004430
         N           -0.376886622961     1.154141984052     0.000088732335    14.003074004430
         N            0.905298377039    -0.647415015948    -0.000173267665    14.003074004430
         N            0.905288377039     0.700803984052    -0.000127267665    14.003074004430
         C           -1.112193622961     0.026677984052     0.000185732335    12.000000000000
         H           -2.197357622961     0.026667984052     0.000362732335     1.007825032230

  Basis Set: AUG-CC-PVTZ
    Blend: AUG-CC-PVTZ
  Basis Set: (AUG-CC-PVTZ AUX)
    Blend: AUG-CC-PVTZ-JKFIT
	 Reference Energy          =    -256.2650642594007309 [Eh]
	 Singles Energy            =      -0.0000000000000000 [Eh]
	 Same-Spin Energy          =      -0.2887179718925801 [Eh]
	 Opposite-Spin Energy      =      -0.8054373686646707 [Eh]
	 Correlation Energy        =      -1.0941553405572508 [Eh]
	 Total Energy              =    -257.3592195999580099 [Eh]

	 ================> DF-SCS-MP2 Energies <==================
	-----------------------------------------------------------
	 SCS Same-Spin Scale       =       0.3333333333333333 [-]
	 SCS Opposite-Spin Scale   =       1.2000000000000000 [-]
	 SCS Same-Spin Energy      =      -0.0962393239641934 [Eh]
	 SCS Opposite-Spin Energy  =      -0.9665248423976048 [Eh]
	 SCS Correlation Energy    =      -1.0627641663617982 [Eh]
	 SCS Total Energy          =    -257.3278284257625046 [Eh]
	-----------------------------------------------------------

  Dipole Moment: [D]
     X:    -2.2753      Y:     0.1453      Z:     0.0004     Total:     2.2799

*** Psi4 exiting successfully. Buy a developer a beer!
