                               Psi4 1.3.2 release

  ==> Input File <==

--------------------------------------------------------------------------
#psi4
#
memory 32 gb

molecule  {
-1 1
  N       -0.3347890    -1.1274600     0.0000330
  N       -0.3348100     1.1274550     0.0000810
  N        0.9473750    -0.6741020    -0.0001810
  N        0.7588041     0.7407864    -0.0001032
  C       -1.0701170    -0.0000090     0.0001780
  H       -2.1552810    -0.0000190     0.0003550
units angstrom
no_reorient  #important for SAPT in psi4, default
symmetry c1  #important for SAPT in psi4, default
}

set PROPERTIES_ORIGIN ["COM"]
properties('MP2/aug-cc-pvtz', properties = ['dipole'])
--------------------------------------------------------------------------

    Molecular point group: c1
  Charge       = -1
  Multiplicity = 1
  Basis Set: AUG-CC-PVTZ
    Blend: AUG-CC-PVTZ
  Basis Set: (AUG-CC-PVTZ AUX)
    Blend: AUG-CC-PVTZ-JKFIT

    Orbital Energies [Eh]
    ---------------------

    Doubly Occupied:

       1A    -15.404838     2A    -15.403502     3A    -15.401833
       4A    -15.390789     5A    -11.072362     6A     -1.274467
       7A     -1.051886     8A     -0.877012     9A     -0.659633
      10A     -0.601323    11A     -0.501098    12A     -0.440768
      13A     -0.367594    14A     -0.282892    15A     -0.271204
      16A     -0.237582    17A     -0.188575    18A     -0.138250

  @DF-RHF Final Energy:  -256.25522577257829

   => Energetics <=

    Nuclear Repulsion Energy =            158.3090237284876309
    One-Electron Energy =                -669.9972845878519365
    Two-Electron Energy =                 255.4330350867859920
    Total Energy =                       -256.2552257725782852
  Basis Set: (AUG-CC-PVTZ AUX)
    Blend: AUG-CC-PVTZ-RI
    Molecular point group: c1

    Geometry (in Angstrom), charge = -1, multiplicity = 1:

       Center              X                  Y                   Z               Mass
    ------------   -----------------  -----------------  -----------------  -----------------
         N           -0.327570202294    -1.140986337101     0.000031399674    14.003074004430
         N           -0.327591202294     1.113928662899     0.000079399674    14.003074004430
         N            0.954593797706    -0.687628337101    -0.000182600326    14.003074004430
         N            0.766022897706     0.727260062899    -0.000104800326    14.003074004430
         C           -1.062898202294    -0.013535337101     0.000176399674    12.000000000000
         H           -2.148062202294    -0.013545337101     0.000353399674     1.007825032230

  Basis Set: AUG-CC-PVTZ
    Blend: AUG-CC-PVTZ
  Basis Set: (AUG-CC-PVTZ AUX)
    Blend: AUG-CC-PVTZ-JKFIT
	 Reference Energy          =    -256.2552257725782852 [Eh]
	 Singles Energy            =      -0.0000000000000000 [Eh]
	 Same-Spin Energy          =      -0.2850035388397746 [Eh]
	 Opposite-Spin Energy      =      -0.7943341894287588 [Eh]
	 Correlation Energy        =      -1.0793377282685332 [Eh]
	 Total Energy              =    -257.3345635008467980 [Eh]

	 ================> DF-SCS-MP2 Energies <==================
	-----------------------------------------------------------
	 SCS Same-Spin Scale       =       0.3333333333333333 [-]
	 SCS Opposite-Spin Scale   =       1.2000000000000000 [-]
	 SCS Same-Spin Energy      =      -0.0950011796132582 [Eh]
	 SCS Opposite-Spin Energy  =      -0.9532010273145105 [Eh]
	 SCS Correlation Energy    =      -1.0482022069277688 [Eh]
	 SCS Total Energy          =    -257.3034279795060684 [Eh]
	-----------------------------------------------------------

  Dipole Moment: [D]
     X:    -2.3521      Y:     0.3841      Z:     0.0004     Total:     2.3833

*** Psi4 exiting successfully. Buy a developer a beer!
