                               Psi4 1.3.2 release

  ==> Input File <==

--------------------------------------------------------------------------
#psi4
#
memory 32 gb

molecule  {
-1 1
  N       -0.3347890    -1.1274600     0.0000330
  N       -0.3348100     1.1274550     0.0000810
  N        0.9550919    -0.6965479    -0.0001827
  N        0.9473650     0.6741170    -0.0001350
  C       -1.0701170    -0.0000090     0.0001780
  H       -2.1552810    -0.0000190     0.0003550
units angstrom
no_reorient  #important for SAPT in psi4, default
symmetry c1  #important for SAPT in psi4, default
}

set PROPERTIES_ORIGIN ["COM"]
properties('MP2/aug-cc-pvtz', properties = ['dipole'])
--------------------------------------------------------------------------

    Molecular point group: c1
  Charge       = -1
  Multiplicity = 1
  Basis Set: AUG-CC-PVTZ
    Blend: AUG-CC-PVTZ
  Basis Set: (AUG-CC-PVTZ AUX)
    Blend: AUG-CC-PVTZ-JKFIT

    Orbital Energies [Eh]
    ---------------------

    Doubly Occupied:

       1A    -15.425439     2A    -15.423816     3A    -15.393073
       4A    -15.391683     5A    -11.088078     6A     -1.212748
       7A     -0.993064     8A     -0.912062     9A     -0.630962
      10A     -0.618308    11A     -0.483366    12A     -0.411180
      13A     -0.355470    14A     -0.267799    15A     -0.254509
      16A     -0.242007    17A     -0.199510    18A     -0.167362

  @DF-RHF Final Energy:  -256.28810405826141

   => Energetics <=

    Nuclear Repulsion Energy =            154.4465703195866979
    One-Electron Energy =                -662.5284747171579056
    Two-Electron Energy =                 251.7938003393097688
    Total Energy =                       -256.2881040582614105
  Basis Set: (AUG-CC-PVTZ AUX)
    Blend: AUG-CC-PVTZ-RI
    Molecular point group: c1

    Geometry (in Angstrom), charge = -1, multiplicity = 1:

       Center              X                  Y                   Z               Mass
    ------------   -----------------  -----------------  -----------------  -----------------
         N           -0.367391815427    -1.122906274044     0.000038196286    14.003074004430
         N           -0.367412815427     1.132008725956     0.000086196286    14.003074004430
         N            0.922489084573    -0.691994174044    -0.000177503714    14.003074004430
         N            0.914762184573     0.678670725956    -0.000129803714    14.003074004430
         C           -1.102719815427     0.004544725956     0.000183196286    12.000000000000
         H           -2.187883815427     0.004534725956     0.000360196286     1.007825032230

  Basis Set: AUG-CC-PVTZ
    Blend: AUG-CC-PVTZ
  Basis Set: (AUG-CC-PVTZ AUX)
    Blend: AUG-CC-PVTZ-JKFIT
	 Reference Energy          =    -256.2881040582614105 [Eh]
	 Singles Energy            =      -0.0000000000000000 [Eh]
	 Same-Spin Energy          =      -0.2871434587777724 [Eh]
	 Opposite-Spin Energy      =      -0.8007928714775108 [Eh]
	 Correlation Energy        =      -1.0879363302552831 [Eh]
	 Total Energy              =    -257.3760403885166852 [Eh]

	 ================> DF-SCS-MP2 Energies <==================
	-----------------------------------------------------------
	 SCS Same-Spin Scale       =       0.3333333333333333 [-]
	 SCS Opposite-Spin Scale   =       1.2000000000000000 [-]
	 SCS Same-Spin Energy      =      -0.0957144862592575 [Eh]
	 SCS Opposite-Spin Energy  =      -0.9609514457730128 [Eh]
	 SCS Correlation Energy    =      -1.0566659320322702 [Eh]
	 SCS Total Energy          =    -257.3447699902936847 [Eh]
	-----------------------------------------------------------

  Dipole Moment: [D]
     X:    -2.3629      Y:     0.0060      Z:     0.0004     Total:     2.3629

*** Psi4 exiting successfully. Buy a developer a beer!
