                               Psi4 1.3.2 release

  ==> Input File <==

--------------------------------------------------------------------------
#psi4
#
memory 32 gb

molecule  {
-1 1
  N       -0.3347890    -1.1274600     0.0000330
  N       -0.3348100     1.1274550     0.0000810
  N        0.9473750    -0.6741020    -0.0001810
  N        0.9473650     0.6741170    -0.0001350
  C       -1.0701170    -0.0000090     0.0001780
  H       -1.9552810    -0.0000172     0.0003224
units angstrom
no_reorient  #important for SAPT in psi4, default
symmetry c1  #important for SAPT in psi4, default
}

set PROPERTIES_ORIGIN ["COM"]
properties('MP2/aug-cc-pvtz', properties = ['dipole'])
--------------------------------------------------------------------------

    Molecular point group: c1
  Charge       = -1
  Multiplicity = 1
  Basis Set: AUG-CC-PVTZ
    Blend: AUG-CC-PVTZ
  Basis Set: (AUG-CC-PVTZ AUX)
    Blend: AUG-CC-PVTZ-JKFIT

    Orbital Energies [Eh]
    ---------------------

    Doubly Occupied:

       1A    -15.421068     2A    -15.420232     3A    -15.388172
       4A    -15.388137     5A    -11.062718     6A     -1.216200
       7A     -0.989086     8A     -0.923833     9A     -0.660337
      10A     -0.626245    11A     -0.504152    12A     -0.411798
      13A     -0.368375    14A     -0.262595    15A     -0.249100
      16A     -0.244375    17A     -0.195726    18A     -0.169381

  @DF-RHF Final Energy:  -256.25622029327775

   => Energetics <=

    Nuclear Repulsion Energy =            156.0636541836238962
    One-Electron Energy =                -665.6366854605763592
    Two-Electron Energy =                 253.3168109836747135
    Total Energy =                       -256.2562202932777495
  Basis Set: (AUG-CC-PVTZ AUX)
    Blend: AUG-CC-PVTZ-RI
    Molecular point group: c1

    Geometry (in Angstrom), charge = -1, multiplicity = 1:

       Center              X                  Y                   Z               Mass
    ------------   -----------------  -----------------  -----------------  -----------------
         N           -0.368746560728    -1.127460212926     0.000038327405    14.003074004430
         N           -0.368767560728     1.127454787074     0.000086327405    14.003074004430
         N            0.913417439272    -0.674102212926    -0.000175672595    14.003074004430
         N            0.913407439272     0.674116787074    -0.000129672595    14.003074004430
         C           -1.104074560728    -0.000009212926     0.000183327405    12.000000000000
         H           -1.989238560728    -0.000017412926     0.000327727405     1.007825032230

  Basis Set: AUG-CC-PVTZ
    Blend: AUG-CC-PVTZ
  Basis Set: (AUG-CC-PVTZ AUX)
    Blend: AUG-CC-PVTZ-JKFIT
	 Reference Energy          =    -256.2562202932777495 [Eh]
	 Singles Energy            =      -0.0000000000000000 [Eh]
	 Same-Spin Energy          =      -0.2862318294671388 [Eh]
	 Opposite-Spin Energy      =      -0.7991326363674388 [Eh]
	 Correlation Energy        =      -1.0853644658345776 [Eh]
	 Total Energy              =    -257.3415847591123224 [Eh]

	 ================> DF-SCS-MP2 Energies <==================
	-----------------------------------------------------------
	 SCS Same-Spin Scale       =       0.3333333333333333 [-]
	 SCS Opposite-Spin Scale   =       1.2000000000000000 [-]
	 SCS Same-Spin Energy      =      -0.0954106098223796 [Eh]
	 SCS Opposite-Spin Energy  =      -0.9589591636409265 [Eh]
	 SCS Correlation Energy    =      -1.0543697734633062 [Eh]
	 SCS Total Energy          =    -257.3105900667410424 [Eh]
	-----------------------------------------------------------

  Dipole Moment: [D]
     X:    -2.4314      Y:    -0.0000      Z:     0.0004     Total:     2.4314

*** Psi4 exiting successfully. Buy a developer a beer!
