                               Psi4 1.3.2 release

  ==> Input File <==

--------------------------------------------------------------------------
#psi4
#
memory 32 gb

molecule  {
-1 1
  N       -0.3425059    -1.1050141     0.0000351
  N       -0.3348100     1.1274550     0.0000810
  N        0.9473750    -0.6741020    -0.0001810
  N        0.9473650     0.6741170    -0.0001350
  C       -1.0701170    -0.0000090     0.0001780
  H       -2.1552810    -0.0000190     0.0003550
units angstrom
no_reorient  #important for SAPT in psi4, default
symmetry c1  #important for SAPT in psi4, default
}

set PROPERTIES_ORIGIN ["COM"]
properties('MP2/aug-cc-pvtz', properties = ['dipole'])
--------------------------------------------------------------------------

    Molecular point group: c1
  Charge       = -1
  Multiplicity = 1
  Basis Set: AUG-CC-PVTZ
    Blend: AUG-CC-PVTZ
  Basis Set: (AUG-CC-PVTZ AUX)
    Blend: AUG-CC-PVTZ-JKFIT

    Orbital Energies [Eh]
    ---------------------

    Doubly Occupied:

       1A    -15.423304     2A    -15.421344     3A    -15.387855
       4A    -15.386218     5A    -11.085155     6A     -1.220781
       7A     -0.990638     8A     -0.921569     9A     -0.631801
      10A     -0.620202    11A     -0.485019    12A     -0.415496
      13A     -0.356390    14A     -0.264411    15A     -0.249432
      16A     -0.245848    17A     -0.196816    18A     -0.172719

  @DF-RHF Final Energy:  -256.29286573883240

   => Energetics <=

    Nuclear Repulsion Energy =            155.4475144060586729
    One-Electron Energy =                -664.5307616334439444
    Two-Electron Energy =                 252.7903814885529243
    Total Energy =                       -256.2928657388323472
  Basis Set: (AUG-CC-PVTZ AUX)
    Blend: AUG-CC-PVTZ-RI
    Molecular point group: c1

    Geometry (in Angstrom), charge = -1, multiplicity = 1:

       Center              X                  Y                   Z               Mass
    ------------   -----------------  -----------------  -----------------  -----------------
         N           -0.371977445295    -1.109568199241     0.000039525327    14.003074004430
         N           -0.364281545295     1.122900900759     0.000085425327    14.003074004430
         N            0.917903454705    -0.678656099241    -0.000176574673    14.003074004430
         N            0.917893454705     0.669562900759    -0.000130574673    14.003074004430
         C           -1.099588545295    -0.004563099241     0.000182425327    12.000000000000
         H           -2.184752545295    -0.004573099241     0.000359425327     1.007825032230

  Basis Set: AUG-CC-PVTZ
    Blend: AUG-CC-PVTZ
  Basis Set: (AUG-CC-PVTZ AUX)
    Blend: AUG-CC-PVTZ-JKFIT
	 Reference Energy          =    -256.2928657388324041 [Eh]
	 Singles Energy            =      -0.0000000000000000 [Eh]
	 Same-Spin Energy          =      -0.2859248070771195 [Eh]
	 Opposite-Spin Energy      =      -0.7980539332605401 [Eh]
	 Correlation Energy        =      -1.0839787403376597 [Eh]
	 Total Energy              =    -257.3768444791700745 [Eh]

	 ================> DF-SCS-MP2 Energies <==================
	-----------------------------------------------------------
	 SCS Same-Spin Scale       =       0.3333333333333333 [-]
	 SCS Opposite-Spin Scale   =       1.2000000000000000 [-]
	 SCS Same-Spin Energy      =      -0.0953082690257065 [Eh]
	 SCS Opposite-Spin Energy  =      -0.9576647199126480 [Eh]
	 SCS Correlation Energy    =      -1.0529729889383546 [Eh]
	 SCS Total Energy          =    -257.3458387277707402 [Eh]
	-----------------------------------------------------------

  Dipole Moment: [D]
     X:    -2.3429      Y:    -0.0316      Z:     0.0004     Total:     2.3431

*** Psi4 exiting successfully. Buy a developer a beer!
