                               Psi4 1.3.2 release

  ==> Input File <==

--------------------------------------------------------------------------
#psi4
#
memory 32 gb

molecule  {
-1 1
  N       -0.3545777    -1.1401215     0.0000359
  N       -0.3348100     1.1274550     0.0000810
  N        0.9473750    -0.6741020    -0.0001810
  N        0.9473650     0.6741170    -0.0001350
  C       -1.0701170    -0.0000090     0.0001780
  H       -2.1552810    -0.0000190     0.0003550
units angstrom
no_reorient  #important for SAPT in psi4, default
symmetry c1  #important for SAPT in psi4, default
}

set PROPERTIES_ORIGIN ["COM"]
properties('MP2/aug-cc-pvtz', properties = ['dipole'])
--------------------------------------------------------------------------

    Molecular point group: c1
  Charge       = -1
  Multiplicity = 1
  Basis Set: AUG-CC-PVTZ
    Blend: AUG-CC-PVTZ
  Basis Set: (AUG-CC-PVTZ AUX)
    Blend: AUG-CC-PVTZ-JKFIT

    Orbital Energies [Eh]
    ---------------------

    Doubly Occupied:

       1A    -15.426183     2A    -15.424016     3A    -15.391950
       4A    -15.389707     5A    -11.089739     6A     -1.214094
       7A     -0.987378     8A     -0.919075     9A     -0.628970
      10A     -0.619038    11A     -0.481253    12A     -0.411725
      13A     -0.354850    14A     -0.267628    15A     -0.250689
      16A     -0.246925    17A     -0.195808    18A     -0.172706

  @DF-RHF Final Energy:  -256.28910086059295

   => Energetics <=

    Nuclear Repulsion Energy =            154.4701188776624008
    One-Electron Energy =                -662.5749709632787017
    Two-Electron Energy =                 251.8157512250233765
    Total Energy =                       -256.2891008605929528
  Basis Set: (AUG-CC-PVTZ AUX)
    Blend: AUG-CC-PVTZ-RI
    Molecular point group: c1

    Geometry (in Angstrom), charge = -1, multiplicity = 1:

       Center              X                  Y                   Z               Mass
    ------------   -----------------  -----------------  -----------------  -----------------
         N           -0.381600070964    -1.137552871653     0.000040163020    14.003074004430
         N           -0.361832370964     1.130023628347     0.000085263020    14.003074004430
         N            0.920352629036    -0.671533371653    -0.000176736980    14.003074004430
         N            0.920342629036     0.676685628347    -0.000130736980    14.003074004430
         C           -1.097139370964     0.002559628347     0.000182263020    12.000000000000
         H           -2.182303370964     0.002549628347     0.000359263020     1.007825032230

  Basis Set: AUG-CC-PVTZ
    Blend: AUG-CC-PVTZ
  Basis Set: (AUG-CC-PVTZ AUX)
    Blend: AUG-CC-PVTZ-JKFIT
	 Reference Energy          =    -256.2891008605929528 [Eh]
	 Singles Energy            =      -0.0000000000000000 [Eh]
	 Same-Spin Energy          =      -0.2866363255428560 [Eh]
	 Opposite-Spin Energy      =      -0.8002412931525007 [Eh]
	 Correlation Energy        =      -1.0868776186953566 [Eh]
	 Total Energy              =    -257.3759784792883352 [Eh]

	 ================> DF-SCS-MP2 Energies <==================
	-----------------------------------------------------------
	 SCS Same-Spin Scale       =       0.3333333333333333 [-]
	 SCS Opposite-Spin Scale   =       1.2000000000000000 [-]
	 SCS Same-Spin Energy      =      -0.0955454418476187 [Eh]
	 SCS Opposite-Spin Energy  =      -0.9602895517830008 [Eh]
	 SCS Correlation Energy    =      -1.0558349936306195 [Eh]
	 SCS Total Energy          =    -257.3449358542235927 [Eh]
	-----------------------------------------------------------

  Dipole Moment: [D]
     X:    -2.3080      Y:     0.0352      Z:     0.0004     Total:     2.3083

*** Psi4 exiting successfully. Buy a developer a beer!
