                               Psi4 1.3.2 release

  ==> Input File <==

--------------------------------------------------------------------------
#psi4
#
memory 32 gb

molecule  {
-1 1
  N       -0.3632904    -1.0369164     0.0000412
  N       -0.3348100     1.1274550     0.0000810
  N        0.9473750    -0.6741020    -0.0001810
  N        0.9473650     0.6741170    -0.0001350
  C       -1.0701170    -0.0000090     0.0001780
  H       -2.1552810    -0.0000190     0.0003550
units angstrom
no_reorient  #important for SAPT in psi4, default
symmetry c1  #important for SAPT in psi4, default
}

set PROPERTIES_ORIGIN ["COM"]
properties('MP2/aug-cc-pvtz', properties = ['dipole'])
--------------------------------------------------------------------------

    Molecular point group: c1
  Charge       = -1
  Multiplicity = 1
  Basis Set: AUG-CC-PVTZ
    Blend: AUG-CC-PVTZ
  Basis Set: (AUG-CC-PVTZ AUX)
    Blend: AUG-CC-PVTZ-JKFIT

    Orbital Energies [Eh]
    ---------------------

    Doubly Occupied:

       1A    -15.424788     2A    -15.417809     3A    -15.381007
       4A    -15.373826     5A    -11.075383     6A     -1.229105
       7A     -0.989830     8A     -0.933270     9A     -0.642713
      10A     -0.614794    11A     -0.489867    12A     -0.421505
      13A     -0.355712    14A     -0.266065    15A     -0.245206
      16A     -0.240199    17A     -0.197758    18A     -0.175987

  @DF-RHF Final Energy:  -256.28863682065520

   => Energetics <=

    Nuclear Repulsion Energy =            156.9995085284466825
    One-Electron Energy =                -667.6266437493598005
    Two-Electron Energy =                 254.3384984002579472
    Total Energy =                       -256.2886368206551992
  Basis Set: (AUG-CC-PVTZ AUX)
    Blend: AUG-CC-PVTZ-RI
    Molecular point group: c1

    Geometry (in Angstrom), charge = -1, multiplicity = 1:

       Center              X                  Y                   Z               Mass
    ------------   -----------------  -----------------  -----------------  -----------------
         N           -0.388545104072    -1.055286428829     0.000044387735    14.003074004430
         N           -0.360064704072     1.109084971171     0.000084187735    14.003074004430
         N            0.922120295928    -0.692472028829    -0.000177812265    14.003074004430
         N            0.922110295928     0.655746971171    -0.000131812265    14.003074004430
         C           -1.095371704072    -0.018379028829     0.000181187735    12.000000000000
         H           -2.180535704072    -0.018389028829     0.000358187735     1.007825032230

  Basis Set: AUG-CC-PVTZ
    Blend: AUG-CC-PVTZ
  Basis Set: (AUG-CC-PVTZ AUX)
    Blend: AUG-CC-PVTZ-JKFIT
	 Reference Energy          =    -256.2886368206551992 [Eh]
	 Singles Energy            =      -0.0000000000000000 [Eh]
	 Same-Spin Energy          =      -0.2849095575246566 [Eh]
	 Opposite-Spin Energy      =      -0.7955822869568778 [Eh]
	 Correlation Energy        =      -1.0804918444815343 [Eh]
	 Total Energy              =    -257.3691286651367136 [Eh]

	 ================> DF-SCS-MP2 Energies <==================
	-----------------------------------------------------------
	 SCS Same-Spin Scale       =       0.3333333333333333 [-]
	 SCS Opposite-Spin Scale   =       1.2000000000000000 [-]
	 SCS Same-Spin Energy      =      -0.0949698525082189 [Eh]
	 SCS Opposite-Spin Energy  =      -0.9546987443482533 [Eh]
	 SCS Correlation Energy    =      -1.0496685968564723 [Eh]
	 SCS Total Energy          =    -257.3383054175116627 [Eh]
	-----------------------------------------------------------

  Dipole Moment: [D]
     X:    -2.3795      Y:    -0.1412      Z:     0.0004     Total:     2.3837

*** Psi4 exiting successfully. Buy a developer a beer!
