                               Psi4 1.3.2 release

  ==> Input File <==

--------------------------------------------------------------------------
#psi4
#
memory 32 gb

molecule  {
-1 1
  N       -0.3347890    -1.1274600     0.0000330
  N       -0.3348100     1.1274550     0.0000810
  N        0.9473750    -0.6741020    -0.0001810
  N        0.9473650     0.6741170    -0.0001350
  C       -1.1247455     0.0837509     0.0001888
  H       -2.1552810    -0.0000190     0.0003550
units angstrom
no_reorient  #important for SAPT in psi4, default
symmetry c1  #important for SAPT in psi4, default
}

set PROPERTIES_ORIGIN ["COM"]
properties('MP2/aug-cc-pvtz', properties = ['dipole'])
--------------------------------------------------------------------------

    Molecular point group: c1
  Charge       = -1
  Multiplicity = 1
  Basis Set: AUG-CC-PVTZ
    Blend: AUG-CC-PVTZ
  Basis Set: (AUG-CC-PVTZ AUX)
    Blend: AUG-CC-PVTZ-JKFIT

    Orbital Energies [Eh]
    ---------------------

    Doubly Occupied:

       1A    -15.430212     2A    -15.416163     3A    -15.393373
       4A    -15.393147     5A    -11.089283     6A     -1.210703
       7A     -0.988182     8A     -0.910701     9A     -0.635212
      10A     -0.617914    11A     -0.488813    12A     -0.408177
      13A     -0.368792    14A     -0.257820    15A     -0.251713
      16A     -0.237105    17A     -0.201230    18A     -0.162307

  @DF-RHF Final Energy:  -256.27803716177129

   => Energetics <=

    Nuclear Repulsion Energy =            153.9197030198754135
    One-Electron Energy =                -661.4737793190143975
    Two-Electron Energy =                 251.2760391373676896
    Total Energy =                       -256.2780371617712944
  Basis Set: (AUG-CC-PVTZ AUX)
    Blend: AUG-CC-PVTZ-RI
    Molecular point group: c1

    Geometry (in Angstrom), charge = -1, multiplicity = 1:

       Center              X                  Y                   Z               Mass
    ------------   -----------------  -----------------  -----------------  -----------------
         N           -0.356328341325    -1.142022879154     0.000035973670    14.003074004430
         N           -0.356349341325     1.112892120846     0.000083973670    14.003074004430
         N            0.925835658675    -0.688664879154    -0.000178026330    14.003074004430
         N            0.925825658675     0.659554120846    -0.000132026330    14.003074004430
         C           -1.146284841325     0.069188020846     0.000191773670    12.000000000000
         H           -2.176820341325    -0.014581879154     0.000357973670     1.007825032230

  Basis Set: AUG-CC-PVTZ
    Blend: AUG-CC-PVTZ
  Basis Set: (AUG-CC-PVTZ AUX)
    Blend: AUG-CC-PVTZ-JKFIT
	 Reference Energy          =    -256.2780371617712944 [Eh]
	 Singles Energy            =      -0.0000000000000000 [Eh]
	 Same-Spin Energy          =      -0.2872419652676347 [Eh]
	 Opposite-Spin Energy      =      -0.8012551565674768 [Eh]
	 Correlation Energy        =      -1.0884971218351116 [Eh]
	 Total Energy              =    -257.3665342836064269 [Eh]

	 ================> DF-SCS-MP2 Energies <==================
	-----------------------------------------------------------
	 SCS Same-Spin Scale       =       0.3333333333333333 [-]
	 SCS Opposite-Spin Scale   =       1.2000000000000000 [-]
	 SCS Same-Spin Energy      =      -0.0957473217558782 [Eh]
	 SCS Opposite-Spin Energy  =      -0.9615061878809721 [Eh]
	 SCS Correlation Energy    =      -1.0572535096368503 [Eh]
	 SCS Total Energy          =    -257.3352906714081314 [Eh]
	-----------------------------------------------------------

  Dipole Moment: [D]
     X:    -2.4171      Y:     0.1998      Z:     0.0004     Total:     2.4253

*** Psi4 exiting successfully. Buy a developer a beer!
