                               Psi4 1.3.2 release

  ==> Input File <==

--------------------------------------------------------------------------
#psi4
#
memory 32 gb

molecule  {
-1 1
  N       -0.3347890    -1.1274600     0.0000330
  N       -0.3348100     1.1274550     0.0000810
  N        0.9473750    -0.6741020    -0.0001810
  N        0.9473650     0.6741170    -0.0001350
  C       -1.0154885    -0.0837689     0.0001672
  H       -2.1552810    -0.0000190     0.0003550
units angstrom
no_reorient  #important for SAPT in psi4, default
symmetry c1  #important for SAPT in psi4, default
}

set PROPERTIES_ORIGIN ["COM"]
properties('MP2/aug-cc-pvtz', properties = ['dipole'])
--------------------------------------------------------------------------

    Molecular point group: c1
  Charge       = -1
  Multiplicity = 1
  Basis Set: AUG-CC-PVTZ
    Blend: AUG-CC-PVTZ
  Basis Set: (AUG-CC-PVTZ AUX)
    Blend: AUG-CC-PVTZ-JKFIT

    Orbital Energies [Eh]
    ---------------------

    Doubly Occupied:

       1A    -15.430012     2A    -15.414943     3A    -15.387432
       4A    -15.384387     5A    -11.086723     6A     -1.229724
       7A     -1.007007     8A     -0.918523     9A     -0.640779
      10A     -0.608167    11A     -0.479434    12A     -0.422536
      13A     -0.344392    14A     -0.268793    15A     -0.256989
      16A     -0.241576    17A     -0.209705    18A     -0.168244

  @DF-RHF Final Energy:  -256.28053836329326

   => Energetics <=

    Nuclear Repulsion Energy =            156.1281577581663953
    One-Electron Energy =                -665.8186621169219279
    Two-Electron Energy =                 253.4099659954623007
    Total Energy =                       -256.2805383632932603
  Basis Set: (AUG-CC-PVTZ AUX)
    Blend: AUG-CC-PVTZ-RI
    Molecular point group: c1

    Geometry (in Angstrom), charge = -1, multiplicity = 1:

       Center              X                  Y                   Z               Mass
    ------------   -----------------  -----------------  -----------------  -----------------
         N           -0.375324019397    -1.112897494130     0.000039729097    14.003074004430
         N           -0.375345019397     1.142017505870     0.000087729097    14.003074004430
         N            0.906839980603    -0.659539494130    -0.000174270903    14.003074004430
         N            0.906829980603     0.688679505870    -0.000128270903    14.003074004430
         C           -1.056023519397    -0.069206394130     0.000173929097    12.000000000000
         H           -2.195816019397     0.014543505870     0.000361729097     1.007825032230

  Basis Set: AUG-CC-PVTZ
    Blend: AUG-CC-PVTZ
  Basis Set: (AUG-CC-PVTZ AUX)
    Blend: AUG-CC-PVTZ-JKFIT
	 Reference Energy          =    -256.2805383632932603 [Eh]
	 Singles Energy            =      -0.0000000000000000 [Eh]
	 Same-Spin Energy          =      -0.2854437893423266 [Eh]
	 Opposite-Spin Energy      =      -0.7974506149919560 [Eh]
	 Correlation Energy        =      -1.0828944043342825 [Eh]
	 Total Energy              =    -257.3634327676275575 [Eh]

	 ================> DF-SCS-MP2 Energies <==================
	-----------------------------------------------------------
	 SCS Same-Spin Scale       =       0.3333333333333333 [-]
	 SCS Opposite-Spin Scale   =       1.2000000000000000 [-]
	 SCS Same-Spin Energy      =      -0.0951479297807755 [Eh]
	 SCS Opposite-Spin Energy  =      -0.9569407379903472 [Eh]
	 SCS Correlation Energy    =      -1.0520886677711228 [Eh]
	 SCS Total Energy          =    -257.3326270310643622 [Eh]
	-----------------------------------------------------------

  Dipole Moment: [D]
     X:    -2.2154      Y:    -0.2434      Z:     0.0004     Total:     2.2287

*** Psi4 exiting successfully. Buy a developer a beer!
