                               Psi4 1.4a3.dev225

  ==> Input File <==

--------------------------------------------------------------------------
#psi4
#
memory 32 gb

molecule  {
-1 1
  N       -0.3347890    -1.1274600     0.0000330
  N       -0.3348100     1.1274550     0.0000810
  N        0.9473750    -0.6741020    -0.0001810
  N        0.9473650     0.6741170    -0.0001350
  C       -1.0974313     0.0418710     0.0001834
  H       -2.1552810    -0.0000190     0.0003550
units angstrom
no_reorient  #important for SAPT in psi4, default
symmetry c1  #important for SAPT in psi4, default
}

set PROPERTIES_ORIGIN ["COM"]
properties('MP2/aug-cc-pvtz', properties = ['dipole'])
--------------------------------------------------------------------------

    Molecular point group: c1
  Charge       = -1
  Multiplicity = 1
  Basis Set: AUG-CC-PVTZ
    Blend: AUG-CC-PVTZ
  Basis Set: (AUG-CC-PVTZ AUX)
    Blend: AUG-CC-PVTZ-JKFIT

    Orbital Energies [Eh]
    ---------------------

    Doubly Occupied:

       1A    -15.426545     2A    -15.419282     3A    -15.392032
       4A    -15.391580     5A    -11.088711     6A     -1.214212
       7A     -0.988483     8A     -0.914678     9A     -0.629251
      10A     -0.621711    11A     -0.486347    12A     -0.410695
      13A     -0.363315    14A     -0.260389    15A     -0.251400
      16A     -0.243042    17A     -0.197981    18A     -0.167464

  @DF-RHF Final Energy:  -256.28736034875703

   => Energetics <=

    Nuclear Repulsion Energy =            154.4252187589573282
    One-Electron Energy =                -662.4909205342809173
    Two-Electron Energy =                 251.7783414265665840
    Total Energy =                       -256.2873603487570335
  Basis Set: (AUG-CC-PVTZ AUX)
    Blend: AUG-CC-PVTZ-RI
    Molecular point group: c1

    Geometry (in Angstrom), charge = -1, multiplicity = 1:

       Center              X                  Y                   Z               Mass
    ------------   -----------------  -----------------  -----------------  -----------------
         N           -0.361077252150    -1.134741541591     0.000036912527    14.003074004430
         N           -0.361098252150     1.120173458409     0.000084912527    14.003074004430
         N            0.921086747850    -0.681383541591    -0.000177087473    14.003074004430
         N            0.921076747850     0.666835458409    -0.000131087473    14.003074004430
         C           -1.123719552150     0.034589458409     0.000187312527    12.000000000000
         H           -2.181569252150    -0.007300541591     0.000358912527     1.007825032230

  Basis Set: AUG-CC-PVTZ
    Blend: AUG-CC-PVTZ
  Basis Set: (AUG-CC-PVTZ AUX)
    Blend: AUG-CC-PVTZ-JKFIT
	 Reference Energy          =    -256.2873603487570335 [Eh]
	 Singles Energy            =      -0.0000000000000000 [Eh]
	 Same-Spin Energy          =      -0.2867429080729599 [Eh]
	 Opposite-Spin Energy      =      -0.8000107083728132 [Eh]
	 Correlation Energy        =      -1.0867536164457730 [Eh]
	 Total Energy              =    -257.3741139652028096 [Eh]

	 ================> DF-SCS-MP2 Energies <==================
	-----------------------------------------------------------
	 SCS Same-Spin Scale       =       0.3333333333333333 [-]
	 SCS Opposite-Spin Scale   =       1.2000000000000000 [-]
	 SCS Same-Spin Energy      =      -0.0955809693576533 [Eh]
	 SCS Opposite-Spin Energy  =      -0.9600128500473758 [Eh]
	 SCS Correlation Energy    =      -1.0555938194050292 [Eh]
	 SCS Total Energy          =    -257.3429541681620663 [Eh]
	-----------------------------------------------------------

  Dipole Moment: [D]
     X:    -2.3770      Y:     0.1046      Z:     0.0004     Total:     2.3793

*** Psi4 exiting successfully. Buy a developer a beer!
