                               Psi4 1.3.2 release

  ==> Input File <==

--------------------------------------------------------------------------
#psi4
#
memory 32 gb

molecule  {
-1 1
  N       -0.3181860    -1.1719307     0.0000285
  N       -0.3348100     1.1274550     0.0000810
  N        0.9473750    -0.6741020    -0.0001810
  N        0.9473650     0.6741170    -0.0001350
  C       -1.0701170    -0.0000090     0.0001780
  H       -2.1552810    -0.0000190     0.0003550
units angstrom
no_reorient  #important for SAPT in psi4, default
symmetry c1  #important for SAPT in psi4, default
}

set PROPERTIES_ORIGIN ["COM"]
properties('MP2/aug-cc-pvtz', properties = ['dipole'])
--------------------------------------------------------------------------

    Molecular point group: c1
  Charge       = -1
  Multiplicity = 1
  Basis Set: AUG-CC-PVTZ
    Blend: AUG-CC-PVTZ
  Basis Set: (AUG-CC-PVTZ AUX)
    Blend: AUG-CC-PVTZ-JKFIT

    Orbital Energies [Eh]
    ---------------------

    Doubly Occupied:

       1A    -15.425194     2A    -15.421526     3A    -15.397484
       4A    -15.394517     5A    -11.093869     6A     -1.214091
       7A     -0.993143     8A     -0.910072     9A     -0.626781
      10A     -0.618615    11A     -0.480988    12A     -0.410809
      13A     -0.359067    14A     -0.265415    15A     -0.251521
      16A     -0.246052    17A     -0.200021    18A     -0.166432

  @DF-RHF Final Energy:  -256.28592154415918

   => Energetics <=

    Nuclear Repulsion Energy =            154.0131402362122799
    One-Electron Energy =                -661.6469337401154007
    Two-Electron Energy =                 251.3478719597439408
    Total Energy =                       -256.2859215441591800
  Basis Set: (AUG-CC-PVTZ AUX)
    Blend: AUG-CC-PVTZ-RI
    Molecular point group: c1

    Geometry (in Angstrom), charge = -1, multiplicity = 1:

       Center              X                  Y                   Z               Mass
    ------------   -----------------  -----------------  -----------------  -----------------
         N           -0.352591662394    -1.162908495872     0.000034264361    14.003074004430
         N           -0.369215662394     1.136477204128     0.000086764361    14.003074004430
         N            0.912969337606    -0.665079795872    -0.000175235639    14.003074004430
         N            0.912959337606     0.683139204128    -0.000129235639    14.003074004430
         C           -1.104522662394     0.009013204128     0.000183764361    12.000000000000
         H           -2.189686662394     0.009003204128     0.000360764361     1.007825032230

  Basis Set: AUG-CC-PVTZ
    Blend: AUG-CC-PVTZ
  Basis Set: (AUG-CC-PVTZ AUX)
    Blend: AUG-CC-PVTZ-JKFIT
	 Reference Energy          =    -256.2859215441591800 [Eh]
	 Singles Energy            =      -0.0000000000000000 [Eh]
	 Same-Spin Energy          =      -0.2870702012920056 [Eh]
	 Opposite-Spin Energy      =      -0.8009789193120870 [Eh]
	 Correlation Energy        =      -1.0880491206040925 [Eh]
	 Total Energy              =    -257.3739706647632488 [Eh]

	 ================> DF-SCS-MP2 Energies <==================
	-----------------------------------------------------------
	 SCS Same-Spin Scale       =       0.3333333333333333 [-]
	 SCS Opposite-Spin Scale   =       1.2000000000000000 [-]
	 SCS Same-Spin Energy      =      -0.0956900670973352 [Eh]
	 SCS Opposite-Spin Energy  =      -0.9611747031745044 [Eh]
	 SCS Correlation Energy    =      -1.0568647702718397 [Eh]
	 SCS Total Energy          =    -257.3427863144310095 [Eh]
	-----------------------------------------------------------

  Dipole Moment: [D]
     X:    -2.3099      Y:     0.0563      Z:     0.0004     Total:     2.3106

*** Psi4 exiting successfully. Buy a developer a beer!
