                               Psi4 1.3.2 release

  ==> Input File <==

--------------------------------------------------------------------------
#psi4
#
memory 32 gb

molecule  {
-1 1
  N       -0.3745844    -1.1524358     0.0000390
  N       -0.3348100     1.1274550     0.0000810
  N        0.9473750    -0.6741020    -0.0001810
  N        0.9473650     0.6741170    -0.0001350
  C       -1.0701170    -0.0000090     0.0001780
  H       -2.1552810    -0.0000190     0.0003550
units angstrom
no_reorient  #important for SAPT in psi4, default
symmetry c1  #important for SAPT in psi4, default
}

set PROPERTIES_ORIGIN ["COM"]
properties('MP2/aug-cc-pvtz', properties = ['dipole'])
--------------------------------------------------------------------------

    Molecular point group: c1
  Charge       = -1
  Multiplicity = 1
  Basis Set: AUG-CC-PVTZ
    Blend: AUG-CC-PVTZ
  Basis Set: (AUG-CC-PVTZ AUX)
    Blend: AUG-CC-PVTZ-JKFIT

    Orbital Energies [Eh]
    ---------------------

    Doubly Occupied:

       1A    -15.429489     2A    -15.425413     3A    -15.393719
       4A    -15.389332     5A    -11.091281     6A     -1.210281
       7A     -0.983581     8A     -0.920444     9A     -0.630505
      10A     -0.615691    11A     -0.478893    12A     -0.409851
      13A     -0.352871    14A     -0.271219    15A     -0.253005
      16A     -0.244459    17A     -0.194459    18A     -0.174285

  @DF-RHF Final Energy:  -256.28586480202767

   => Energetics <=

    Nuclear Repulsion Energy =            153.9970343425147234
    One-Electron Energy =                -661.6282405841276386
    Two-Electron Energy =                 251.3453414395852406
    Total Energy =                       -256.2858648020276746
  Basis Set: (AUG-CC-PVTZ AUX)
    Blend: AUG-CC-PVTZ-RI
    Molecular point group: c1

    Geometry (in Angstrom), charge = -1, multiplicity = 1:

       Center              X                  Y                   Z               Mass
    ------------   -----------------  -----------------  -----------------  -----------------
         N           -0.397547732869    -1.147368797967     0.000042634080    14.003074004430
         N           -0.357773332869     1.132522002033     0.000084634080    14.003074004430
         N            0.924411667131    -0.669034997967    -0.000177365920    14.003074004430
         N            0.924401667131     0.679184002033    -0.000131365920    14.003074004430
         C           -1.093080332869     0.005058002033     0.000181634080    12.000000000000
         H           -2.178244332869     0.005048002033     0.000358634080     1.007825032230

  Basis Set: AUG-CC-PVTZ
    Blend: AUG-CC-PVTZ
  Basis Set: (AUG-CC-PVTZ AUX)
    Blend: AUG-CC-PVTZ-JKFIT
	 Reference Energy          =    -256.2858648020276746 [Eh]
	 Singles Energy            =      -0.0000000000000000 [Eh]
	 Same-Spin Energy          =      -0.2869854536675106 [Eh]
	 Opposite-Spin Energy      =      -0.8015377423533910 [Eh]
	 Correlation Energy        =      -1.0885231960209016 [Eh]
	 Total Energy              =    -257.3743879980485758 [Eh]

	 ================> DF-SCS-MP2 Energies <==================
	-----------------------------------------------------------
	 SCS Same-Spin Scale       =       0.3333333333333333 [-]
	 SCS Opposite-Spin Scale   =       1.2000000000000000 [-]
	 SCS Same-Spin Energy      =      -0.0956618178891702 [Eh]
	 SCS Opposite-Spin Energy  =      -0.9618452908240692 [Eh]
	 SCS Correlation Energy    =      -1.0575071087132395 [Eh]
	 SCS Total Energy          =    -257.3433719107409274 [Eh]
	-----------------------------------------------------------

  Dipole Moment: [D]
     X:    -2.2823      Y:     0.0680      Z:     0.0004     Total:     2.2833

*** Psi4 exiting successfully. Buy a developer a beer!
