                               Psi4 1.3.2 release

  ==> Input File <==

--------------------------------------------------------------------------
#psi4
#
memory 32 gb

molecule  {
-1 1
  N       -0.2579332    -1.0734197     0.0000215
  N       -0.3348100     1.1274550     0.0000810
  N        0.9473750    -0.6741020    -0.0001810
  N        0.9473650     0.6741170    -0.0001350
  C       -1.0701170    -0.0000090     0.0001780
  H       -2.1552810    -0.0000190     0.0003550
units angstrom
no_reorient  #important for SAPT in psi4, default
symmetry c1  #important for SAPT in psi4, default
}

set PROPERTIES_ORIGIN ["COM"]
properties('MP2/aug-cc-pvtz', properties = ['dipole'])
--------------------------------------------------------------------------

    Molecular point group: c1
  Charge       = -1
  Multiplicity = 1
  Basis Set: AUG-CC-PVTZ
    Blend: AUG-CC-PVTZ
  Basis Set: (AUG-CC-PVTZ AUX)
    Blend: AUG-CC-PVTZ-JKFIT

    Orbital Energies [Eh]
    ---------------------

    Doubly Occupied:

       1A    -15.416199     2A    -15.408248     3A    -15.391849
       4A    -15.381906     5A    -11.082008     6A     -1.241158
       7A     -1.008444     8A     -0.911199     9A     -0.640151
      10A     -0.617949    11A     -0.492554    12A     -0.424558
      13A     -0.368303    14A     -0.259755    15A     -0.254832
      16A     -0.226398    17A     -0.207379    18A     -0.161457

  @DF-RHF Final Energy:  -256.29197509571554

   => Energetics <=

    Nuclear Repulsion Energy =            157.0441129268211853
    One-Electron Energy =                -667.6834804874911242
    Two-Electron Energy =                 254.3473924649543960
    Total Energy =                       -256.2919750957155429
  Basis Set: (AUG-CC-PVTZ AUX)
    Blend: AUG-CC-PVTZ-RI
    Molecular point group: c1

    Geometry (in Angstrom), charge = -1, multiplicity = 1:

       Center              X                  Y                   Z               Mass
    ------------   -----------------  -----------------  -----------------  -----------------
         N           -0.304563187773    -1.084383795552     0.000028684549    14.003074004430
         N           -0.381439987773     1.116490904448     0.000088184549    14.003074004430
         N            0.900745012227    -0.685066095552    -0.000173815451    14.003074004430
         N            0.900735012227     0.663152904448    -0.000127815451    14.003074004430
         C           -1.116746987773    -0.010973095552     0.000185184549    12.000000000000
         H           -2.201910987773    -0.010983095552     0.000362184549     1.007825032230

  Basis Set: AUG-CC-PVTZ
    Blend: AUG-CC-PVTZ
  Basis Set: (AUG-CC-PVTZ AUX)
    Blend: AUG-CC-PVTZ-JKFIT
	 Reference Energy          =    -256.2919750957155429 [Eh]
	 Singles Energy            =      -0.0000000000000000 [Eh]
	 Same-Spin Energy          =      -0.2850086422837229 [Eh]
	 Opposite-Spin Energy      =      -0.7943888397870540 [Eh]
	 Correlation Energy        =      -1.0793974820707768 [Eh]
	 Total Energy              =    -257.3713725777863033 [Eh]

	 ================> DF-SCS-MP2 Energies <==================
	-----------------------------------------------------------
	 SCS Same-Spin Scale       =       0.3333333333333333 [-]
	 SCS Opposite-Spin Scale   =       1.2000000000000000 [-]
	 SCS Same-Spin Energy      =      -0.0950028807612410 [Eh]
	 SCS Opposite-Spin Energy  =      -0.9532666077444647 [Eh]
	 SCS Correlation Energy    =      -1.0482694885057056 [Eh]
	 SCS Total Energy          =    -257.3402445842212387 [Eh]
	-----------------------------------------------------------

  Dipole Moment: [D]
     X:    -2.4021      Y:    -0.1706      Z:     0.0004     Total:     2.4082

*** Psi4 exiting successfully. Buy a developer a beer!
