                               Psi4 1.3.2 release

  ==> Input File <==

--------------------------------------------------------------------------
#psi4
#
memory 32 gb

molecule  {
-1 1
  N       -0.3347890    -1.1274600     0.0000330
  N       -0.3348100     1.1274550     0.0000810
  N        0.9473750    -0.6741020    -0.0001810
  N        0.9473650     0.6741170    -0.0001350
  C       -1.0701170    -0.0000090     0.0001780
  H       -2.2552810    -0.0000199     0.0003713
units angstrom
no_reorient  #important for SAPT in psi4, default
symmetry c1  #important for SAPT in psi4, default
}

set PROPERTIES_ORIGIN ["COM"]
properties('MP2/aug-cc-pvtz', properties = ['dipole'])
--------------------------------------------------------------------------

    Molecular point group: c1
  Charge       = -1
  Multiplicity = 1
  Basis Set: AUG-CC-PVTZ
    Blend: AUG-CC-PVTZ
  Basis Set: (AUG-CC-PVTZ AUX)
    Blend: AUG-CC-PVTZ-JKFIT

    Orbital Energies [Eh]
    ---------------------

    Doubly Occupied:

       1A    -15.424586     2A    -15.423750     3A    -15.391740
       4A    -15.391704     5A    -11.100537     6A     -1.219997
       7A     -0.992973     8A     -0.916775     9A     -0.629720
      10A     -0.610473    11A     -0.472535    12A     -0.415322
      13A     -0.348879    14A     -0.265854    15A     -0.251821
      16A     -0.247647    17A     -0.198935    18A     -0.172115

  @DF-RHF Final Energy:  -256.28415546658306

   => Energetics <=

    Nuclear Repulsion Energy =            154.5070556971852227
    One-Electron Energy =                -662.6316936007355025
    Two-Electron Energy =                 251.8404824369672212
    Total Energy =                       -256.2841554665830017
  Basis Set: (AUG-CC-PVTZ AUX)
    Blend: AUG-CC-PVTZ-RI
    Molecular point group: c1

    Geometry (in Angstrom), charge = -1, multiplicity = 1:

       Center              X                  Y                   Z               Mass
    ------------   -----------------  -----------------  -----------------  -----------------
         N           -0.364365990178    -1.127460173500     0.000037613372    14.003074004430
         N           -0.364386990178     1.127454826500     0.000085613372    14.003074004430
         N            0.917798009822    -0.674102173500    -0.000176386628    14.003074004430
         N            0.917788009822     0.674116826500    -0.000130386628    14.003074004430
         C           -1.099693990178    -0.000009173500     0.000182613372    12.000000000000
         H           -2.284857990178    -0.000020073500     0.000375913372     1.007825032230

  Basis Set: AUG-CC-PVTZ
    Blend: AUG-CC-PVTZ
  Basis Set: (AUG-CC-PVTZ AUX)
    Blend: AUG-CC-PVTZ-JKFIT
	 Reference Energy          =    -256.2841554665830586 [Eh]
	 Singles Energy            =      -0.0000000000000000 [Eh]
	 Same-Spin Energy          =      -0.2864543650347896 [Eh]
	 Opposite-Spin Energy      =      -0.7995605681829596 [Eh]
	 Correlation Energy        =      -1.0860149332177493 [Eh]
	 Total Energy              =    -257.3701703998008270 [Eh]

	 ================> DF-SCS-MP2 Energies <==================
	-----------------------------------------------------------
	 SCS Same-Spin Scale       =       0.3333333333333333 [-]
	 SCS Opposite-Spin Scale   =       1.2000000000000000 [-]
	 SCS Same-Spin Energy      =      -0.0954847883449299 [Eh]
	 SCS Opposite-Spin Energy  =      -0.9594726818195515 [Eh]
	 SCS Correlation Energy    =      -1.0549574701644813 [Eh]
	 SCS Total Energy          =    -257.3391129367475401 [Eh]
	-----------------------------------------------------------

  Dipole Moment: [D]
     X:    -2.2454      Y:    -0.0000      Z:     0.0004     Total:     2.2454

*** Psi4 exiting successfully. Buy a developer a beer!
