                               Psi4 1.3.2 release

  ==> Input File <==

--------------------------------------------------------------------------
#psi4
#
memory 32 gb

molecule  {
-1 1
  N       -0.3347890    -1.1274600     0.0000330
  N       -0.3348100     1.1274550     0.0000810
  N        0.9473750    -0.6741020    -0.0001810
  N        0.9473643     0.7741170    -0.0001316
  C       -1.0701170    -0.0000090     0.0001780
  H       -2.1552810    -0.0000190     0.0003550
units angstrom
no_reorient  #important for SAPT in psi4, default
symmetry c1  #important for SAPT in psi4, default
}

set PROPERTIES_ORIGIN ["COM"]
properties('MP2/aug-cc-pvtz', properties = ['dipole'])
--------------------------------------------------------------------------

    Molecular point group: c1
  Charge       = -1
  Multiplicity = 1
  Basis Set: AUG-CC-PVTZ
    Blend: AUG-CC-PVTZ
  Basis Set: (AUG-CC-PVTZ AUX)
    Blend: AUG-CC-PVTZ-JKFIT

    Orbital Energies [Eh]
    ---------------------

    Doubly Occupied:

       1A    -15.430235     2A    -15.423991     3A    -15.403100
       4A    -15.396845     5A    -11.085407     6A     -1.203796
       7A     -1.007317     8A     -0.891521     9A     -0.640845
      10A     -0.607384    11A     -0.484945    12A     -0.407131
      13A     -0.352411    14A     -0.280483    15A     -0.265798
      16A     -0.224174    17A     -0.210770    18A     -0.153158

  @DF-RHF Final Energy:  -256.27508208382011

   => Energetics <=

    Nuclear Repulsion Energy =            153.4667000952731826
    One-Electron Energy =                -660.5449390803264578
    Two-Electron Energy =                 250.8031569012331943
    Total Energy =                       -256.2750820838201093
  Basis Set: (AUG-CC-PVTZ AUX)
    Blend: AUG-CC-PVTZ-RI
    Molecular point group: c1

    Geometry (in Angstrom), charge = -1, multiplicity = 1:

       Center              X                  Y                   Z               Mass
    ------------   -----------------  -----------------  -----------------  -----------------
         N           -0.365826038342    -1.147748580507     0.000037161578    14.003074004430
         N           -0.365847038342     1.107166419493     0.000085161578    14.003074004430
         N            0.916337961658    -0.694390580507    -0.000176838422    14.003074004430
         N            0.916327261658     0.753828419493    -0.000127438422    14.003074004430
         C           -1.101154038342    -0.020297580507     0.000182161578    12.000000000000
         H           -2.186318038342    -0.020307580507     0.000359161578     1.007825032230

  Basis Set: AUG-CC-PVTZ
    Blend: AUG-CC-PVTZ
  Basis Set: (AUG-CC-PVTZ AUX)
    Blend: AUG-CC-PVTZ-JKFIT
	 Reference Energy          =    -256.2750820838201093 [Eh]
	 Singles Energy            =      -0.0000000000000000 [Eh]
	 Same-Spin Energy          =      -0.2895171619239815 [Eh]
	 Opposite-Spin Energy      =      -0.8054669915640650 [Eh]
	 Correlation Energy        =      -1.0949841534880465 [Eh]
	 Total Energy              =    -257.3700662373081514 [Eh]

	 ================> DF-SCS-MP2 Energies <==================
	-----------------------------------------------------------
	 SCS Same-Spin Scale       =       0.3333333333333333 [-]
	 SCS Opposite-Spin Scale   =       1.2000000000000000 [-]
	 SCS Same-Spin Energy      =      -0.0965057206413271 [Eh]
	 SCS Opposite-Spin Energy  =      -0.9665603898768780 [Eh]
	 SCS Correlation Energy    =      -1.0630661105182051 [Eh]
	 SCS Total Energy          =    -257.3381481943383164 [Eh]
	-----------------------------------------------------------

  Dipole Moment: [D]
     X:    -2.4466      Y:     0.0142      Z:     0.0004     Total:     2.4466

*** Psi4 exiting successfully. Buy a developer a beer!
