                               Psi4 1.3.2 release

  ==> Input File <==

--------------------------------------------------------------------------
#psi4
#
memory 32 gb

molecule  {
-1 1
  N       -0.3347890    -1.1274600     0.0000330
  N       -0.3348100     1.1274550     0.0000810
  N        0.9307720    -0.6296313    -0.0001774
  N        0.9473650     0.6741170    -0.0001350
  C       -1.0701170    -0.0000090     0.0001780
  H       -2.1552810    -0.0000190     0.0003550
units angstrom
no_reorient  #important for SAPT in psi4, default
symmetry c1  #important for SAPT in psi4, default
}

set PROPERTIES_ORIGIN ["COM"]
properties('MP2/aug-cc-pvtz', properties = ['dipole'])
--------------------------------------------------------------------------

    Molecular point group: c1
  Charge       = -1
  Multiplicity = 1
  Basis Set: AUG-CC-PVTZ
    Blend: AUG-CC-PVTZ
  Basis Set: (AUG-CC-PVTZ AUX)
    Blend: AUG-CC-PVTZ-JKFIT

    Orbital Energies [Eh]
    ---------------------

    Doubly Occupied:

       1A    -15.420010     2A    -15.416855     3A    -15.387056
       4A    -15.384095     5A    -11.088415     6A     -1.231060
       7A     -0.988279     8A     -0.928941     9A     -0.628044
      10A     -0.622685    11A     -0.484229    12A     -0.419711
      13A     -0.360524    14A     -0.259770    15A     -0.255995
      16A     -0.238552    17A     -0.194085    18A     -0.177623

  @DF-RHF Final Energy:  -256.29565596631772

   => Energetics <=

    Nuclear Repulsion Energy =            156.0156855241191636
    One-Electron Energy =                -665.6508293030883578
    Two-Electron Energy =                 253.3394878126514982
    Total Energy =                       -256.2956559663177245
  Basis Set: (AUG-CC-PVTZ AUX)
    Blend: AUG-CC-PVTZ-RI
    Molecular point group: c1

    Geometry (in Angstrom), charge = -1, multiplicity = 1:

       Center              X                  Y                   Z               Mass
    ------------   -----------------  -----------------  -----------------  -----------------
         N           -0.362457698328    -1.136482577412     0.000037121001    14.003074004430
         N           -0.362478698328     1.118432422588     0.000085121001    14.003074004430
         N            0.903103301672    -0.638653877412    -0.000173278999    14.003074004430
         N            0.919696301672     0.665094422588    -0.000130878999    14.003074004430
         C           -1.097785698328    -0.009031577412     0.000182121001    12.000000000000
         H           -2.182949698328    -0.009041577412     0.000359121001     1.007825032230

  Basis Set: AUG-CC-PVTZ
    Blend: AUG-CC-PVTZ
  Basis Set: (AUG-CC-PVTZ AUX)
    Blend: AUG-CC-PVTZ-JKFIT
	 Reference Energy          =    -256.2956559663177245 [Eh]
	 Singles Energy            =      -0.0000000000000000 [Eh]
	 Same-Spin Energy          =      -0.2846796236797192 [Eh]
	 Opposite-Spin Energy      =      -0.7955825288825096 [Eh]
	 Correlation Energy        =      -1.0802621525622289 [Eh]
	 Total Energy              =    -257.3759181188799516 [Eh]

	 ================> DF-SCS-MP2 Energies <==================
	-----------------------------------------------------------
	 SCS Same-Spin Scale       =       0.3333333333333333 [-]
	 SCS Opposite-Spin Scale   =       1.2000000000000000 [-]
	 SCS Same-Spin Energy      =      -0.0948932078932397 [Eh]
	 SCS Opposite-Spin Energy  =      -0.9546990346590114 [Eh]
	 SCS Correlation Energy    =      -1.0495922425522513 [Eh]
	 SCS Total Energy          =    -257.3452482088699753 [Eh]
	-----------------------------------------------------------

  Dipole Moment: [D]
     X:    -2.2585      Y:    -0.0140      Z:     0.0004     Total:     2.2586

*** Psi4 exiting successfully. Buy a developer a beer!
