                               Psi4 1.4a3.dev225

  ==> Input File <==

--------------------------------------------------------------------------
#psi4
#
memory 32 gb

molecule  {
-1 1
  N       -0.3347890    -1.1274600     0.0000330
  N       -0.3348100     1.1274550     0.0000810
  N        0.9473750    -0.6741020    -0.0001810
  N        0.9473650     0.6741170    -0.0001350
  C       -1.0810427     0.0167430     0.0001802
  H       -2.1552810    -0.0000190     0.0003550
units angstrom
no_reorient  #important for SAPT in psi4, default
symmetry c1  #important for SAPT in psi4, default
}

set PROPERTIES_ORIGIN ["COM"]
properties('MP2/aug-cc-pvtz', properties = ['dipole'])
--------------------------------------------------------------------------

    Molecular point group: c1
  Charge       = -1
  Multiplicity = 1
  Basis Set: AUG-CC-PVTZ
    Blend: AUG-CC-PVTZ
  Basis Set: (AUG-CC-PVTZ AUX)
    Blend: AUG-CC-PVTZ-JKFIT

    Orbital Energies [Eh]
    ---------------------

    Doubly Occupied:

       1A    -15.424283     2A    -15.421239     3A    -15.390949
       4A    -15.390684     5A    -11.088401     6A     -1.216623
       7A     -0.989844     8A     -0.916617     9A     -0.626961
      10A     -0.623266    11A     -0.484689    12A     -0.412479
      13A     -0.359639    14A     -0.262812    15A     -0.250622
      16A     -0.245523    17A     -0.197267    18A     -0.169806

  @DF-RHF Final Energy:  -256.29057843448078

   => Energetics <=

    Nuclear Repulsion Energy =            154.7405198875096630
    One-Electron Energy =                -663.1187885748679491
    Two-Electron Energy =                 252.0876902528775076
    Total Energy =                       -256.2905784344807785
  Basis Set: (AUG-CC-PVTZ AUX)
    Blend: AUG-CC-PVTZ-RI
    Molecular point group: c1

    Geometry (in Angstrom), charge = -1, multiplicity = 1:

       Center              X                  Y                   Z               Mass
    ------------   -----------------  -----------------  -----------------  -----------------
         N           -0.363926612554    -1.130372728622     0.000037468886    14.003074004430
         N           -0.363947612554     1.124542271378     0.000085468886    14.003074004430
         N            0.918237387446    -0.677014728622    -0.000176531114    14.003074004430
         N            0.918227387446     0.671204271378    -0.000130531114    14.003074004430
         C           -1.110180312554     0.013830271378     0.000184668886    12.000000000000
         H           -2.184418612554    -0.002931728622     0.000359468886     1.007825032230

  Basis Set: AUG-CC-PVTZ
    Blend: AUG-CC-PVTZ
  Basis Set: (AUG-CC-PVTZ AUX)
    Blend: AUG-CC-PVTZ-JKFIT
	 Reference Energy          =    -256.2905784344807785 [Eh]
	 Singles Energy            =      -0.0000000000000000 [Eh]
	 Same-Spin Energy          =      -0.2864704449351022 [Eh]
	 Opposite-Spin Energy      =      -0.7993702292687299 [Eh]
	 Correlation Energy        =      -1.0858406742038320 [Eh]
	 Total Energy              =    -257.3764191086846154 [Eh]

	 ================> DF-SCS-MP2 Energies <==================
	-----------------------------------------------------------
	 SCS Same-Spin Scale       =       0.3333333333333333 [-]
	 SCS Opposite-Spin Scale   =       1.2000000000000000 [-]
	 SCS Same-Spin Energy      =      -0.0954901483117007 [Eh]
	 SCS Opposite-Spin Energy  =      -0.9592442751224759 [Eh]
	 SCS Correlation Energy    =      -1.0547344234341767 [Eh]
	 SCS Total Energy          =    -257.3453128579149620 [Eh]
	-----------------------------------------------------------

  Dipole Moment: [D]
     X:    -2.3503      Y:     0.0431      Z:     0.0004     Total:     2.3507

*** Psi4 exiting successfully. Buy a developer a beer!
