                               Psi4 1.3.2 release

  ==> Input File <==

--------------------------------------------------------------------------
#psi4
#
memory 32 gb

molecule  {
-1 1
  N       -0.3347890    -1.1274600     0.0000330
  N       -0.3348100     1.1274550     0.0000810
  N        0.9473750    -0.6741020    -0.0001810
  N        0.9473650     0.6741170    -0.0001350
  C       -1.0701170    -0.0000090     0.0001780
  H       -2.3552810    -0.0000208     0.0003876
units angstrom
no_reorient  #important for SAPT in psi4, default
symmetry c1  #important for SAPT in psi4, default
}

set PROPERTIES_ORIGIN ["COM"]
properties('MP2/aug-cc-pvtz', properties = ['dipole'])
--------------------------------------------------------------------------

    Molecular point group: c1
  Charge       = -1
  Multiplicity = 1
  Basis Set: AUG-CC-PVTZ
    Blend: AUG-CC-PVTZ
  Basis Set: (AUG-CC-PVTZ AUX)
    Blend: AUG-CC-PVTZ-JKFIT

    Orbital Energies [Eh]
    ---------------------

    Doubly Occupied:

       1A    -15.426434     2A    -15.425598     3A    -15.393773
       4A    -15.393736     5A    -11.112122     6A     -1.221961
       7A     -0.994922     8A     -0.916973     9A     -0.631597
      10A     -0.603456    11A     -0.462756    12A     -0.417192
      13A     -0.338776    14A     -0.267678    15A     -0.253311
      16A     -0.249242    17A     -0.200564    18A     -0.173868

  @DF-RHF Final Energy:  -256.26916686000209

   => Energetics <=

    Nuclear Repulsion Energy =            154.1080541725012836
    One-Electron Energy =                -661.7865218782353622
    Two-Electron Energy =                 251.4093008457319627
    Total Energy =                       -256.2691668600020876
  Basis Set: (AUG-CC-PVTZ AUX)
    Blend: AUG-CC-PVTZ-RI
    Molecular point group: c1

    Geometry (in Angstrom), charge = -1, multiplicity = 1:

       Center              X                  Y                   Z               Mass
    ------------   -----------------  -----------------  -----------------  -----------------
         N           -0.362905799994    -1.127460160359     0.000037375361    14.003074004430
         N           -0.362926799994     1.127454839641     0.000085375361    14.003074004430
         N            0.919258200006    -0.674102160359    -0.000176624639    14.003074004430
         N            0.919248200006     0.674116839641    -0.000130624639    14.003074004430
         C           -1.098233799994    -0.000009160359     0.000182375361    12.000000000000
         H           -2.383397799994    -0.000020960359     0.000391975361     1.007825032230

  Basis Set: AUG-CC-PVTZ
    Blend: AUG-CC-PVTZ
  Basis Set: (AUG-CC-PVTZ AUX)
    Blend: AUG-CC-PVTZ-JKFIT
	 Reference Energy          =    -256.2691668600020876 [Eh]
	 Singles Energy            =      -0.0000000000000000 [Eh]
	 Same-Spin Energy          =      -0.2866583656342575 [Eh]
	 Opposite-Spin Energy      =      -0.8005340785398998 [Eh]
	 Correlation Energy        =      -1.0871924441741572 [Eh]
	 Total Energy              =    -257.3563593041762374 [Eh]

	 ================> DF-SCS-MP2 Energies <==================
	-----------------------------------------------------------
	 SCS Same-Spin Scale       =       0.3333333333333333 [-]
	 SCS Opposite-Spin Scale   =       1.2000000000000000 [-]
	 SCS Same-Spin Energy      =      -0.0955527885447525 [Eh]
	 SCS Opposite-Spin Energy  =      -0.9606408942478797 [Eh]
	 SCS Correlation Energy    =      -1.0561936827926321 [Eh]
	 SCS Total Energy          =    -257.3253605427947264 [Eh]
	-----------------------------------------------------------

  Dipole Moment: [D]
     X:    -2.1338      Y:    -0.0000      Z:     0.0004     Total:     2.1338

*** Psi4 exiting successfully. Buy a developer a beer!
