                               Psi4 1.4a3.dev225

  ==> Input File <==

--------------------------------------------------------------------------
#psi4
#
memory 32 gb

molecule  {
-1 1
  N       -0.3347890    -1.1274600     0.0000330
  N       -0.3348100     1.1274550     0.0000810
  N        0.9473750    -0.6741020    -0.0001810
  N        0.9473649     0.6941170    -0.0001343
  C       -1.0701170    -0.0000090     0.0001780
  H       -2.1552810    -0.0000190     0.0003550
units angstrom
no_reorient  #important for SAPT in psi4, default
symmetry c1  #important for SAPT in psi4, default
}

set PROPERTIES_ORIGIN ["COM"]
properties('MP2/aug-cc-pvtz', properties = ['dipole'])
--------------------------------------------------------------------------

    Molecular point group: c1
  Charge       = -1
  Multiplicity = 1
  Basis Set: AUG-CC-PVTZ
    Blend: AUG-CC-PVTZ
  Basis Set: (AUG-CC-PVTZ AUX)
    Blend: AUG-CC-PVTZ-JKFIT

    Orbital Energies [Eh]
    ---------------------

    Doubly Occupied:

       1A    -15.424402     2A    -15.422980     3A    -15.392800
       4A    -15.391460     5A    -11.087615     6A     -1.214821
       7A     -0.994666     8A     -0.911947     9A     -0.630764
      10A     -0.619105    11A     -0.483863    12A     -0.412209
      13A     -0.355890    14A     -0.266865    15A     -0.254695
      16A     -0.242079    17A     -0.200221    18A     -0.166999

  @DF-RHF Final Energy:  -256.28917060877831

   => Energetics <=

    Nuclear Repulsion Energy =            154.6486648446218339
    One-Electron Energy =                -662.9289049430902878
    Two-Electron Energy =                 251.9910694896900907
    Total Energy =                       -256.2891706087783632
  Basis Set: (AUG-CC-PVTZ AUX)
    Blend: AUG-CC-PVTZ-RI
    Molecular point group: c1

    Geometry (in Angstrom), charge = -1, multiplicity = 1:

       Center              X                  Y                   Z               Mass
    ------------   -----------------  -----------------  -----------------  -----------------
         N           -0.365826160073    -1.131517865415     0.000037709365    14.003074004430
         N           -0.365847160073     1.123397134585     0.000085709365    14.003074004430
         N            0.916337839927    -0.678159865415    -0.000176290635    14.003074004430
         N            0.916327739927     0.690059134585    -0.000129590635    14.003074004430
         C           -1.101154160073    -0.004066865415     0.000182709365    12.000000000000
         H           -2.186318160073    -0.004076865415     0.000359709365     1.007825032230

  Basis Set: AUG-CC-PVTZ
    Blend: AUG-CC-PVTZ
  Basis Set: (AUG-CC-PVTZ AUX)
    Blend: AUG-CC-PVTZ-JKFIT
	 Reference Energy          =    -256.2891706087783064 [Eh]
	 Singles Energy            =      -0.0000000000000000 [Eh]
	 Same-Spin Energy          =      -0.2869455201572175 [Eh]
	 Opposite-Spin Energy      =      -0.8002442810685746 [Eh]
	 Correlation Energy        =      -1.0871898012257921 [Eh]
	 Total Energy              =    -257.3763604100041107 [Eh]

	 ================> DF-SCS-MP2 Energies <==================
	-----------------------------------------------------------
	 SCS Same-Spin Scale       =       0.3333333333333333 [-]
	 SCS Opposite-Spin Scale   =       1.2000000000000000 [-]
	 SCS Same-Spin Energy      =      -0.0956485067190725 [Eh]
	 SCS Opposite-Spin Energy  =      -0.9602931372822895 [Eh]
	 SCS Correlation Energy    =      -1.0559416440013620 [Eh]
	 SCS Total Energy          =    -257.3451122527796429 [Eh]
	-----------------------------------------------------------

  Dipole Moment: [D]
     X:    -2.3602      Y:     0.0030      Z:     0.0004     Total:     2.3602

*** Psi4 exiting successfully. Buy a developer a beer!
