                               Psi4 1.4a3.dev225

  ==> Input File <==

--------------------------------------------------------------------------
#psi4
#
memory 32 gb

molecule  {
-1 1
  N       -0.3347890    -1.1274600     0.0000330
  N       -0.3348100     1.1274550     0.0000810
  N        0.9473750    -0.6741020    -0.0001810
  N        0.9473654     0.6241170    -0.0001367
  C       -1.0701170    -0.0000090     0.0001780
  H       -2.1552810    -0.0000190     0.0003550
units angstrom
no_reorient  #important for SAPT in psi4, default
symmetry c1  #important for SAPT in psi4, default
}

set PROPERTIES_ORIGIN ["COM"]
properties('MP2/aug-cc-pvtz', properties = ['dipole'])
--------------------------------------------------------------------------

    Molecular point group: c1
  Charge       = -1
  Multiplicity = 1
  Basis Set: AUG-CC-PVTZ
    Blend: AUG-CC-PVTZ
  Basis Set: (AUG-CC-PVTZ AUX)
    Blend: AUG-CC-PVTZ-JKFIT

    Orbital Energies [Eh]
    ---------------------

    Doubly Occupied:

       1A    -15.421262     2A    -15.418241     3A    -15.386731
       4A    -15.383220     5A    -11.089624     6A     -1.229137
       7A     -0.982961     8A     -0.932485     9A     -0.628240
      10A     -0.621035    11A     -0.482957    12A     -0.418537
      13A     -0.360574    14A     -0.260663    15A     -0.255949
      16A     -0.237887    17A     -0.191566    18A     -0.180338

  @DF-RHF Final Energy:  -256.29510964868234

   => Energetics <=

    Nuclear Repulsion Energy =            155.7540926043884042
    One-Electron Energy =                -665.1355892663231089
    Two-Electron Energy =                 253.0863870132523630
    Total Energy =                       -256.2951096486823417
  Basis Set: (AUG-CC-PVTZ AUX)
    Blend: AUG-CC-PVTZ-RI
    Molecular point group: c1

    Geometry (in Angstrom), charge = -1, multiplicity = 1:

       Center              X                  Y                   Z               Mass
    ------------   -----------------  -----------------  -----------------  -----------------
         N           -0.365826261515    -1.117315989710     0.000038196286    14.003074004430
         N           -0.365847261515     1.137599010290     0.000086196286    14.003074004430
         N            0.916337738485    -0.663957989710    -0.000175803714    14.003074004430
         N            0.916328138485     0.634261010290    -0.000131503714    14.003074004430
         C           -1.101154261515     0.010135010290     0.000183196286    12.000000000000
         H           -2.186318261515     0.010125010290     0.000360196286     1.007825032230

  Basis Set: AUG-CC-PVTZ
    Blend: AUG-CC-PVTZ
  Basis Set: (AUG-CC-PVTZ AUX)
    Blend: AUG-CC-PVTZ-JKFIT
	 Reference Energy          =    -256.2951096486823417 [Eh]
	 Singles Energy            =      -0.0000000000000000 [Eh]
	 Same-Spin Energy          =      -0.2846669525325523 [Eh]
	 Opposite-Spin Energy      =      -0.7959190094855297 [Eh]
	 Correlation Energy        =      -1.0805859620180820 [Eh]
	 Total Energy              =    -257.3756956107004044 [Eh]

	 ================> DF-SCS-MP2 Energies <==================
	-----------------------------------------------------------
	 SCS Same-Spin Scale       =       0.3333333333333333 [-]
	 SCS Opposite-Spin Scale   =       1.2000000000000000 [-]
	 SCS Same-Spin Energy      =      -0.0948889841775174 [Eh]
	 SCS Opposite-Spin Energy  =      -0.9551028113826356 [Eh]
	 SCS Correlation Energy    =      -1.0499917955601530 [Eh]
	 SCS Total Energy          =    -257.3451014442425162 [Eh]
	-----------------------------------------------------------

  Dipole Moment: [D]
     X:    -2.2442      Y:    -0.0078      Z:     0.0004     Total:     2.2442

*** Psi4 exiting successfully. Buy a developer a beer!
