                               Psi4 1.4a3.dev225

  ==> Input File <==

--------------------------------------------------------------------------
#psi4
#
memory 32 gb

molecule  {
-1 1
  N       -0.3347890    -1.1274600     0.0000330
  N       -0.3348100     1.1274550     0.0000810
  N        0.9473750    -0.6741020    -0.0001810
  N        0.9473650     0.6741170    -0.0001350
  C       -1.0701170    -0.0000090     0.0001780
  H       -2.2052810    -0.0000195     0.0003632
units angstrom
no_reorient  #important for SAPT in psi4, default
symmetry c1  #important for SAPT in psi4, default
}

set PROPERTIES_ORIGIN ["COM"]
properties('MP2/aug-cc-pvtz', properties = ['dipole'])
--------------------------------------------------------------------------

    Molecular point group: c1
  Charge       = -1
  Multiplicity = 1
  Basis Set: AUG-CC-PVTZ
    Blend: AUG-CC-PVTZ
  Basis Set: (AUG-CC-PVTZ AUX)
    Blend: AUG-CC-PVTZ-JKFIT

    Orbital Energies [Eh]
    ---------------------

    Doubly Occupied:

       1A    -15.423794     2A    -15.422958     3A    -15.390879
       4A    -15.390843     5A    -11.094450     6A     -1.219147
       7A     -0.992123     8A     -0.917054     9A     -0.628915
      10A     -0.615485    11A     -0.477984    12A     -0.414519
      13A     -0.353213    14A     -0.265076    15A     -0.251191
      16A     -0.246944    17A     -0.198231    18A     -0.171397

  @DF-RHF Final Energy:  -256.28912294671608

   => Energetics <=

    Nuclear Repulsion Energy =            154.7248547053204106
    One-Electron Energy =                -663.0795526514796165
    Two-Electron Energy =                 252.0655749994431289
    Total Energy =                       -256.2891229467160770
  Basis Set: (AUG-CC-PVTZ AUX)
    Blend: AUG-CC-PVTZ-RI
    Molecular point group: c1

    Geometry (in Angstrom), charge = -1, multiplicity = 1:

       Center              X                  Y                   Z               Mass
    ------------   -----------------  -----------------  -----------------  -----------------
         N           -0.365096085269    -1.127460179341     0.000037731648    14.003074004430
         N           -0.365117085269     1.127454820659     0.000085731648    14.003074004430
         N            0.917067914731    -0.674102179341    -0.000176268352    14.003074004430
         N            0.917057914731     0.674116820659    -0.000130268352    14.003074004430
         C           -1.100424085269    -0.000009179341     0.000182731648    12.000000000000
         H           -2.235588085269    -0.000019679341     0.000367931648     1.007825032230

  Basis Set: AUG-CC-PVTZ
    Blend: AUG-CC-PVTZ
  Basis Set: (AUG-CC-PVTZ AUX)
    Blend: AUG-CC-PVTZ-JKFIT
	 Reference Energy          =    -256.2891229467160770 [Eh]
	 Singles Energy            =      -0.0000000000000000 [Eh]
	 Same-Spin Energy          =      -0.2863674276009290 [Eh]
	 Opposite-Spin Energy      =      -0.7992171546020981 [Eh]
	 Correlation Energy        =      -1.0855845822030270 [Eh]
	 Total Energy              =    -257.3747075289190889 [Eh]

	 ================> DF-SCS-MP2 Energies <==================
	-----------------------------------------------------------
	 SCS Same-Spin Scale       =       0.3333333333333333 [-]
	 SCS Opposite-Spin Scale   =       1.2000000000000000 [-]
	 SCS Same-Spin Energy      =      -0.0954558092003097 [Eh]
	 SCS Opposite-Spin Energy  =      -0.9590605855225176 [Eh]
	 SCS Correlation Energy    =      -1.0545163947228273 [Eh]
	 SCS Total Energy          =    -257.3436393414389158 [Eh]
	-----------------------------------------------------------

  Dipole Moment: [D]
     X:    -2.2915      Y:    -0.0000      Z:     0.0004     Total:     2.2915

*** Psi4 exiting successfully. Buy a developer a beer!
