                               Psi4 1.4a3.dev225

  ==> Input File <==

--------------------------------------------------------------------------
#psi4
#
memory 32 gb

molecule  {
-1 1
  N       -0.3347890    -1.1274600     0.0000330
  N       -0.3348100     1.1274550     0.0000810
  N        0.9473750    -0.6741020    -0.0001810
  N        0.9473650     0.6741170    -0.0001350
  C       -1.0701170    -0.0000090     0.0001780
  H       -2.1752810    -0.0000192     0.0003583
units angstrom
no_reorient  #important for SAPT in psi4, default
symmetry c1  #important for SAPT in psi4, default
}

set PROPERTIES_ORIGIN ["COM"]
properties('MP2/aug-cc-pvtz', properties = ['dipole'])
--------------------------------------------------------------------------

    Molecular point group: c1
  Charge       = -1
  Multiplicity = 1
  Basis Set: AUG-CC-PVTZ
    Blend: AUG-CC-PVTZ
  Basis Set: (AUG-CC-PVTZ AUX)
    Blend: AUG-CC-PVTZ-JKFIT

    Orbital Energies [Eh]
    ---------------------

    Doubly Occupied:

       1A    -15.423360     2A    -15.422524     3A    -15.390412
       4A    -15.390376     5A    -11.090712     6A     -1.218679
       7A     -0.991652     8A     -0.917361     9A     -0.628476
      10A     -0.619060    11A     -0.481341    12A     -0.414079
      13A     -0.355583    14A     -0.264653    15A     -0.250849
      16A     -0.246552    17A     -0.197842    18A     -0.171016

  @DF-RHF Final Energy:  -256.29095872133638

   => Energetics <=

    Nuclear Repulsion Energy =            154.8621722457474164
    One-Electron Energy =                -663.3572064368348720
    Two-Electron Energy =                 252.2040754697511034
    Total Energy =                       -256.2909587213363807
  Basis Set: (AUG-CC-PVTZ AUX)
    Blend: AUG-CC-PVTZ-RI
    Molecular point group: c1

    Geometry (in Angstrom), charge = -1, multiplicity = 1:

       Center              X                  Y                   Z               Mass
    ------------   -----------------  -----------------  -----------------  -----------------
         N           -0.365534142324    -1.127460183722     0.000037803197    14.003074004430
         N           -0.365555142324     1.127454816278     0.000085803197    14.003074004430
         N            0.916629857676    -0.674102183722    -0.000176196803    14.003074004430
         N            0.916619857676     0.674116816278    -0.000130196803    14.003074004430
         C           -1.100862142324    -0.000009183722     0.000182803197    12.000000000000
         H           -2.206026142324    -0.000019383722     0.000363103197     1.007825032230

  Basis Set: AUG-CC-PVTZ
    Blend: AUG-CC-PVTZ
  Basis Set: (AUG-CC-PVTZ AUX)
    Blend: AUG-CC-PVTZ-JKFIT
	 Reference Energy          =    -256.2909587213363807 [Eh]
	 Singles Energy            =      -0.0000000000000000 [Eh]
	 Same-Spin Energy          =      -0.2863220374828580 [Eh]
	 Opposite-Spin Energy      =      -0.7990630543153110 [Eh]
	 Correlation Energy        =      -1.0853850917981691 [Eh]
	 Total Energy              =    -257.3763438131345538 [Eh]

	 ================> DF-SCS-MP2 Energies <==================
	-----------------------------------------------------------
	 SCS Same-Spin Scale       =       0.3333333333333333 [-]
	 SCS Opposite-Spin Scale   =       1.2000000000000000 [-]
	 SCS Same-Spin Energy      =      -0.0954406791609527 [Eh]
	 SCS Opposite-Spin Energy  =      -0.9588756651783732 [Eh]
	 SCS Correlation Energy    =      -1.0543163443393258 [Eh]
	 SCS Total Energy          =    -257.3452750656757075 [Eh]
	-----------------------------------------------------------

  Dipole Moment: [D]
     X:    -2.3161      Y:    -0.0000      Z:     0.0004     Total:     2.3161

*** Psi4 exiting successfully. Buy a developer a beer!
