                               Psi4 1.4a3.dev225

  ==> Input File <==

--------------------------------------------------------------------------
#psi4
#
memory 32 gb

molecule  {
-1 1
  N       -0.3347890    -1.1274600     0.0000330
  N       -0.3348100     1.1274550     0.0000810
  N        0.9473750    -0.6741020    -0.0001810
  N        0.9473650     0.6741170    -0.0001350
  C       -1.0591913    -0.0167610     0.0001758
  H       -2.1552810    -0.0000190     0.0003550
units angstrom
no_reorient  #important for SAPT in psi4, default
symmetry c1  #important for SAPT in psi4, default
}

set PROPERTIES_ORIGIN ["COM"]
properties('MP2/aug-cc-pvtz', properties = ['dipole'])
--------------------------------------------------------------------------

    Molecular point group: c1
  Charge       = -1
  Multiplicity = 1
  Basis Set: AUG-CC-PVTZ
    Blend: AUG-CC-PVTZ
  Basis Set: (AUG-CC-PVTZ AUX)
    Blend: AUG-CC-PVTZ-JKFIT

    Orbital Energies [Eh]
    ---------------------

    Doubly Occupied:

       1A    -15.424132     2A    -15.421048     3A    -15.389537
       4A    -15.389160     5A    -11.087959     6A     -1.220291
       7A     -0.993396     8A     -0.918376     9A     -0.630394
      10A     -0.619266    11A     -0.482542    12A     -0.415248
      13A     -0.354443    14A     -0.265811    15A     -0.251455
      16A     -0.246095    17A     -0.198689    18A     -0.171192

  @DF-RHF Final Energy:  -256.29166086558649

   => Energetics <=

    Nuclear Repulsion Energy =            155.1782213366829239
    One-Electron Energy =                -663.9816974327861772
    Two-Electron Energy =                 252.5118152305167882
    Total Energy =                       -256.2916608655864934
  Basis Set: (AUG-CC-PVTZ AUX)
    Blend: AUG-CC-PVTZ-RI
    Molecular point group: c1

    Geometry (in Angstrom), charge = -1, multiplicity = 1:

       Center              X                  Y                   Z               Mass
    ------------   -----------------  -----------------  -----------------  -----------------
         N           -0.367725748168    -1.124547644662     0.000038233880    14.003074004430
         N           -0.367746748168     1.130367355338     0.000086233880    14.003074004430
         N            0.914438251832    -0.671189644662    -0.000175766120    14.003074004430
         N            0.914428251832     0.677029355338    -0.000129766120    14.003074004430
         C           -1.092128048168    -0.013848644662     0.000181033880    12.000000000000
         H           -2.188217748168     0.002893355338     0.000360233880     1.007825032230

  Basis Set: AUG-CC-PVTZ
    Blend: AUG-CC-PVTZ
  Basis Set: (AUG-CC-PVTZ AUX)
    Blend: AUG-CC-PVTZ-JKFIT
	 Reference Energy          =    -256.2916608655864934 [Eh]
	 Singles Energy            =      -0.0000000000000000 [Eh]
	 Same-Spin Energy          =      -0.2861228733162318 [Eh]
	 Opposite-Spin Energy      =      -0.7986249011787097 [Eh]
	 Correlation Energy        =      -1.0847477744949414 [Eh]
	 Total Energy              =    -257.3764086400814222 [Eh]

	 ================> DF-SCS-MP2 Energies <==================
	-----------------------------------------------------------
	 SCS Same-Spin Scale       =       0.3333333333333333 [-]
	 SCS Opposite-Spin Scale   =       1.2000000000000000 [-]
	 SCS Same-Spin Energy      =      -0.0953742911054106 [Eh]
	 SCS Opposite-Spin Energy  =      -0.9583498814144515 [Eh]
	 SCS Correlation Energy    =      -1.0537241725198621 [Eh]
	 SCS Total Energy          =    -257.3453850381063717 [Eh]
	-----------------------------------------------------------

  Dipole Moment: [D]
     X:    -2.3112      Y:    -0.0449      Z:     0.0004     Total:     2.3116

*** Psi4 exiting successfully. Buy a developer a beer!
