                               Psi4 1.3.2 release

  ==> Input File <==

--------------------------------------------------------------------------
#psi4
#
memory 32 gb

molecule  {
-1 1
  N       -0.3347890    -1.1274600     0.0000330
  N       -0.3348100     1.1274550     0.0000810
  N        0.9473750    -0.6741020    -0.0001810
  N        0.8530846     0.7074517    -0.0001191
  C       -1.0701170    -0.0000090     0.0001780
  H       -2.1552810    -0.0000190     0.0003550
units angstrom
no_reorient  #important for SAPT in psi4, default
symmetry c1  #important for SAPT in psi4, default
}

set PROPERTIES_ORIGIN ["COM"]
properties('MP2/aug-cc-pvtz', properties = ['dipole'])
--------------------------------------------------------------------------

    Molecular point group: c1
  Charge       = -1
  Multiplicity = 1
  Basis Set: AUG-CC-PVTZ
    Blend: AUG-CC-PVTZ
  Basis Set: (AUG-CC-PVTZ AUX)
    Blend: AUG-CC-PVTZ-JKFIT

    Orbital Energies [Eh]
    ---------------------

    Doubly Occupied:

       1A    -15.414500     2A    -15.413492     3A    -15.395747
       4A    -15.391254     5A    -11.080424     6A     -1.237906
       7A     -1.022697     8A     -0.897397     9A     -0.643041
      10A     -0.613400    11A     -0.491264    12A     -0.423689
      13A     -0.359837    14A     -0.269329    15A     -0.266247
      16A     -0.220948    17A     -0.216166    18A     -0.154135

  @DF-RHF Final Energy:  -256.28645260225306

   => Energetics <=

    Nuclear Repulsion Energy =            156.5278820280067862
    One-Electron Energy =                -666.6057231540437442
    Two-Electron Energy =                 253.7913885237838656
    Total Energy =                       -256.2864526022531209
  Basis Set: (AUG-CC-PVTZ AUX)
    Blend: AUG-CC-PVTZ-RI
    Molecular point group: c1

    Geometry (in Angstrom), charge = -1, multiplicity = 1:

       Center              X                  Y                   Z               Mass
    ------------   -----------------  -----------------  -----------------  -----------------
         N           -0.346698201472    -1.134223261872     0.000034625529    14.003074004430
         N           -0.346719201472     1.120691738128     0.000082625529    14.003074004430
         N            0.935465798528    -0.680865261872    -0.000179374471    14.003074004430
         N            0.841175398528     0.700688438128    -0.000117474471    14.003074004430
         C           -1.082026201472    -0.006772261872     0.000179625529    12.000000000000
         H           -2.167190201472    -0.006782261872     0.000356625529     1.007825032230

  Basis Set: AUG-CC-PVTZ
    Blend: AUG-CC-PVTZ
  Basis Set: (AUG-CC-PVTZ AUX)
    Blend: AUG-CC-PVTZ-JKFIT
	 Reference Energy          =    -256.2864526022530640 [Eh]
	 Singles Energy            =      -0.0000000000000000 [Eh]
	 Same-Spin Energy          =      -0.2859008876852159 [Eh]
	 Opposite-Spin Energy      =      -0.7966465715400592 [Eh]
	 Correlation Energy        =      -1.0825474592252751 [Eh]
	 Total Energy              =    -257.3690000614783457 [Eh]

	 ================> DF-SCS-MP2 Energies <==================
	-----------------------------------------------------------
	 SCS Same-Spin Scale       =       0.3333333333333333 [-]
	 SCS Opposite-Spin Scale   =       1.2000000000000000 [-]
	 SCS Same-Spin Energy      =      -0.0953002958950720 [Eh]
	 SCS Opposite-Spin Energy  =      -0.9559758858480710 [Eh]
	 SCS Correlation Energy    =      -1.0512761817431431 [Eh]
	 SCS Total Energy          =    -257.3377287839962264 [Eh]
	-----------------------------------------------------------

  Dipole Moment: [D]
     X:    -2.3668      Y:     0.1477      Z:     0.0004     Total:     2.3714

*** Psi4 exiting successfully. Buy a developer a beer!
