                               Psi4 1.3.2 release

  ==> Input File <==

--------------------------------------------------------------------------
#psi4
#
memory 32 gb

molecule  {
-1 1
  N       -0.3347890    -1.1274600     0.0000330
  N       -0.3348100     1.1274550     0.0000810
  N        0.9473750    -0.6741020    -0.0001810
  N        1.1359259     0.6074476    -0.0001668
  C       -1.0701170    -0.0000090     0.0001780
  H       -2.1552810    -0.0000190     0.0003550
units angstrom
no_reorient  #important for SAPT in psi4, default
symmetry c1  #important for SAPT in psi4, default
}

set PROPERTIES_ORIGIN ["COM"]
properties('MP2/aug-cc-pvtz', properties = ['dipole'])
--------------------------------------------------------------------------

    Molecular point group: c1
  Charge       = -1
  Multiplicity = 1
  Basis Set: AUG-CC-PVTZ
    Blend: AUG-CC-PVTZ
  Basis Set: (AUG-CC-PVTZ AUX)
    Blend: AUG-CC-PVTZ-JKFIT

    Orbital Energies [Eh]
    ---------------------

    Doubly Occupied:

       1A    -15.438236     2A    -15.436315     3A    -15.385697
       4A    -15.382493     5A    -11.100087     6A     -1.203625
       7A     -0.957840     8A     -0.937794     9A     -0.642412
      10A     -0.591659    11A     -0.470852    12A     -0.404698
      13A     -0.358418    14A     -0.296953    15A     -0.249388
      16A     -0.207929    17A     -0.201875    18A     -0.171007

  @DF-RHF Final Energy:  -256.26184694528104

   => Energetics <=

    Nuclear Repulsion Energy =            152.1764484969824309
    One-Electron Energy =                -658.0020302091514850
    Two-Electron Energy =                 249.5637347668880750
    Total Energy =                       -256.2618469452810359
  Basis Set: (AUG-CC-PVTZ AUX)
    Blend: AUG-CC-PVTZ-RI
    Molecular point group: c1

    Geometry (in Angstrom), charge = -1, multiplicity = 1:

       Center              X                  Y                   Z               Mass
    ------------   -----------------  -----------------  -----------------  -----------------
         N           -0.404082158428    -1.113934036183     0.000044303093    14.003074004430
         N           -0.404103158428     1.140980963817     0.000092303093    14.003074004430
         N            0.878081841572    -0.660576036183    -0.000169696907    14.003074004430
         N            1.066632741572     0.620973563817    -0.000155496907    14.003074004430
         C           -1.139410158428     0.013516963817     0.000189303093    12.000000000000
         H           -2.224574158428     0.013506963817     0.000366303093     1.007825032230

  Basis Set: AUG-CC-PVTZ
    Blend: AUG-CC-PVTZ
  Basis Set: (AUG-CC-PVTZ AUX)
    Blend: AUG-CC-PVTZ-JKFIT
	 Reference Energy          =    -256.2618469452810359 [Eh]
	 Singles Energy            =      -0.0000000000000000 [Eh]
	 Same-Spin Energy          =      -0.2869532469314663 [Eh]
	 Opposite-Spin Energy      =      -0.8049436861424281 [Eh]
	 Correlation Energy        =      -1.0918969330738943 [Eh]
	 Total Energy              =    -257.3537438783549192 [Eh]

	 ================> DF-SCS-MP2 Energies <==================
	-----------------------------------------------------------
	 SCS Same-Spin Scale       =       0.3333333333333333 [-]
	 SCS Opposite-Spin Scale   =       1.2000000000000000 [-]
	 SCS Same-Spin Energy      =      -0.0956510823104888 [Eh]
	 SCS Opposite-Spin Energy  =      -0.9659324233709137 [Eh]
	 SCS Correlation Energy    =      -1.0615835056814025 [Eh]
	 SCS Total Energy          =    -257.3234304509624621 [Eh]
	-----------------------------------------------------------

  Dipole Moment: [D]
     X:    -2.1197      Y:    -0.2004      Z:     0.0003     Total:     2.1292

*** Psi4 exiting successfully. Buy a developer a beer!
