                               Psi4 1.3.2 release

  ==> Input File <==

--------------------------------------------------------------------------
#psi4
#
memory 32 gb

molecule  {
-1 1
  N       -0.3347890    -1.1274600     0.0000330
  N       -0.3348100     1.1274550     0.0000810
  N        0.9473750    -0.6741020    -0.0001810
  N        0.9473650     0.6741170    -0.0001350
  C       -0.9608599    -0.1675288     0.0001565
  H       -2.1552810    -0.0000190     0.0003550
units angstrom
no_reorient  #important for SAPT in psi4, default
symmetry c1  #important for SAPT in psi4, default
}

set PROPERTIES_ORIGIN ["COM"]
properties('MP2/aug-cc-pvtz', properties = ['dipole'])
--------------------------------------------------------------------------

    Molecular point group: c1
  Charge       = -1
  Multiplicity = 1
  Basis Set: AUG-CC-PVTZ
    Blend: AUG-CC-PVTZ
  Basis Set: (AUG-CC-PVTZ AUX)
    Blend: AUG-CC-PVTZ-JKFIT

    Orbital Energies [Eh]
    ---------------------

    Doubly Occupied:

       1A    -15.438083     2A    -15.408375     3A    -15.385480
       4A    -15.376271     5A    -11.084101     6A     -1.247241
       7A     -1.033599     8A     -0.913981     9A     -0.654222
      10A     -0.592837    11A     -0.479540    12A     -0.436534
      13A     -0.337161    14A     -0.270498    15A     -0.258026
      16A     -0.232161    17A     -0.231773    18A     -0.161230

  @DF-RHF Final Energy:  -256.23306107255161

   => Energetics <=

    Nuclear Repulsion Energy =            157.5016943970801435
    One-Electron Energy =                -668.3872881745320456
    Two-Electron Energy =                 254.6525327049002954
    Total Energy =                       -256.2330610725516067
  Basis Set: (AUG-CC-PVTZ AUX)
    Blend: AUG-CC-PVTZ-RI
    Molecular point group: c1

    Geometry (in Angstrom), charge = -1, multiplicity = 1:

       Center              X                  Y                   Z               Mass
    ------------   -----------------  -----------------  -----------------  -----------------
         N           -0.384821875820    -1.098334801618     0.000041589424    14.003074004430
         N           -0.384842875820     1.156580198382     0.000089589424    14.003074004430
         N            0.897342124180    -0.644976801618    -0.000172410576    14.003074004430
         N            0.897332124180     0.703242198382    -0.000126410576    14.003074004430
         C           -1.010892775820    -0.138403601618     0.000165089424    12.000000000000
         H           -2.205313875820     0.029106198382     0.000363589424     1.007825032230

  Basis Set: AUG-CC-PVTZ
    Blend: AUG-CC-PVTZ
  Basis Set: (AUG-CC-PVTZ AUX)
    Blend: AUG-CC-PVTZ-JKFIT
	 Reference Energy          =    -256.2330610725516067 [Eh]
	 Singles Energy            =      -0.0000000000000000 [Eh]
	 Same-Spin Energy          =      -0.2846448707328978 [Eh]
	 Opposite-Spin Energy      =      -0.7964916649505047 [Eh]
	 Correlation Energy        =      -1.0811365356834024 [Eh]
	 Total Energy              =    -257.3141976082350197 [Eh]

	 ================> DF-SCS-MP2 Energies <==================
	-----------------------------------------------------------
	 SCS Same-Spin Scale       =       0.3333333333333333 [-]
	 SCS Opposite-Spin Scale   =       1.2000000000000000 [-]
	 SCS Same-Spin Energy      =      -0.0948816235776326 [Eh]
	 SCS Opposite-Spin Energy  =      -0.9557899979406056 [Eh]
	 SCS Correlation Energy    =      -1.0506716215182381 [Eh]
	 SCS Total Energy          =    -257.2837326940698404 [Eh]
	-----------------------------------------------------------

  Dipole Moment: [D]
     X:    -2.0415      Y:    -0.5370      Z:     0.0003     Total:     2.1110

*** Psi4 exiting successfully. Buy a developer a beer!
