                               Psi4 1.4a3.dev225

  ==> Input File <==

--------------------------------------------------------------------------
#psi4
#
memory 32 gb

molecule  {
-1 1
  N       -0.3347890    -1.1274600     0.0000330
  N       -0.3348100     1.1274550     0.0000810
  N        0.9473750    -0.6741020    -0.0001810
  N        0.9473650     0.6741170    -0.0001350
  C       -1.0701170    -0.0000090     0.0001780
  H       -2.1352810    -0.0000188     0.0003517
units angstrom
no_reorient  #important for SAPT in psi4, default
symmetry c1  #important for SAPT in psi4, default
}

set PROPERTIES_ORIGIN ["COM"]
properties('MP2/aug-cc-pvtz', properties = ['dipole'])
--------------------------------------------------------------------------

    Molecular point group: c1
  Charge       = -1
  Multiplicity = 1
  Basis Set: AUG-CC-PVTZ
    Blend: AUG-CC-PVTZ
  Basis Set: (AUG-CC-PVTZ AUX)
    Blend: AUG-CC-PVTZ-JKFIT

    Orbital Energies [Eh]
    ---------------------

    Doubly Occupied:

       1A    -15.422828     2A    -15.421992     3A    -15.389849
       4A    -15.389813     5A    -11.085643     6A     -1.218105
       7A     -0.991071     8A     -0.917951     9A     -0.627940
      10A     -0.624552    11A     -0.485837    12A     -0.413541
      13A     -0.358483    14A     -0.264140    15A     -0.250433
      16A     -0.246066    17A     -0.197363    18A     -0.170568

  @DF-RHF Final Energy:  -256.29172827880842

   => Energetics <=

    Nuclear Repulsion Energy =            155.0537319523131998
    One-Electron Energy =                -663.7385702772227205
    Two-Electron Energy =                 252.3931100461010431
    Total Energy =                       -256.2917282788084776
  Basis Set: (AUG-CC-PVTZ AUX)
    Blend: AUG-CC-PVTZ-RI
    Molecular point group: c1

    Geometry (in Angstrom), charge = -1, multiplicity = 1:

       Center              X                  Y                   Z               Mass
    ------------   -----------------  -----------------  -----------------  -----------------
         N           -0.366118218398    -1.127460189563     0.000037899570    14.003074004430
         N           -0.366139218398     1.127454810437     0.000085899570    14.003074004430
         N            0.916045781602    -0.674102189563    -0.000176100430    14.003074004430
         N            0.916035781602     0.674116810437    -0.000130100430    14.003074004430
         C           -1.101446218398    -0.000009189563     0.000182899570    12.000000000000
         H           -2.166610218398    -0.000018989563     0.000356599570     1.007825032230

  Basis Set: AUG-CC-PVTZ
    Blend: AUG-CC-PVTZ
  Basis Set: (AUG-CC-PVTZ AUX)
    Blend: AUG-CC-PVTZ-JKFIT
	 Reference Energy          =    -256.2917282788084208 [Eh]
	 Singles Energy            =      -0.0000000000000000 [Eh]
	 Same-Spin Energy          =      -0.2862713819304836 [Eh]
	 Opposite-Spin Energy      =      -0.7989211332960483 [Eh]
	 Correlation Energy        =      -1.0851925152265318 [Eh]
	 Total Energy              =    -257.3769207940349588 [Eh]

	 ================> DF-SCS-MP2 Energies <==================
	-----------------------------------------------------------
	 SCS Same-Spin Scale       =       0.3333333333333333 [-]
	 SCS Opposite-Spin Scale   =       1.2000000000000000 [-]
	 SCS Same-Spin Energy      =      -0.0954237939768279 [Eh]
	 SCS Opposite-Spin Energy  =      -0.9587053599552580 [Eh]
	 SCS Correlation Energy    =      -1.0541291539320858 [Eh]
	 SCS Total Energy          =    -257.3458574327405017 [Eh]
	-----------------------------------------------------------

  Dipole Moment: [D]
     X:    -2.3455      Y:    -0.0000      Z:     0.0004     Total:     2.3455

*** Psi4 exiting successfully. Buy a developer a beer!
