                               Psi4 1.4a3.dev225

  ==> Input File <==

--------------------------------------------------------------------------
#psi4
#
memory 32 gb

molecule  {
0 1
  O       -2.5655710    -0.4559810    -0.0273220
  C       -0.3219540     0.2014800    -0.4424590
  C        0.8011690     1.2489480    -0.2099430
  C        0.2481280    -1.1299970     0.0738820
  C        2.0012720     0.4634390     0.3560030
  C        1.7579830    -0.9743980    -0.1079500
  C       -1.6233710     0.5871250     0.2278630
  H       -0.5227930     0.1057830    -1.5165510
  H        0.4809950     2.0448300     0.4733970
  H        1.0672970     1.7363810    -1.1533330
  H       -0.1801860    -1.9933440    -0.4418670
  H        0.0160370    -1.2410800     1.1417000
  H        1.9874495     0.4926245     1.4019538
  H        2.9643500     0.8718720     0.0334030
  H        2.0194460    -1.0766330    -1.1687710
  H        2.3431410    -1.7133200     0.4495090
  H       -1.9840770     1.5507320    -0.1638540
  H       -1.4499160     0.7092340     1.3093790
  H       -3.3958760    -0.2202110     0.4192690
units angstrom
no_reorient  #important for SAPT in psi4, default
symmetry c1  #important for SAPT in psi4, default
}

set PROPERTIES_ORIGIN ["COM"]
properties('MP2/aug-cc-pvtz', properties = ['dipole'])
--------------------------------------------------------------------------

    Molecular point group: c1
  Charge       = 0
  Multiplicity = 1
  Basis Set: AUG-CC-PVTZ
    Blend: AUG-CC-PVTZ
  Basis Set: (AUG-CC-PVTZ AUX)
    Blend: AUG-CC-PVTZ-JKFIT

    Orbital Energies [Eh]
    ---------------------

    Doubly Occupied:

       1A    -20.556082     2A    -11.271319     3A    -11.216615
       4A    -11.214751     5A    -11.210357     6A    -11.206929
       7A    -11.206781     8A     -1.352758     9A     -1.122353
      10A     -0.998206    11A     -0.957167    12A     -0.874393
      13A     -0.782043    14A     -0.754228    15A     -0.687629
      16A     -0.649913    17A     -0.636828    18A     -0.619536
      19A     -0.569314    20A     -0.564447    21A     -0.523935
      22A     -0.473751    23A     -0.469881    24A     -0.462088
      25A     -0.460670    26A     -0.459324    27A     -0.448819
      28A     -0.432294

  @DF-RHF Final Energy:  -309.16110800091383

   => Energetics <=

    Nuclear Repulsion Energy =            325.1393173390343350
    One-Electron Energy =               -1064.2360317989155192
    Two-Electron Energy =                 429.9356064589674133
    Total Energy =                       -309.1611080009138277
  Basis Set: (AUG-CC-PVTZ AUX)
    Blend: AUG-CC-PVTZ-RI
    Molecular point group: c1

    Geometry (in Angstrom), charge = 0, multiplicity = 1:

       Center              X                  Y                   Z               Mass
    ------------   -----------------  -----------------  -----------------  -----------------
         O           -2.532547169373    -0.443417844205    -0.018550894112    15.994914619570
         C           -0.288930169373     0.214043155795    -0.433687894112    12.000000000000
         C            0.834192830627     1.261511155795    -0.201171894112    12.000000000000
         C            0.281151830627    -1.117433844205     0.082653105888    12.000000000000
         C            2.034295830627     0.476002155795     0.364774105888    12.000000000000
         C            1.791006830627    -0.961834844205    -0.099178894112    12.000000000000
         C           -1.590347169373     0.599688155795     0.236634105888    12.000000000000
         H           -0.489769169373     0.118346155795    -1.507779894112     1.007825032230
         H            0.514018830627     2.057393155795     0.482168105888     1.007825032230
         H            1.100320830627     1.748944155795    -1.144561894112     1.007825032230
         H           -0.147162169373    -1.980780844205    -0.433095894112     1.007825032230
         H            0.049060830627    -1.228516844205     1.150471105888     1.007825032230
         H            2.020473330627     0.505187655795     1.410724905888     1.007825032230
         H            2.997373830627     0.884435155795     0.042174105888     1.007825032230
         H            2.052469830627    -1.064069844205    -1.159999894112     1.007825032230
         H            2.376164830627    -1.700756844205     0.458280105888     1.007825032230
         H           -1.951053169373     1.563295155795    -0.155082894112     1.007825032230
         H           -1.416892169373     0.721797155795     1.318150105888     1.007825032230
         H           -3.362852169373    -0.207647844205     0.428040105888     1.007825032230

  Basis Set: AUG-CC-PVTZ
    Blend: AUG-CC-PVTZ
  Basis Set: (AUG-CC-PVTZ AUX)
    Blend: AUG-CC-PVTZ-JKFIT
	 Reference Energy          =    -309.1611080009138277 [Eh]
	 Singles Energy            =      -0.0000000000000000 [Eh]
	 Same-Spin Energy          =      -0.3223819903947069 [Eh]
	 Opposite-Spin Energy      =      -1.1091892695046752 [Eh]
	 Correlation Energy        =      -1.4315712598993822 [Eh]
	 Total Energy              =    -310.5926792608132132 [Eh]

	 ================> DF-SCS-MP2 Energies <==================
	-----------------------------------------------------------
	 SCS Same-Spin Scale       =       0.3333333333333333 [-]
	 SCS Opposite-Spin Scale   =       1.2000000000000000 [-]
	 SCS Same-Spin Energy      =      -0.1074606634649023 [Eh]
	 SCS Opposite-Spin Energy  =      -1.3310271234056101 [Eh]
	 SCS Correlation Energy    =      -1.4384877868705124 [Eh]
	 SCS Total Energy          =    -310.5995957877843239 [Eh]
	-----------------------------------------------------------

  Dipole Moment: [D]
     X:    -0.1876      Y:     1.1747      Z:     0.7798     Total:     1.4224

*** Psi4 exiting successfully. Buy a developer a beer!
