                               Psi4 1.4a3.dev225

  ==> Input File <==

--------------------------------------------------------------------------
#psi4
#
memory 32 gb

molecule  {
0 1
  O       -2.5655710    -0.4559810    -0.0273220
  C       -0.3219540     0.2014800    -0.4424590
  C        0.8011690     1.2489480    -0.2099430
  C        0.2481280    -1.1299970     0.0738820
  C        2.0012720     0.4634390     0.3560030
  C        1.7579830    -0.9743980    -0.1079500
  C       -1.5903949     0.6236327     0.2367942
  H       -0.5227930     0.1057830    -1.5165510
  H        0.4809950     2.0448300     0.4733970
  H        1.0672970     1.7363810    -1.1533330
  H       -0.1801860    -1.9933440    -0.4418670
  H        0.0160370    -1.2410800     1.1417000
  H        1.9867890     0.4940190     1.4519300
  H        2.9643500     0.8718720     0.0334030
  H        2.0194460    -1.0766330    -1.1687710
  H        2.3431410    -1.7133200     0.4495090
  H       -1.9840770     1.5507320    -0.1638540
  H       -1.4499160     0.7092340     1.3093790
  H       -3.3958760    -0.2202110     0.4192690
units angstrom
no_reorient  #important for SAPT in psi4, default
symmetry c1  #important for SAPT in psi4, default
}

set PROPERTIES_ORIGIN ["COM"]
properties('MP2/aug-cc-pvtz', properties = ['dipole'])
--------------------------------------------------------------------------

    Molecular point group: c1
  Charge       = 0
  Multiplicity = 1
  Basis Set: AUG-CC-PVTZ
    Blend: AUG-CC-PVTZ
  Basis Set: (AUG-CC-PVTZ AUX)
    Blend: AUG-CC-PVTZ-JKFIT

    Orbital Energies [Eh]
    ---------------------

    Doubly Occupied:

       1A    -20.550261     2A    -11.271098     3A    -11.217570
       4A    -11.215859     5A    -11.214033     6A    -11.211507
       7A    -11.207909     8A     -1.333648     9A     -1.123745
      10A     -1.001289    11A     -0.957405    12A     -0.875973
      13A     -0.778981    14A     -0.756396    15A     -0.676875
      16A     -0.650661    17A     -0.634858    18A     -0.618141
      19A     -0.569422    20A     -0.557445    21A     -0.518651
      22A     -0.475001    23A     -0.471290    24A     -0.461160
      25A     -0.460319    26A     -0.458328    27A     -0.453743
      28A     -0.436892

  @DF-RHF Final Energy:  -309.15925551703498

   => Energetics <=

    Nuclear Repulsion Energy =            324.6983348870267605
    One-Electron Energy =               -1063.3982629079841900
    Two-Electron Energy =                 429.5406725039225080
    Total Energy =                       -309.1592555170349783
  Basis Set: (AUG-CC-PVTZ AUX)
    Blend: AUG-CC-PVTZ-RI
    Molecular point group: c1

    Geometry (in Angstrom), charge = 0, multiplicity = 1:

       Center              X                  Y                   Z               Mass
    ------------   -----------------  -----------------  -----------------  -----------------
         O           -2.536494139187    -0.447808922388    -0.020124912801    15.994914619570
         C           -0.292877139187     0.209652077612    -0.435261912801    12.000000000000
         C            0.830245860813     1.257120077612    -0.202745912801    12.000000000000
         C            0.277204860813    -1.121824922388     0.081079087199    12.000000000000
         C            2.030348860813     0.471611077612     0.363200087199    12.000000000000
         C            1.787059860813    -0.966225922388    -0.100752912801    12.000000000000
         C           -1.561318039187     0.631804777612     0.243991287199    12.000000000000
         H           -0.493716139187     0.113955077612    -1.509353912801     1.007825032230
         H            0.510071860813     2.053002077612     0.480594087199     1.007825032230
         H            1.096373860813     1.744553077612    -1.146135912801     1.007825032230
         H           -0.151109139187    -1.985171922388    -0.434669912801     1.007825032230
         H            0.045113860813    -1.232907922388     1.148897087199     1.007825032230
         H            2.015865860813     0.502191077612     1.459127087199     1.007825032230
         H            2.993426860813     0.880044077612     0.040600087199     1.007825032230
         H            2.048522860813    -1.068460922388    -1.161573912801     1.007825032230
         H            2.372217860813    -1.705147922388     0.456706087199     1.007825032230
         H           -1.955000139187     1.558904077612    -0.156656912801     1.007825032230
         H           -1.420839139187     0.717406077612     1.316576087199     1.007825032230
         H           -3.366799139187    -0.212038922388     0.426466087199     1.007825032230

  Basis Set: AUG-CC-PVTZ
    Blend: AUG-CC-PVTZ
  Basis Set: (AUG-CC-PVTZ AUX)
    Blend: AUG-CC-PVTZ-JKFIT
	 Reference Energy          =    -309.1592555170349783 [Eh]
	 Singles Energy            =      -0.0000000000000000 [Eh]
	 Same-Spin Energy          =      -0.3225791053790831 [Eh]
	 Opposite-Spin Energy      =      -1.1103978327843931 [Eh]
	 Correlation Energy        =      -1.4329769381634763 [Eh]
	 Total Energy              =    -310.5922324551984275 [Eh]

	 ================> DF-SCS-MP2 Energies <==================
	-----------------------------------------------------------
	 SCS Same-Spin Scale       =       0.3333333333333333 [-]
	 SCS Opposite-Spin Scale   =       1.2000000000000000 [-]
	 SCS Same-Spin Energy      =      -0.1075263684596943 [Eh]
	 SCS Opposite-Spin Energy  =      -1.3324773993412717 [Eh]
	 SCS Correlation Energy    =      -1.4400037678009661 [Eh]
	 SCS Total Energy          =    -310.5992592848359664 [Eh]
	-----------------------------------------------------------

  Dipole Moment: [D]
     X:    -0.0366      Y:     1.2876      Z:     0.7698     Total:     1.5006

*** Psi4 exiting successfully. Buy a developer a beer!
