                               Psi4 1.4a3.dev225

  ==> Input File <==

--------------------------------------------------------------------------
#psi4
#
memory 32 gb

molecule  {
0 1
  O       -2.5655710    -0.4559810    -0.0273220
  C       -0.3024789     0.1898711    -0.4911072
  C        0.8011690     1.2489480    -0.2099430
  C        0.2481280    -1.1299970     0.0738820
  C        2.0012720     0.4634390     0.3560030
  C        1.7579830    -0.9743980    -0.1079500
  C       -1.6233710     0.5871250     0.2278630
  H       -0.5227930     0.1057830    -1.5165510
  H        0.4809950     2.0448300     0.4733970
  H        1.0672970     1.7363810    -1.1533330
  H       -0.1801860    -1.9933440    -0.4418670
  H        0.0160370    -1.2410800     1.1417000
  H        1.9867890     0.4940190     1.4519300
  H        2.9643500     0.8718720     0.0334030
  H        2.0194460    -1.0766330    -1.1687710
  H        2.3431410    -1.7133200     0.4495090
  H       -1.9840770     1.5507320    -0.1638540
  H       -1.4499160     0.7092340     1.3093790
  H       -3.3958760    -0.2202110     0.4192690
units angstrom
no_reorient  #important for SAPT in psi4, default
symmetry c1  #important for SAPT in psi4, default
}

set PROPERTIES_ORIGIN ["COM"]
properties('MP2/aug-cc-pvtz', properties = ['dipole'])
--------------------------------------------------------------------------

    Molecular point group: c1
  Charge       = 0
  Multiplicity = 1
  Basis Set: AUG-CC-PVTZ
    Blend: AUG-CC-PVTZ
  Basis Set: (AUG-CC-PVTZ AUX)
    Blend: AUG-CC-PVTZ-JKFIT

    Orbital Energies [Eh]
    ---------------------

    Doubly Occupied:

       1A    -20.555315     2A    -11.272269     3A    -11.215566
       4A    -11.214727     5A    -11.212928     6A    -11.210331
       7A    -11.206772     8A     -1.351546     9A     -1.121042
      10A     -0.991978    11A     -0.956227    12A     -0.871823
      13A     -0.777861    14A     -0.760137    15A     -0.685600
      16A     -0.650159    17A     -0.633881    18A     -0.617120
      19A     -0.570649    20A     -0.563064    21A     -0.522971
      22A     -0.474574    23A     -0.471550    24A     -0.462625
      25A     -0.460484    26A     -0.456776    27A     -0.442617
      28A     -0.432957

  @DF-RHF Final Energy:  -309.15919901401907

   => Energetics <=

    Nuclear Repulsion Energy =            324.5571476062315810
    One-Electron Energy =               -1063.1055985388957197
    Two-Electron Energy =                 429.3892519186450158
    Total Energy =                       -309.1591990140190660
  Basis Set: (AUG-CC-PVTZ AUX)
    Blend: AUG-CC-PVTZ-RI
    Molecular point group: c1

    Geometry (in Angstrom), charge = 0, multiplicity = 1:

       Center              X                  Y                   Z               Mass
    ------------   -----------------  -----------------  -----------------  -----------------
         O           -2.534875456820    -0.442040054009    -0.013221516053    15.994914619570
         C           -0.271783356820     0.203812045991    -0.477006716053    12.000000000000
         C            0.831864543180     1.262888945991    -0.195842516053    12.000000000000
         C            0.278823543180    -1.116056054009     0.087982483947    12.000000000000
         C            2.031967543180     0.477379945991     0.370103483947    12.000000000000
         C            1.788678543180    -0.960457054009    -0.093849516053    12.000000000000
         C           -1.592675456820     0.601065945991     0.241963483947    12.000000000000
         H           -0.492097456820     0.119723945991    -1.502450516053     1.007825032230
         H            0.511690543180     2.058770945991     0.487497483947     1.007825032230
         H            1.097992543180     1.750321945991    -1.139232516053     1.007825032230
         H           -0.149490456820    -1.979403054009    -0.427766516053     1.007825032230
         H            0.046732543180    -1.227139054009     1.155800483947     1.007825032230
         H            2.017484543180     0.507959945991     1.466030483947     1.007825032230
         H            2.995045543180     0.885812945991     0.047503483947     1.007825032230
         H            2.050141543180    -1.062692054009    -1.154670516053     1.007825032230
         H            2.373836543180    -1.699379054009     0.463609483947     1.007825032230
         H           -1.953381456820     1.564672945991    -0.149753516053     1.007825032230
         H           -1.419220456820     0.723174945991     1.323479483947     1.007825032230
         H           -3.365180456820    -0.206270054009     0.433369483947     1.007825032230

  Basis Set: AUG-CC-PVTZ
    Blend: AUG-CC-PVTZ
  Basis Set: (AUG-CC-PVTZ AUX)
    Blend: AUG-CC-PVTZ-JKFIT
	 Reference Energy          =    -309.1591990140190660 [Eh]
	 Singles Energy            =      -0.0000000000000000 [Eh]
	 Same-Spin Energy          =      -0.3222164494966299 [Eh]
	 Opposite-Spin Energy      =      -1.1094062296566274 [Eh]
	 Correlation Energy        =      -1.4316226791532571 [Eh]
	 Total Energy              =    -310.5908216931723018 [Eh]

	 ================> DF-SCS-MP2 Energies <==================
	-----------------------------------------------------------
	 SCS Same-Spin Scale       =       0.3333333333333333 [-]
	 SCS Opposite-Spin Scale   =       1.2000000000000000 [-]
	 SCS Same-Spin Energy      =      -0.1074054831655433 [Eh]
	 SCS Opposite-Spin Energy  =      -1.3312874755879529 [Eh]
	 SCS Correlation Energy    =      -1.4386929587534962 [Eh]
	 SCS Total Energy          =    -310.5978919727725724 [Eh]
	-----------------------------------------------------------

  Dipole Moment: [D]
     X:    -0.2134      Y:     1.1616      Z:     0.7273     Total:     1.3870

*** Psi4 exiting successfully. Buy a developer a beer!
