                               Psi4 1.4a3.dev225

  ==> Input File <==

--------------------------------------------------------------------------
#psi4
#
memory 32 gb

molecule  {
0 1
  O       -2.5655710    -0.4559810    -0.0273220
  C       -0.3219540     0.2014800    -0.4424590
  C        0.8011690     1.2489480    -0.2099430
  C        0.2481280    -1.1299970     0.0738820
  C        2.0012720     0.4634390     0.3560030
  C        1.7579830    -0.9743980    -0.1079500
  C       -1.6233710     0.5871250     0.2278630
  H       -0.5227930     0.1057830    -1.5165510
  H        0.4809950     2.0448300     0.4733970
  H        1.0624349     1.7274758    -1.1360976
  H       -0.1801860    -1.9933440    -0.4418670
  H        0.0160370    -1.2410800     1.1417000
  H        1.9867890     0.4940190     1.4519300
  H        2.9643500     0.8718720     0.0334030
  H        2.0194460    -1.0766330    -1.1687710
  H        2.3431410    -1.7133200     0.4495090
  H       -1.9840770     1.5507320    -0.1638540
  H       -1.4499160     0.7092340     1.3093790
  H       -3.3958760    -0.2202110     0.4192690
units angstrom
no_reorient  #important for SAPT in psi4, default
symmetry c1  #important for SAPT in psi4, default
}

set PROPERTIES_ORIGIN ["COM"]
properties('MP2/aug-cc-pvtz', properties = ['dipole'])
--------------------------------------------------------------------------

    Molecular point group: c1
  Charge       = 0
  Multiplicity = 1
  Basis Set: AUG-CC-PVTZ
    Blend: AUG-CC-PVTZ
  Basis Set: (AUG-CC-PVTZ AUX)
    Blend: AUG-CC-PVTZ-JKFIT

    Orbital Energies [Eh]
    ---------------------

    Doubly Occupied:

       1A    -20.556061     2A    -11.271299     3A    -11.216614
       4A    -11.213375     5A    -11.212614     6A    -11.210740
       7A    -11.206787     8A     -1.352742     9A     -1.122037
      10A     -0.997158    11A     -0.957430    12A     -0.874077
      13A     -0.778699    14A     -0.754580    15A     -0.688106
      16A     -0.650404    17A     -0.635018    18A     -0.619563
      19A     -0.570583    20A     -0.561747    21A     -0.523621
      22A     -0.474010    23A     -0.470146    24A     -0.462609
      25A     -0.459811    26A     -0.457722    27A     -0.448970
      28A     -0.432319

  @DF-RHF Final Energy:  -309.16209703868446

   => Energetics <=

    Nuclear Repulsion Energy =            325.0027554127468079
    One-Electron Energy =               -1063.9720142991709508
    Two-Electron Energy =                 429.8071618477396214
    Total Energy =                       -309.1620970386844647
  Basis Set: (AUG-CC-PVTZ AUX)
    Blend: AUG-CC-PVTZ-RI
    Molecular point group: c1

    Geometry (in Angstrom), charge = 0, multiplicity = 1:

       Center              X                  Y                   Z               Mass
    ------------   -----------------  -----------------  -----------------  -----------------
         O           -2.532491560617    -0.443342216659    -0.019227668364    15.994914619570
         C           -0.288874560617     0.214118783341    -0.434364668364    12.000000000000
         C            0.834248439383     1.261586783341    -0.201848668364    12.000000000000
         C            0.281207439383    -1.117358216659     0.081976331636    12.000000000000
         C            2.034351439383     0.476077783341     0.364097331636    12.000000000000
         C            1.791062439383    -0.961759216659    -0.099855668364    12.000000000000
         C           -1.590291560617     0.599763783341     0.235957331636    12.000000000000
         H           -0.489713560617     0.118421783341    -1.508456668364     1.007825032230
         H            0.514074439383     2.057468783341     0.481491331636     1.007825032230
         H            1.095514339383     1.740114583341    -1.128003268364     1.007825032230
         H           -0.147106560617    -1.980705216659    -0.433772668364     1.007825032230
         H            0.049116439383    -1.228441216659     1.149794331636     1.007825032230
         H            2.019868439383     0.506657783341     1.460024331636     1.007825032230
         H            2.997429439383     0.884510783341     0.041497331636     1.007825032230
         H            2.052525439383    -1.063994216659    -1.160676668364     1.007825032230
         H            2.376220439383    -1.700681216659     0.457603331636     1.007825032230
         H           -1.950997560617     1.563370783341    -0.155759668364     1.007825032230
         H           -1.416836560617     0.721872783341     1.317473331636     1.007825032230
         H           -3.362796560617    -0.207572216659     0.427363331636     1.007825032230

  Basis Set: AUG-CC-PVTZ
    Blend: AUG-CC-PVTZ
  Basis Set: (AUG-CC-PVTZ AUX)
    Blend: AUG-CC-PVTZ-JKFIT
	 Reference Energy          =    -309.1620970386844647 [Eh]
	 Singles Energy            =      -0.0000000000000000 [Eh]
	 Same-Spin Energy          =      -0.3223753110928286 [Eh]
	 Opposite-Spin Energy      =      -1.1093354327641476 [Eh]
	 Correlation Energy        =      -1.4317107438569763 [Eh]
	 Total Energy              =    -310.5938077825414325 [Eh]

	 ================> DF-SCS-MP2 Energies <==================
	-----------------------------------------------------------
	 SCS Same-Spin Scale       =       0.3333333333333333 [-]
	 SCS Opposite-Spin Scale   =       1.2000000000000000 [-]
	 SCS Same-Spin Energy      =      -0.1074584370309429 [Eh]
	 SCS Opposite-Spin Energy  =      -1.3312025193169770 [Eh]
	 SCS Correlation Energy    =      -1.4386609563479198 [Eh]
	 SCS Total Energy          =    -310.6007579950323816 [Eh]
	-----------------------------------------------------------

  Dipole Moment: [D]
     X:    -0.1924      Y:     1.1809      Z:     0.7369     Total:     1.4052

*** Psi4 exiting successfully. Buy a developer a beer!
