                               Psi4 1.4a3.dev225

  ==> Input File <==

--------------------------------------------------------------------------
#psi4
#
memory 32 gb

molecule  {
0 1
  O       -2.5655710    -0.4559810    -0.0273220
  C       -0.3219540     0.2014800    -0.4424590
  C        0.8011690     1.2489480    -0.2099430
  C        0.2539919    -1.0853753     0.1713181
  C        2.0012720     0.4634390     0.3560030
  C        1.7579830    -0.9743980    -0.1079500
  C       -1.6233710     0.5871250     0.2278630
  H       -0.5227930     0.1057830    -1.5165510
  H        0.4809950     2.0448300     0.4733970
  H        1.0672970     1.7363810    -1.1533330
  H       -0.1801860    -1.9933440    -0.4418670
  H        0.0160370    -1.2410800     1.1417000
  H        1.9867890     0.4940190     1.4519300
  H        2.9643500     0.8718720     0.0334030
  H        2.0194460    -1.0766330    -1.1687710
  H        2.3431410    -1.7133200     0.4495090
  H       -1.9840770     1.5507320    -0.1638540
  H       -1.4499160     0.7092340     1.3093790
  H       -3.3958760    -0.2202110     0.4192690
units angstrom
no_reorient  #important for SAPT in psi4, default
symmetry c1  #important for SAPT in psi4, default
}

set PROPERTIES_ORIGIN ["COM"]
properties('MP2/aug-cc-pvtz', properties = ['dipole'])
--------------------------------------------------------------------------

    Molecular point group: c1
  Charge       = 0
  Multiplicity = 1
  Basis Set: AUG-CC-PVTZ
    Blend: AUG-CC-PVTZ
  Basis Set: (AUG-CC-PVTZ AUX)
    Blend: AUG-CC-PVTZ-JKFIT

    Orbital Energies [Eh]
    ---------------------

    Doubly Occupied:

       1A    -20.556023     2A    -11.271134     3A    -11.217609
       4A    -11.214540     5A    -11.212656     6A    -11.211438
       7A    -11.207200     8A     -1.352801     9A     -1.123956
      10A     -0.998045    11A     -0.955118    12A     -0.872974
      13A     -0.783345    14A     -0.757060    15A     -0.686934
      16A     -0.643728    17A     -0.637087    18A     -0.620436
      19A     -0.573403    20A     -0.565041    21A     -0.525908
      22A     -0.481811    23A     -0.470555    24A     -0.463143
      25A     -0.459606    26A     -0.447539    27A     -0.442803
      28A     -0.430151

  @DF-RHF Final Energy:  -309.14835455570397

   => Energetics <=

    Nuclear Repulsion Energy =            325.2690008068228735
    One-Electron Energy =               -1064.4706233795197932
    Two-Electron Energy =                 430.0532680169929449
    Total Energy =                       -309.1483545557039747
  Basis Set: (AUG-CC-PVTZ AUX)
    Blend: AUG-CC-PVTZ-RI
    Molecular point group: c1

    Geometry (in Angstrom), charge = 0, multiplicity = 1:

       Center              X                  Y                   Z               Mass
    ------------   -----------------  -----------------  -----------------  -----------------
         O           -2.533243562187    -0.448781738382    -0.030736076495    15.994914619570
         C           -0.289626562187     0.208679261618    -0.445873076495    12.000000000000
         C            0.833496437813     1.256147261618    -0.213357076495    12.000000000000
         C            0.286319337813    -1.078176038382     0.167904023505    12.000000000000
         C            2.033599437813     0.470638261618     0.352588923505    12.000000000000
         C            1.790310437813    -0.967198738382    -0.111364076495    12.000000000000
         C           -1.591043562187     0.594324261618     0.224448923505    12.000000000000
         H           -0.490465562187     0.112982261618    -1.519965076495     1.007825032230
         H            0.513322437813     2.052029261618     0.469982923505     1.007825032230
         H            1.099624437813     1.743580261618    -1.156747076495     1.007825032230
         H           -0.147858562187    -1.986144738382    -0.445281076495     1.007825032230
         H            0.048364437813    -1.233880738382     1.138285923505     1.007825032230
         H            2.019116437813     0.501218261618     1.448515923505     1.007825032230
         H            2.996677437813     0.879071261618     0.029988923505     1.007825032230
         H            2.051773437813    -1.069433738382    -1.172185076495     1.007825032230
         H            2.375468437813    -1.706120738382     0.446094923505     1.007825032230
         H           -1.951749562187     1.557931261618    -0.167268076495     1.007825032230
         H           -1.417588562187     0.716433261618     1.305964923505     1.007825032230
         H           -3.363548562187    -0.213011738382     0.415854923505     1.007825032230

  Basis Set: AUG-CC-PVTZ
    Blend: AUG-CC-PVTZ
  Basis Set: (AUG-CC-PVTZ AUX)
    Blend: AUG-CC-PVTZ-JKFIT
	 Reference Energy          =    -309.1483545557039747 [Eh]
	 Singles Energy            =      -0.0000000000000000 [Eh]
	 Same-Spin Energy          =      -0.3226899631442112 [Eh]
	 Opposite-Spin Energy      =      -1.1102120528829484 [Eh]
	 Correlation Energy        =      -1.4329020160271597 [Eh]
	 Total Energy              =    -310.5812565717311600 [Eh]

	 ================> DF-SCS-MP2 Energies <==================
	-----------------------------------------------------------
	 SCS Same-Spin Scale       =       0.3333333333333333 [-]
	 SCS Opposite-Spin Scale   =       1.2000000000000000 [-]
	 SCS Same-Spin Energy      =      -0.1075633210480704 [Eh]
	 SCS Opposite-Spin Energy  =      -1.3322544634595381 [Eh]
	 SCS Correlation Energy    =      -1.4398177845076086 [Eh]
	 SCS Total Energy          =    -310.5881723402115995 [Eh]
	-----------------------------------------------------------

  Dipole Moment: [D]
     X:    -0.1851      Y:     1.1873      Z:     0.7954     Total:     1.4411

*** Psi4 exiting successfully. Buy a developer a beer!
