                               Psi4 1.4a3.dev225

  ==> Input File <==

--------------------------------------------------------------------------
#psi4
#
memory 32 gb

molecule  {
0 1
  O       -2.5655710    -0.4559810    -0.0273220
  C       -0.3219540     0.2014800    -0.4424590
  C        0.8011690     1.2489480    -0.2099430
  C        0.2481280    -1.1299970     0.0738820
  C        2.0012720     0.4634390     0.3560030
  C        1.7579830    -0.9743980    -0.1079500
  C       -1.6233710     0.5871250     0.2278630
  H       -0.5227930     0.1057830    -1.5165510
  H        0.4809950     2.0448300     0.4733970
  H        1.0672970     1.7363810    -1.1533330
  H       -0.1801860    -1.9933440    -0.4418670
  H        0.0160370    -1.2410800     1.1417000
  H        1.9867890     0.4940190     1.4519300
  H        2.9643500     0.8718720     0.0334030
  H        2.0194460    -1.0766330    -1.1687710
  H        2.3431410    -1.7133200     0.4495090
  H       -1.9840770     1.5507320    -0.1638540
  H       -1.4184395     0.7313929     1.5056396
  H       -3.3958760    -0.2202110     0.4192690
units angstrom
no_reorient  #important for SAPT in psi4, default
symmetry c1  #important for SAPT in psi4, default
}

set PROPERTIES_ORIGIN ["COM"]
properties('MP2/aug-cc-pvtz', properties = ['dipole'])
--------------------------------------------------------------------------

    Molecular point group: c1
  Charge       = 0
  Multiplicity = 1
  Basis Set: AUG-CC-PVTZ
    Blend: AUG-CC-PVTZ
  Basis Set: (AUG-CC-PVTZ AUX)
    Blend: AUG-CC-PVTZ-JKFIT

    Orbital Energies [Eh]
    ---------------------

    Doubly Occupied:

       1A    -20.561811     2A    -11.295745     3A    -11.219881
       4A    -11.215527     5A    -11.213381     6A    -11.211021
       7A    -11.207203     8A     -1.356921     9A     -1.122223
      10A     -0.995135    11A     -0.956793    12A     -0.866160
      13A     -0.778598    14A     -0.748369    15A     -0.687235
      16A     -0.650756    17A     -0.634593    18A     -0.609668
      19A     -0.569793    20A     -0.562908    21A     -0.518911
      22A     -0.474218    23A     -0.468705    24A     -0.463135
      25A     -0.459267    26A     -0.456500    27A     -0.450632
      28A     -0.423169

  @DF-RHF Final Energy:  -309.14243394833824

   => Energetics <=

    Nuclear Repulsion Energy =            324.0714901032610555
    One-Electron Energy =               -1062.0713326433788097
    Two-Electron Energy =                 428.8574085917794605
    Total Energy =                       -309.1424339483382369
  Basis Set: (AUG-CC-PVTZ AUX)
    Blend: AUG-CC-PVTZ-RI
    Molecular point group: c1

    Geometry (in Angstrom), charge = 0, multiplicity = 1:

       Center              X                  Y                   Z               Mass
    ------------   -----------------  -----------------  -----------------  -----------------
         O           -2.532857465146    -0.443655010626    -0.021030328111    15.994914619570
         C           -0.289240465146     0.213805989374    -0.436167328111    12.000000000000
         C            0.833882534854     1.261273989374    -0.203651328111    12.000000000000
         C            0.280841534854    -1.117671010626     0.080173671889    12.000000000000
         C            2.033985534854     0.475764989374     0.362294671889    12.000000000000
         C            1.790696534854    -0.962072010626    -0.101658328111    12.000000000000
         C           -1.590657465146     0.599450989374     0.234154671889    12.000000000000
         H           -0.490079465146     0.118108989374    -1.510259328111     1.007825032230
         H            0.513708534854     2.057155989374     0.479688671889     1.007825032230
         H            1.100010534854     1.748706989374    -1.147041328111     1.007825032230
         H           -0.147472465146    -1.981018010626    -0.435575328111     1.007825032230
         H            0.048750534854    -1.228754010626     1.147991671889     1.007825032230
         H            2.019502534854     0.506344989374     1.458221671889     1.007825032230
         H            2.997063534854     0.884197989374     0.039694671889     1.007825032230
         H            2.052159534854    -1.064307010626    -1.162479328111     1.007825032230
         H            2.375854534854    -1.700994010626     0.455800671889     1.007825032230
         H           -1.951363465146     1.563057989374    -0.157562328111     1.007825032230
         H           -1.385725965146     0.743718889374     1.511931271889     1.007825032230
         H           -3.363162465146    -0.207885010626     0.425560671889     1.007825032230

  Basis Set: AUG-CC-PVTZ
    Blend: AUG-CC-PVTZ
  Basis Set: (AUG-CC-PVTZ AUX)
    Blend: AUG-CC-PVTZ-JKFIT
	 Reference Energy          =    -309.1424339483382369 [Eh]
	 Singles Energy            =      -0.0000000000000000 [Eh]
	 Same-Spin Energy          =      -0.3227004907314545 [Eh]
	 Opposite-Spin Energy      =      -1.1113527213477830 [Eh]
	 Correlation Energy        =      -1.4340532120792373 [Eh]
	 Total Energy              =    -310.5764871604174573 [Eh]

	 ================> DF-SCS-MP2 Energies <==================
	-----------------------------------------------------------
	 SCS Same-Spin Scale       =       0.3333333333333333 [-]
	 SCS Opposite-Spin Scale   =       1.2000000000000000 [-]
	 SCS Same-Spin Energy      =      -0.1075668302438181 [Eh]
	 SCS Opposite-Spin Energy  =      -1.3336232656173395 [Eh]
	 SCS Correlation Energy    =      -1.4411900958611576 [Eh]
	 SCS Total Energy          =    -310.5836240441993823 [Eh]
	-----------------------------------------------------------

  Dipole Moment: [D]
     X:    -0.2498      Y:     1.0937      Z:     0.5354     Total:     1.2431

*** Psi4 exiting successfully. Buy a developer a beer!
