                               Psi4 1.4a3.dev225

  ==> Input File <==

--------------------------------------------------------------------------
#psi4
#
memory 32 gb

molecule  {
0 1
  O       -2.5655710    -0.4559810    -0.0273220
  C       -0.3219540     0.2014800    -0.4424590
  C        0.8011690     1.2489480    -0.2099430
  C        0.2481280    -1.1299970     0.0738820
  C        2.0012720     0.4634390     0.3560030
  C        1.7579830    -0.9743980    -0.1079500
  C       -1.6233710     0.5871250     0.2278630
  H       -0.5227930     0.1057830    -1.5165510
  H        0.4809950     2.0448300     0.4733970
  H        1.0672970     1.7363810    -1.1533330
  H       -0.1801860    -1.9933440    -0.4418670
  H        0.0160370    -1.2410800     1.1417000
  H        1.9867890     0.4940190     1.4519300
  H        2.9643500     0.8718720     0.0334030
  H        2.0194460    -1.0766330    -1.1687710
  H        2.3538281    -1.7268154     0.4596903
  H       -1.9840770     1.5507320    -0.1638540
  H       -1.4499160     0.7092340     1.3093790
  H       -3.3958760    -0.2202110     0.4192690
units angstrom
no_reorient  #important for SAPT in psi4, default
symmetry c1  #important for SAPT in psi4, default
}

set PROPERTIES_ORIGIN ["COM"]
properties('MP2/aug-cc-pvtz', properties = ['dipole'])
--------------------------------------------------------------------------

    Molecular point group: c1
  Charge       = 0
  Multiplicity = 1
  Basis Set: AUG-CC-PVTZ
    Blend: AUG-CC-PVTZ
  Basis Set: (AUG-CC-PVTZ AUX)
    Blend: AUG-CC-PVTZ-JKFIT

    Orbital Energies [Eh]
    ---------------------

    Doubly Occupied:

       1A    -20.556256     2A    -11.271545     3A    -11.217015
       4A    -11.215486     5A    -11.213794     6A    -11.213147
       7A    -11.207128     8A     -1.352937     9A     -1.121957
      10A     -0.996991    11A     -0.956459    12A     -0.873463
      13A     -0.777248    14A     -0.754327    15A     -0.687645
      16A     -0.650264    17A     -0.633702    18A     -0.619626
      19A     -0.568964    20A     -0.561793    21A     -0.523646
      22A     -0.473566    23A     -0.469534    24A     -0.462519
      25A     -0.459966    26A     -0.457655    27A     -0.448581
      28A     -0.432176

  @DF-RHF Final Energy:  -309.16151008945485

   => Energetics <=

    Nuclear Repulsion Energy =            324.8076960202450323
    One-Electron Energy =               -1063.5836315209246550
    Two-Electron Energy =                 429.6144254112248291
    Total Energy =                       -309.1615100894548505
  Basis Set: (AUG-CC-PVTZ AUX)
    Blend: AUG-CC-PVTZ-RI
    Molecular point group: c1

    Geometry (in Angstrom), charge = 0, multiplicity = 1:

       Center              X                  Y                   Z               Mass
    ------------   -----------------  -----------------  -----------------  -----------------
         O           -2.532648130289    -0.443295996524    -0.019156638464    15.994914619570
         C           -0.289031130289     0.214165003476    -0.434293638464    12.000000000000
         C            0.834091869711     1.261633003476    -0.201777638464    12.000000000000
         C            0.281050869711    -1.117311996524     0.082047361536    12.000000000000
         C            2.034194869711     0.476124003476     0.364168361536    12.000000000000
         C            1.790905869711    -0.961712996524    -0.099784638464    12.000000000000
         C           -1.590448130289     0.599810003476     0.236028361536    12.000000000000
         H           -0.489870130289     0.118468003476    -1.508385638464     1.007825032230
         H            0.513917869711     2.057515003476     0.481562361536     1.007825032230
         H            1.100219869711     1.749066003476    -1.145167638464     1.007825032230
         H           -0.147263130289    -1.980658996524    -0.433701638464     1.007825032230
         H            0.048959869711    -1.228394996524     1.149865361536     1.007825032230
         H            2.019711869711     0.506704003476     1.460095361536     1.007825032230
         H            2.997272869711     0.884557003476     0.041568361536     1.007825032230
         H            2.052368869711    -1.063947996524    -1.160605638464     1.007825032230
         H            2.386750969711    -1.714130396524     0.467855661536     1.007825032230
         H           -1.951154130289     1.563417003476    -0.155688638464     1.007825032230
         H           -1.416993130289     0.721919003476     1.317544361536     1.007825032230
         H           -3.362953130289    -0.207525996524     0.427434361536     1.007825032230

  Basis Set: AUG-CC-PVTZ
    Blend: AUG-CC-PVTZ
  Basis Set: (AUG-CC-PVTZ AUX)
    Blend: AUG-CC-PVTZ-JKFIT
	 Reference Energy          =    -309.1615100894548505 [Eh]
	 Singles Energy            =      -0.0000000000000000 [Eh]
	 Same-Spin Energy          =      -0.3223749882333227 [Eh]
	 Opposite-Spin Energy      =      -1.1095970440483458 [Eh]
	 Correlation Energy        =      -1.4319720322816685 [Eh]
	 Total Energy              =    -310.5934821217365425 [Eh]

	 ================> DF-SCS-MP2 Energies <==================
	-----------------------------------------------------------
	 SCS Same-Spin Scale       =       0.3333333333333333 [-]
	 SCS Opposite-Spin Scale   =       1.2000000000000000 [-]
	 SCS Same-Spin Energy      =      -0.1074583294111076 [Eh]
	 SCS Opposite-Spin Energy  =      -1.3315164528580150 [Eh]
	 SCS Correlation Energy    =      -1.4389747822691226 [Eh]
	 SCS Total Energy          =    -310.6004848717239497 [Eh]
	-----------------------------------------------------------

  Dipole Moment: [D]
     X:    -0.2078      Y:     1.1839      Z:     0.7423     Total:     1.4128

*** Psi4 exiting successfully. Buy a developer a beer!
