                               Psi4 1.4a3.dev225

  ==> Input File <==

--------------------------------------------------------------------------
#psi4
#
memory 32 gb

molecule  {
0 1
  O       -2.5655710    -0.4559810    -0.0273220
  C       -0.3219540     0.2014800    -0.4424590
  C        0.8011690     1.2489480    -0.2099430
  C        0.2481280    -1.1299970     0.0738820
  C        2.0012720     0.4634390     0.3560030
  C        1.7579830    -0.9743980    -0.1079500
  C       -1.6233710     0.5871250     0.2278630
  H       -0.5227930     0.1057830    -1.5165510
  H        0.4809950     2.0448300     0.4733970
  H        1.0672970     1.7363810    -1.1533330
  H       -0.1801860    -1.9933440    -0.4418670
  H        0.0160370    -1.2410800     1.1417000
  H        1.9867890     0.4940190     1.4519300
  H        2.9643500     0.8718720     0.0334030
  H        2.0194460    -1.0766330    -1.1687710
  H        2.3965767    -1.7807972     0.5004153
  H       -1.9840770     1.5507320    -0.1638540
  H       -1.4499160     0.7092340     1.3093790
  H       -3.3958760    -0.2202110     0.4192690
units angstrom
no_reorient  #important for SAPT in psi4, default
symmetry c1  #important for SAPT in psi4, default
}

set PROPERTIES_ORIGIN ["COM"]
properties('MP2/aug-cc-pvtz', properties = ['dipole'])
--------------------------------------------------------------------------

    Molecular point group: c1
  Charge       = 0
  Multiplicity = 1
  Basis Set: AUG-CC-PVTZ
    Blend: AUG-CC-PVTZ
  Basis Set: (AUG-CC-PVTZ AUX)
    Blend: AUG-CC-PVTZ-JKFIT

    Orbital Energies [Eh]
    ---------------------

    Doubly Occupied:

       1A    -20.556715     2A    -11.272179     3A    -11.223072
       4A    -11.217886     5A    -11.216361     6A    -11.214540
       7A    -11.208108     8A     -1.353414     9A     -1.122334
      10A     -0.996277    11A     -0.956277    12A     -0.872731
      13A     -0.773812    14A     -0.755004    15A     -0.688022
      16A     -0.650847    17A     -0.628873    18A     -0.619800
      19A     -0.568074    20A     -0.561455    21A     -0.524159
      22A     -0.473737    23A     -0.466486    24A     -0.462190
      25A     -0.460291    26A     -0.457197    27A     -0.448412
      28A     -0.431980

  @DF-RHF Final Energy:  -309.15550478624533

   => Energetics <=

    Nuclear Repulsion Energy =            324.4451934201102858
    One-Electron Energy =               -1062.8409239291579524
    Two-Electron Energy =                 429.2402257228023359
    Total Energy =                       -309.1555047862453307
  Basis Set: (AUG-CC-PVTZ AUX)
    Blend: AUG-CC-PVTZ-RI
    Molecular point group: c1

    Geometry (in Angstrom), charge = 0, multiplicity = 1:

       Center              X                  Y                   Z               Mass
    ------------   -----------------  -----------------  -----------------  -----------------
         O           -2.533078579078    -0.442752437193    -0.019566711002    15.994914619570
         C           -0.289461579078     0.214708562807    -0.434703711002    12.000000000000
         C            0.833661420922     1.262176562807    -0.202187711002    12.000000000000
         C            0.280620420922    -1.116768437193     0.081637288998    12.000000000000
         C            2.033764420922     0.476667562807     0.363758288998    12.000000000000
         C            1.790475420922    -0.961169437193    -0.100194711002    12.000000000000
         C           -1.590878579078     0.600353562807     0.235618288998    12.000000000000
         H           -0.490300579078     0.119011562807    -1.508795711002     1.007825032230
         H            0.513487420922     2.058058562807     0.481152288998     1.007825032230
         H            1.099789420922     1.749609562807    -1.145577711002     1.007825032230
         H           -0.147693579078    -1.980115437193    -0.434111711002     1.007825032230
         H            0.048529420922    -1.227851437193     1.149455288998     1.007825032230
         H            2.019281420922     0.507247562807     1.459685288998     1.007825032230
         H            2.996842420922     0.885100562807     0.041158288998     1.007825032230
         H            2.051938420922    -1.063404437193    -1.161015711002     1.007825032230
         H            2.429069120922    -1.767568637193     0.508170588998     1.007825032230
         H           -1.951584579078     1.563960562807    -0.156098711002     1.007825032230
         H           -1.417423579078     0.722462562807     1.317134288998     1.007825032230
         H           -3.363383579078    -0.206982437193     0.427024288998     1.007825032230

  Basis Set: AUG-CC-PVTZ
    Blend: AUG-CC-PVTZ
  Basis Set: (AUG-CC-PVTZ AUX)
    Blend: AUG-CC-PVTZ-JKFIT
	 Reference Energy          =    -309.1555047862453307 [Eh]
	 Singles Energy            =      -0.0000000000000000 [Eh]
	 Same-Spin Energy          =      -0.3223801151349683 [Eh]
	 Opposite-Spin Energy      =      -1.1101825186967751 [Eh]
	 Correlation Energy        =      -1.4325626338317434 [Eh]
	 Total Energy              =    -310.5880674200770954 [Eh]

	 ================> DF-SCS-MP2 Energies <==================
	-----------------------------------------------------------
	 SCS Same-Spin Scale       =       0.3333333333333333 [-]
	 SCS Opposite-Spin Scale   =       1.2000000000000000 [-]
	 SCS Same-Spin Energy      =      -0.1074600383783228 [Eh]
	 SCS Opposite-Spin Energy  =      -1.3322190224361301 [Eh]
	 SCS Correlation Energy    =      -1.4396790608144530 [Eh]
	 SCS Total Energy          =    -310.5951838470597863 [Eh]
	-----------------------------------------------------------

  Dipole Moment: [D]
     X:    -0.2624      Y:     1.2420      Z:     0.7223     Total:     1.4605

*** Psi4 exiting successfully. Buy a developer a beer!
