                               Psi4 1.4a3.dev225

  ==> Input File <==

--------------------------------------------------------------------------
#psi4
#
memory 32 gb

molecule  {
0 1
  O       -2.5655710    -0.4559810    -0.0273220
  C       -0.3219540     0.2014800    -0.4424590
  C        0.8011690     1.2489480    -0.2099430
  C        0.2481280    -1.1299970     0.0738820
  C        2.0012720     0.4634390     0.3560030
  C        1.7579830    -0.9743980    -0.1079500
  C       -1.6893232     0.5141096     0.2100005
  H       -0.5227930     0.1057830    -1.5165510
  H        0.4809950     2.0448300     0.4733970
  H        1.0672970     1.7363810    -1.1533330
  H       -0.1801860    -1.9933440    -0.4418670
  H        0.0160370    -1.2410800     1.1417000
  H        1.9867890     0.4940190     1.4519300
  H        2.9643500     0.8718720     0.0334030
  H        2.0194460    -1.0766330    -1.1687710
  H        2.3431410    -1.7133200     0.4495090
  H       -1.9840770     1.5507320    -0.1638540
  H       -1.4499160     0.7092340     1.3093790
  H       -3.3958760    -0.2202110     0.4192690
units angstrom
no_reorient  #important for SAPT in psi4, default
symmetry c1  #important for SAPT in psi4, default
}

set PROPERTIES_ORIGIN ["COM"]
properties('MP2/aug-cc-pvtz', properties = ['dipole'])
--------------------------------------------------------------------------

    Molecular point group: c1
  Charge       = 0
  Multiplicity = 1
  Basis Set: AUG-CC-PVTZ
    Blend: AUG-CC-PVTZ
  Basis Set: (AUG-CC-PVTZ AUX)
    Blend: AUG-CC-PVTZ-JKFIT

    Orbital Energies [Eh]
    ---------------------

    Doubly Occupied:

       1A    -20.567880     2A    -11.275068     3A    -11.215885
       4A    -11.214551     5A    -11.212353     6A    -11.209597
       7A    -11.205065     8A     -1.398967     9A     -1.118696
      10A     -0.989513    11A     -0.955066    12A     -0.870589
      13A     -0.777331    14A     -0.750453    15A     -0.715047
      16A     -0.650104    17A     -0.639509    18A     -0.625679
      19A     -0.579540    20A     -0.565640    21A     -0.528102
      22A     -0.472741    23A     -0.467407    24A     -0.464806
      25A     -0.457996    26A     -0.456074    27A     -0.432427
      28A     -0.417635

  @DF-RHF Final Energy:  -309.15290816331924

   => Energetics <=

    Nuclear Repulsion Energy =            325.4003591848372707
    One-Electron Energy =               -1064.6390907014906588
    Two-Electron Energy =                 430.0858233533341490
    Total Energy =                       -309.1529081633192391
  Basis Set: (AUG-CC-PVTZ AUX)
    Blend: AUG-CC-PVTZ-RI
    Molecular point group: c1

    Geometry (in Angstrom), charge = 0, multiplicity = 1:

       Center              X                  Y                   Z               Mass
    ------------   -----------------  -----------------  -----------------  -----------------
         O           -2.524633277412    -0.434677812784    -0.016912521886    15.994914619570
         C           -0.281016277412     0.222783187216    -0.432049521886    12.000000000000
         C            0.842106722588     1.270251187216    -0.199533521886    12.000000000000
         C            0.289065722588    -1.108693812784     0.084291478114    12.000000000000
         C            2.042209722588     0.484742187216     0.366412478114    12.000000000000
         C            1.798920722588    -0.953094812784    -0.097540521886    12.000000000000
         C           -1.648385477412     0.535412787216     0.220409978114    12.000000000000
         H           -0.481855277412     0.127086187216    -1.506141521886     1.007825032230
         H            0.521932722588     2.066133187216     0.483806478114     1.007825032230
         H            1.108234722588     1.757684187216    -1.142923521886     1.007825032230
         H           -0.139248277412    -1.972040812784    -0.431457521886     1.007825032230
         H            0.056974722588    -1.219776812784     1.152109478114     1.007825032230
         H            2.027726722588     0.515322187216     1.462339478114     1.007825032230
         H            3.005287722588     0.893175187216     0.043812478114     1.007825032230
         H            2.060383722588    -1.055329812784    -1.158361521886     1.007825032230
         H            2.384078722588    -1.692016812784     0.459918478114     1.007825032230
         H           -1.943139277412     1.572035187216    -0.153444521886     1.007825032230
         H           -1.408978277412     0.730537187216     1.319788478114     1.007825032230
         H           -3.354938277412    -0.198907812784     0.429678478114     1.007825032230

  Basis Set: AUG-CC-PVTZ
    Blend: AUG-CC-PVTZ
  Basis Set: (AUG-CC-PVTZ AUX)
    Blend: AUG-CC-PVTZ-JKFIT
	 Reference Energy          =    -309.1529081633192391 [Eh]
	 Singles Energy            =      -0.0000000000000000 [Eh]
	 Same-Spin Energy          =      -0.3224360761524585 [Eh]
	 Opposite-Spin Energy      =      -1.1084146163695427 [Eh]
	 Correlation Energy        =      -1.4308506925220013 [Eh]
	 Total Energy              =    -310.5837588558412676 [Eh]

	 ================> DF-SCS-MP2 Energies <==================
	-----------------------------------------------------------
	 SCS Same-Spin Scale       =       0.3333333333333333 [-]
	 SCS Opposite-Spin Scale   =       1.2000000000000000 [-]
	 SCS Same-Spin Energy      =      -0.1074786920508195 [Eh]
	 SCS Opposite-Spin Energy  =      -1.3300975396434513 [Eh]
	 SCS Correlation Energy    =      -1.4375762316942708 [Eh]
	 SCS Total Energy          =    -310.5904843950135046 [Eh]
	-----------------------------------------------------------

  Dipole Moment: [D]
     X:    -0.5242      Y:     0.8943      Z:     0.6814     Total:     1.2405

*** Psi4 exiting successfully. Buy a developer a beer!
