                               Psi4 1.4a3.dev225

  ==> Input File <==

--------------------------------------------------------------------------
#psi4
#
memory 32 gb

molecule  {
0 1
  O       -2.5655710    -0.4559810    -0.0273220
  C       -0.3219540     0.2014800    -0.4424590
  C        0.8011690     1.2489480    -0.2099430
  C        0.2852024    -1.2165875     0.1074614
  C        2.0012720     0.4634390     0.3560030
  C        1.7579830    -0.9743980    -0.1079500
  C       -1.6233710     0.5871250     0.2278630
  H       -0.5227930     0.1057830    -1.5165510
  H        0.4809950     2.0448300     0.4733970
  H        1.0672970     1.7363810    -1.1533330
  H       -0.1801860    -1.9933440    -0.4418670
  H        0.0160370    -1.2410800     1.1417000
  H        1.9867890     0.4940190     1.4519300
  H        2.9643500     0.8718720     0.0334030
  H        2.0194460    -1.0766330    -1.1687710
  H        2.3431410    -1.7133200     0.4495090
  H       -1.9840770     1.5507320    -0.1638540
  H       -1.4499160     0.7092340     1.3093790
  H       -3.3958760    -0.2202110     0.4192690
units angstrom
no_reorient  #important for SAPT in psi4, default
symmetry c1  #important for SAPT in psi4, default
}

set PROPERTIES_ORIGIN ["COM"]
properties('MP2/aug-cc-pvtz', properties = ['dipole'])
--------------------------------------------------------------------------

    Molecular point group: c1
  Charge       = 0
  Multiplicity = 1
  Basis Set: AUG-CC-PVTZ
    Blend: AUG-CC-PVTZ
  Basis Set: (AUG-CC-PVTZ AUX)
    Blend: AUG-CC-PVTZ-JKFIT

    Orbital Energies [Eh]
    ---------------------

    Doubly Occupied:

       1A    -20.555667     2A    -11.270811     3A    -11.219687
       4A    -11.215138     5A    -11.214209     6A    -11.210790
       7A    -11.205987     8A     -1.352108     9A     -1.115087
      10A     -0.995141    11A     -0.958999    12A     -0.870727
      13A     -0.779570    14A     -0.754247    15A     -0.685962
      16A     -0.650775    17A     -0.632664    18A     -0.618694
      19A     -0.575484    20A     -0.561959    21A     -0.521760
      22A     -0.483846    23A     -0.473032    24A     -0.464201
      25A     -0.460775    26A     -0.454733    27A     -0.448822
      28A     -0.413527

  @DF-RHF Final Energy:  -309.15467703088871

   => Energetics <=

    Nuclear Repulsion Energy =            323.6054880959449633
    One-Electron Energy =               -1061.1915244927874937
    Two-Electron Energy =                 428.4313593659537673
    Total Energy =                       -309.1546770308887062
  Basis Set: (AUG-CC-PVTZ AUX)
    Blend: AUG-CC-PVTZ-RI
    Molecular point group: c1

    Geometry (in Angstrom), charge = 0, multiplicity = 1:

       Center              X                  Y                   Z               Mass
    ------------   -----------------  -----------------  -----------------  -----------------
         O           -2.536985498786    -0.433050246307    -0.023080072176    15.994914619570
         C           -0.293368498786     0.224410753693    -0.438217072176    12.000000000000
         C            0.829754501214     1.271878753693    -0.205701072176    12.000000000000
         C            0.313787901214    -1.193656746307     0.111703327824    12.000000000000
         C            2.029857501214     0.486369753693     0.360244927824    12.000000000000
         C            1.786568501214    -0.951467246307    -0.103708072176    12.000000000000
         C           -1.594785498786     0.610055753693     0.232104927824    12.000000000000
         H           -0.494207498786     0.128713753693    -1.512309072176     1.007825032230
         H            0.509580501214     2.067760753693     0.477638927824     1.007825032230
         H            1.095882501214     1.759311753693    -1.149091072176     1.007825032230
         H           -0.151600498786    -1.970413246307    -0.437625072176     1.007825032230
         H            0.044622501214    -1.218149246307     1.145941927824     1.007825032230
         H            2.015374501214     0.516949753693     1.456171927824     1.007825032230
         H            2.992935501214     0.894802753693     0.037644927824     1.007825032230
         H            2.048031501214    -1.053702246307    -1.164529072176     1.007825032230
         H            2.371726501214    -1.690389246307     0.453750927824     1.007825032230
         H           -1.955491498786     1.573662753693    -0.159612072176     1.007825032230
         H           -1.421330498786     0.732164753693     1.313620927824     1.007825032230
         H           -3.367290498786    -0.197280246307     0.423510927824     1.007825032230

  Basis Set: AUG-CC-PVTZ
    Blend: AUG-CC-PVTZ
  Basis Set: (AUG-CC-PVTZ AUX)
    Blend: AUG-CC-PVTZ-JKFIT
	 Reference Energy          =    -309.1546770308887062 [Eh]
	 Singles Energy            =      -0.0000000000000000 [Eh]
	 Same-Spin Energy          =      -0.3222701557673587 [Eh]
	 Opposite-Spin Energy      =      -1.1097971621965934 [Eh]
	 Correlation Energy        =      -1.4320673179639520 [Eh]
	 Total Energy              =    -310.5867443488526760 [Eh]

	 ================> DF-SCS-MP2 Energies <==================
	-----------------------------------------------------------
	 SCS Same-Spin Scale       =       0.3333333333333333 [-]
	 SCS Opposite-Spin Scale   =       1.2000000000000000 [-]
	 SCS Same-Spin Energy      =      -0.1074233852557862 [Eh]
	 SCS Opposite-Spin Energy  =      -1.3317565946359120 [Eh]
	 SCS Correlation Energy    =      -1.4391799798916982 [Eh]
	 SCS Total Energy          =    -310.5938570107804253 [Eh]
	-----------------------------------------------------------

  Dipole Moment: [D]
     X:    -0.1910      Y:     1.1809      Z:     0.7478     Total:     1.4107

*** Psi4 exiting successfully. Buy a developer a beer!
