                               Psi4 1.4a3.dev225

  ==> Input File <==

--------------------------------------------------------------------------
#psi4
#
memory 32 gb

molecule  {
0 1
  O       -2.5655710    -0.4559810    -0.0273220
  C       -0.3219540     0.2014800    -0.4424590
  C        0.8011690     1.2489480    -0.2099430
  C        0.2481280    -1.1299970     0.0738820
  C        2.0012720     0.4634390     0.3560030
  C        1.7579830    -0.9743980    -0.1079500
  C       -1.6233710     0.5871250     0.2278630
  H       -0.5227930     0.1057830    -1.5165510
  H        0.4809950     2.0448300     0.4733970
  H        1.0672970     1.7363810    -1.1533330
  H       -0.1801860    -1.9933440    -0.4418670
  H        0.0160370    -1.2410800     1.1417000
  H        1.9867890     0.4940190     1.4519300
  H        2.9643500     0.8718720     0.0334030
  H        2.0194460    -1.0766330    -1.1687710
  H        2.3431410    -1.7133200     0.4495090
  H       -1.9840770     1.5507320    -0.1638540
  H       -1.4499160     0.7092340     1.3093790
  H       -3.4129636    -0.2153589     0.4284598
units angstrom
no_reorient  #important for SAPT in psi4, default
symmetry c1  #important for SAPT in psi4, default
}

set PROPERTIES_ORIGIN ["COM"]
properties('MP2/aug-cc-pvtz', properties = ['dipole'])
--------------------------------------------------------------------------

    Molecular point group: c1
  Charge       = 0
  Multiplicity = 1
  Basis Set: AUG-CC-PVTZ
    Blend: AUG-CC-PVTZ
  Basis Set: (AUG-CC-PVTZ AUX)
    Blend: AUG-CC-PVTZ-JKFIT

    Orbital Energies [Eh]
    ---------------------

    Doubly Occupied:

       1A    -20.557974     2A    -11.271189     3A    -11.216747
       4A    -11.215255     5A    -11.213367     6A    -11.210782
       7A    -11.206842     8A     -1.348610     9A     -1.121732
      10A     -0.996531    11A     -0.956502    12A     -0.872803
      13A     -0.778175    14A     -0.754051    15A     -0.683897
      16A     -0.649594    17A     -0.634880    18A     -0.619127
      19A     -0.569141    20A     -0.561513    21A     -0.522804
      22A     -0.473957    23A     -0.469988    24A     -0.462294
      25A     -0.459689    26A     -0.457428    27A     -0.448209
      28A     -0.431897

  @DF-RHF Final Energy:  -309.16044047685892

   => Energetics <=

    Nuclear Repulsion Energy =            324.7823166219943687
    One-Electron Energy =               -1063.5555608952995499
    Two-Electron Energy =                 429.6128037964462578
    Total Energy =                       -309.1604404768589234
  Basis Set: (AUG-CC-PVTZ AUX)
    Blend: AUG-CC-PVTZ-RI
    Molecular point group: c1

    Geometry (in Angstrom), charge = 0, multiplicity = 1:

       Center              X                  Y                   Z               Mass
    ------------   -----------------  -----------------  -----------------  -----------------
         O           -2.532368458301    -0.443480743139    -0.019146664815    15.994914619570
         C           -0.288751458301     0.213980256861    -0.434283664815    12.000000000000
         C            0.834371541699     1.261448256861    -0.201767664815    12.000000000000
         C            0.281330541699    -1.117496743139     0.082057335185    12.000000000000
         C            2.034474541699     0.475939256861     0.364178335185    12.000000000000
         C            1.791185541699    -0.961897743139    -0.099774664815    12.000000000000
         C           -1.590168458301     0.599625256861     0.236038335185    12.000000000000
         H           -0.489590458301     0.118283256861    -1.508375664815     1.007825032230
         H            0.514197541699     2.057330256861     0.481572335185     1.007825032230
         H            1.100499541699     1.748881256861    -1.145157664815     1.007825032230
         H           -0.146983458301    -1.980843743139    -0.433691664815     1.007825032230
         H            0.049239541699    -1.228579743139     1.149875335185     1.007825032230
         H            2.019991541699     0.506519256861     1.460105335185     1.007825032230
         H            2.997552541699     0.884372256861     0.041578335185     1.007825032230
         H            2.052648541699    -1.064132743139    -1.160595664815     1.007825032230
         H            2.376343541699    -1.700819743139     0.457684335185     1.007825032230
         H           -1.950874458301     1.563232256861    -0.155678664815     1.007825032230
         H           -1.416713458301     0.721734256861     1.317554335185     1.007825032230
         H           -3.379761058301    -0.202858643139     0.436635135185     1.007825032230

  Basis Set: AUG-CC-PVTZ
    Blend: AUG-CC-PVTZ
  Basis Set: (AUG-CC-PVTZ AUX)
    Blend: AUG-CC-PVTZ-JKFIT
	 Reference Energy          =    -309.1604404768589234 [Eh]
	 Singles Energy            =      -0.0000000000000000 [Eh]
	 Same-Spin Energy          =      -0.3226029681257206 [Eh]
	 Opposite-Spin Energy      =      -1.1101033364369464 [Eh]
	 Correlation Energy        =      -1.4327063045626671 [Eh]
	 Total Energy              =    -310.5931467814215807 [Eh]

	 ================> DF-SCS-MP2 Energies <==================
	-----------------------------------------------------------
	 SCS Same-Spin Scale       =       0.3333333333333333 [-]
	 SCS Opposite-Spin Scale   =       1.2000000000000000 [-]
	 SCS Same-Spin Energy      =      -0.1075343227085735 [Eh]
	 SCS Opposite-Spin Energy  =      -1.3321240037243356 [Eh]
	 SCS Correlation Energy    =      -1.4396583264329090 [Eh]
	 SCS Total Energy          =    -310.6000988032918144 [Eh]
	-----------------------------------------------------------

  Dipole Moment: [D]
     X:    -0.2094      Y:     1.1721      Z:     0.7526     Total:     1.4086

*** Psi4 exiting successfully. Buy a developer a beer!
