                               Psi4 1.4a3.dev225

  ==> Input File <==

--------------------------------------------------------------------------
#psi4
#
memory 32 gb

molecule  {
0 1
  O       -2.5655710    -0.4559810    -0.0273220
  C       -0.3219540     0.2014800    -0.4424590
  C        0.8011690     1.2489480    -0.2099430
  C        0.2481280    -1.1299970     0.0738820
  C        2.0012720     0.4634390     0.3560030
  C        1.7579830    -0.9743980    -0.1079500
  C       -1.6233710     0.5871250     0.2278630
  H       -0.5227930     0.1057830    -1.5165510
  H        0.4809950     2.0448300     0.4733970
  H        1.0672970     1.7363810    -1.1533330
  H       -0.1605939    -1.9538524    -0.4182754
  H        0.0160370    -1.2410800     1.1417000
  H        1.9867890     0.4940190     1.4519300
  H        2.9643500     0.8718720     0.0334030
  H        2.0194460    -1.0766330    -1.1687710
  H        2.3431410    -1.7133200     0.4495090
  H       -1.9840770     1.5507320    -0.1638540
  H       -1.4499160     0.7092340     1.3093790
  H       -3.3958760    -0.2202110     0.4192690
units angstrom
no_reorient  #important for SAPT in psi4, default
symmetry c1  #important for SAPT in psi4, default
}

set PROPERTIES_ORIGIN ["COM"]
properties('MP2/aug-cc-pvtz', properties = ['dipole'])
--------------------------------------------------------------------------

    Molecular point group: c1
  Charge       = 0
  Multiplicity = 1
  Basis Set: AUG-CC-PVTZ
    Blend: AUG-CC-PVTZ
  Basis Set: (AUG-CC-PVTZ AUX)
    Blend: AUG-CC-PVTZ-JKFIT

    Orbital Energies [Eh]
    ---------------------

    Doubly Occupied:

       1A    -20.556234     2A    -11.271259     3A    -11.216406
       4A    -11.214921     5A    -11.213026     6A    -11.210394
       7A    -11.200757     8A     -1.352892     9A     -1.122093
      10A     -0.996999    11A     -0.958881    12A     -0.874356
      13A     -0.779305    14A     -0.755281    15A     -0.688219
      16A     -0.653730    17A     -0.634834    18A     -0.619852
      19A     -0.569881    20A     -0.561930    21A     -0.523847
      22A     -0.476319    23A     -0.470206    24A     -0.463085
      25A     -0.460386    26A     -0.457280    27A     -0.448899
      28A     -0.431979

  @DF-RHF Final Energy:  -309.16116562935929

   => Energetics <=

    Nuclear Repulsion Energy =            325.1553267759249479
    One-Electron Energy =               -1064.2664837200509282
    Two-Electron Energy =                 429.9499913147666348
    Total Energy =                       -309.1611656293592887
  Basis Set: (AUG-CC-PVTZ AUX)
    Blend: AUG-CC-PVTZ-RI
    Molecular point group: c1

    Geometry (in Angstrom), charge = 0, multiplicity = 1:

       Center              X                  Y                   Z               Mass
    ------------   -----------------  -----------------  -----------------  -----------------
         O           -2.532737797471    -0.443829538908    -0.019291670895    15.994914619570
         C           -0.289120797471     0.213631461092    -0.434428670895    12.000000000000
         C            0.834002202529     1.261099461092    -0.201912670895    12.000000000000
         C            0.280961202529    -1.117845538908     0.081912329105    12.000000000000
         C            2.034105202529     0.475590461092     0.364033329105    12.000000000000
         C            1.790816202529    -0.962246538908    -0.099919670895    12.000000000000
         C           -1.590537797471     0.599276461092     0.235893329105    12.000000000000
         H           -0.489959797471     0.117934461092    -1.508520670895     1.007825032230
         H            0.513828202529     2.056981461092     0.481427329105     1.007825032230
         H            1.100130202529     1.748532461092    -1.145302670895     1.007825032230
         H           -0.127760697471    -1.941700938908    -0.410245070895     1.007825032230
         H            0.048870202529    -1.228928538908     1.149730329105     1.007825032230
         H            2.019622202529     0.506170461092     1.459960329105     1.007825032230
         H            2.997183202529     0.884023461092     0.041433329105     1.007825032230
         H            2.052279202529    -1.064481538908    -1.160740670895     1.007825032230
         H            2.375974202529    -1.701168538908     0.457539329105     1.007825032230
         H           -1.951243797471     1.562883461092    -0.155823670895     1.007825032230
         H           -1.417082797471     0.721385461092     1.317409329105     1.007825032230
         H           -3.363042797471    -0.208059538908     0.427299329105     1.007825032230

  Basis Set: AUG-CC-PVTZ
    Blend: AUG-CC-PVTZ
  Basis Set: (AUG-CC-PVTZ AUX)
    Blend: AUG-CC-PVTZ-JKFIT
	 Reference Energy          =    -309.1611656293592887 [Eh]
	 Singles Energy            =      -0.0000000000000000 [Eh]
	 Same-Spin Energy          =      -0.3223503964049693 [Eh]
	 Opposite-Spin Energy      =      -1.1091522209408164 [Eh]
	 Correlation Energy        =      -1.4315026173457857 [Eh]
	 Total Energy              =    -310.5926682467051023 [Eh]

	 ================> DF-SCS-MP2 Energies <==================
	-----------------------------------------------------------
	 SCS Same-Spin Scale       =       0.3333333333333333 [-]
	 SCS Opposite-Spin Scale   =       1.2000000000000000 [-]
	 SCS Same-Spin Energy      =      -0.1074501321349898 [Eh]
	 SCS Opposite-Spin Energy  =      -1.3309826651289798 [Eh]
	 SCS Correlation Energy    =      -1.4384327972639694 [Eh]
	 SCS Total Energy          =    -310.5995984266232313 [Eh]
	-----------------------------------------------------------

  Dipole Moment: [D]
     X:    -0.2072      Y:     1.1446      Z:     0.7412     Total:     1.3793

*** Psi4 exiting successfully. Buy a developer a beer!
