                               Psi4 1.4a3.dev225

  ==> Input File <==

--------------------------------------------------------------------------
#psi4
#
memory 32 gb

molecule  {
0 1
  O       -2.5655710    -0.4559810    -0.0273220
  C       -0.3219540     0.2014800    -0.4424590
  C        0.8011690     1.2489480    -0.2099430
  C        0.2462267    -1.1401467     0.0491111
  C        2.0012720     0.4634390     0.3560030
  C        1.7579830    -0.9743980    -0.1079500
  C       -1.6233710     0.5871250     0.2278630
  H       -0.5227930     0.1057830    -1.5165510
  H        0.4809950     2.0448300     0.4733970
  H        1.0672970     1.7363810    -1.1533330
  H       -0.1801860    -1.9933440    -0.4418670
  H        0.0160370    -1.2410800     1.1417000
  H        1.9867890     0.4940190     1.4519300
  H        2.9643500     0.8718720     0.0334030
  H        2.0194460    -1.0766330    -1.1687710
  H        2.3431410    -1.7133200     0.4495090
  H       -1.9840770     1.5507320    -0.1638540
  H       -1.4499160     0.7092340     1.3093790
  H       -3.3958760    -0.2202110     0.4192690
units angstrom
no_reorient  #important for SAPT in psi4, default
symmetry c1  #important for SAPT in psi4, default
}

set PROPERTIES_ORIGIN ["COM"]
properties('MP2/aug-cc-pvtz', properties = ['dipole'])
--------------------------------------------------------------------------

    Molecular point group: c1
  Charge       = 0
  Multiplicity = 1
  Basis Set: AUG-CC-PVTZ
    Blend: AUG-CC-PVTZ
  Basis Set: (AUG-CC-PVTZ AUX)
    Blend: AUG-CC-PVTZ-JKFIT

    Orbital Energies [Eh]
    ---------------------

    Doubly Occupied:

       1A    -20.556187     2A    -11.271517     3A    -11.216927
       4A    -11.215594     5A    -11.213714     6A    -11.211012
       7A    -11.207346     8A     -1.352843     9A     -1.121533
      10A     -0.997185    11A     -0.957172    12A     -0.874109
      13A     -0.777913    14A     -0.753755    15A     -0.687882
      16A     -0.652187    17A     -0.634882    18A     -0.619327
      19A     -0.568456    20A     -0.560708    21A     -0.523059
      22A     -0.477727    23A     -0.469820    24A     -0.463413
      25A     -0.460957    26A     -0.455750    27A     -0.447138
      28A     -0.431197

  @DF-RHF Final Energy:  -309.16127536451518

   => Energetics <=

    Nuclear Repulsion Energy =            324.8090900547441038
    One-Electron Energy =               -1063.5821069507303491
    Two-Electron Energy =                 429.6117415314711252
    Total Energy =                       -309.1612753645151770
  Basis Set: (AUG-CC-PVTZ AUX)
    Blend: AUG-CC-PVTZ-RI
    Molecular point group: c1

    Geometry (in Angstrom), charge = 0, multiplicity = 1:

       Center              X                  Y                   Z               Mass
    ------------   -----------------  -----------------  -----------------  -----------------
         O           -2.532312565053    -0.442215002628    -0.016084249516    15.994914619570
         C           -0.288695565053     0.215245997372    -0.431221249516    12.000000000000
         C            0.834427434947     1.262713997372    -0.198705249516    12.000000000000
         C            0.279485134947    -1.126380702628     0.060348850484    12.000000000000
         C            2.034530434947     0.477204997372     0.367240750484    12.000000000000
         C            1.791241434947    -0.960632002628    -0.096712249516    12.000000000000
         C           -1.590112565053     0.600890997372     0.239100750484    12.000000000000
         H           -0.489534565053     0.119548997372    -1.505313249516     1.007825032230
         H            0.514253434947     2.058595997372     0.484634750484     1.007825032230
         H            1.100555434947     1.750146997372    -1.142095249516     1.007825032230
         H           -0.146927565053    -1.979578002628    -0.430629249516     1.007825032230
         H            0.049295434947    -1.227314002628     1.152937750484     1.007825032230
         H            2.020047434947     0.507784997372     1.463167750484     1.007825032230
         H            2.997608434947     0.885637997372     0.044640750484     1.007825032230
         H            2.052704434947    -1.062867002628    -1.157533249516     1.007825032230
         H            2.376399434947    -1.699554002628     0.460746750484     1.007825032230
         H           -1.950818565053     1.564497997372    -0.152616249516     1.007825032230
         H           -1.416657565053     0.722999997372     1.320616750484     1.007825032230
         H           -3.362617565053    -0.206445002628     0.430506750484     1.007825032230

  Basis Set: AUG-CC-PVTZ
    Blend: AUG-CC-PVTZ
  Basis Set: (AUG-CC-PVTZ AUX)
    Blend: AUG-CC-PVTZ-JKFIT
	 Reference Energy          =    -309.1612753645151770 [Eh]
	 Singles Energy            =      -0.0000000000000000 [Eh]
	 Same-Spin Energy          =      -0.3223599877099426 [Eh]
	 Opposite-Spin Energy      =      -1.1094913435173825 [Eh]
	 Correlation Energy        =      -1.4318513312273251 [Eh]
	 Total Energy              =    -310.5931266957425123 [Eh]

	 ================> DF-SCS-MP2 Energies <==================
	-----------------------------------------------------------
	 SCS Same-Spin Scale       =       0.3333333333333333 [-]
	 SCS Opposite-Spin Scale   =       1.2000000000000000 [-]
	 SCS Same-Spin Energy      =      -0.1074533292366475 [Eh]
	 SCS Opposite-Spin Energy  =      -1.3313896122208591 [Eh]
	 SCS Correlation Energy    =      -1.4388429414575066 [Eh]
	 SCS Total Energy          =    -310.6001183059726714 [Eh]
	-----------------------------------------------------------

  Dipole Moment: [D]
     X:    -0.1946      Y:     1.1731      Z:     0.7301     Total:     1.3953

*** Psi4 exiting successfully. Buy a developer a beer!
