                               Psi4 1.4a3.dev225

  ==> Input File <==

--------------------------------------------------------------------------
#psi4
#
memory 32 gb

molecule  {
0 1
  O       -2.5655710    -0.4559810    -0.0273220
  C       -0.3219540     0.2014800    -0.4424590
  C        0.8011690     1.2489480    -0.2099430
  C        0.2481280    -1.1299970     0.0738820
  C        2.0012720     0.4634390     0.3560030
  C        1.7579830    -0.9743980    -0.1079500
  C       -1.6233710     0.5871250     0.2278630
  H       -0.5227930     0.1057830    -1.5165510
  H        0.4809950     2.0448300     0.4733970
  H        1.1159175     1.8254331    -1.3256866
  H       -0.1801860    -1.9933440    -0.4418670
  H        0.0160370    -1.2410800     1.1417000
  H        1.9867890     0.4940190     1.4519300
  H        2.9643500     0.8718720     0.0334030
  H        2.0194460    -1.0766330    -1.1687710
  H        2.3431410    -1.7133200     0.4495090
  H       -1.9840770     1.5507320    -0.1638540
  H       -1.4499160     0.7092340     1.3093790
  H       -3.3958760    -0.2202110     0.4192690
units angstrom
no_reorient  #important for SAPT in psi4, default
symmetry c1  #important for SAPT in psi4, default
}

set PROPERTIES_ORIGIN ["COM"]
properties('MP2/aug-cc-pvtz', properties = ['dipole'])
--------------------------------------------------------------------------

    Molecular point group: c1
  Charge       = 0
  Multiplicity = 1
  Basis Set: AUG-CC-PVTZ
    Blend: AUG-CC-PVTZ
  Basis Set: (AUG-CC-PVTZ AUX)
    Blend: AUG-CC-PVTZ-JKFIT

    Orbital Energies [Eh]
    ---------------------

    Doubly Occupied:

       1A    -20.557413     2A    -11.272847     3A    -11.239209
       4A    -11.219183     5A    -11.216217     6A    -11.212088
       7A    -11.208529     8A     -1.354051     9A     -1.122304
      10A     -0.999040    11A     -0.951898    12A     -0.871987
      13A     -0.776840    14A     -0.751854    15A     -0.684379
      16A     -0.648616    17A     -0.636608    18A     -0.619949
      19A     -0.563538    20A     -0.557296    21A     -0.522771
      22A     -0.475533    23A     -0.471862    24A     -0.464574
      25A     -0.461202    26A     -0.456348    27A     -0.441757
      28A     -0.426358

  @DF-RHF Final Energy:  -309.14225510024130

   => Energetics <=

    Nuclear Repulsion Energy =            324.0185045758918818
    One-Electron Energy =               -1061.9530221193640500
    Two-Electron Energy =                 428.7922624432308112
    Total Energy =                       -309.1422551002413002
  Basis Set: (AUG-CC-PVTZ AUX)
    Blend: AUG-CC-PVTZ-RI
    Molecular point group: c1

    Geometry (in Angstrom), charge = 0, multiplicity = 1:

       Center              X                  Y                   Z               Mass
    ------------   -----------------  -----------------  -----------------  -----------------
         O           -2.533030093350    -0.444328578811    -0.017318638469    15.994914619570
         C           -0.289413093350     0.213132421189    -0.432455638469    12.000000000000
         C            0.833709906650     1.260600421189    -0.199939638469    12.000000000000
         C            0.280668906650    -1.118344578811     0.083885361531    12.000000000000
         C            2.033812906650     0.475091421189     0.366006361531    12.000000000000
         C            1.790523906650    -0.962745578811    -0.097946638469    12.000000000000
         C           -1.590830093350     0.598777421189     0.237866361531    12.000000000000
         H           -0.490252093350     0.117435421189    -1.506547638469     1.007825032230
         H            0.513535906650     2.056482421189     0.483400361531     1.007825032230
         H            1.148458406650     1.837085521189    -1.315683238469     1.007825032230
         H           -0.147645093350    -1.981691578811    -0.431863638469     1.007825032230
         H            0.048577906650    -1.229427578811     1.151703361531     1.007825032230
         H            2.019329906650     0.505671421189     1.461933361531     1.007825032230
         H            2.996890906650     0.883524421189     0.043406361531     1.007825032230
         H            2.051986906650    -1.064980578811    -1.158767638469     1.007825032230
         H            2.375681906650    -1.701667578811     0.459512361531     1.007825032230
         H           -1.951536093350     1.562384421189    -0.153850638469     1.007825032230
         H           -1.417375093350     0.720886421189     1.319382361531     1.007825032230
         H           -3.363335093350    -0.208558578811     0.429272361531     1.007825032230

  Basis Set: AUG-CC-PVTZ
    Blend: AUG-CC-PVTZ
  Basis Set: (AUG-CC-PVTZ AUX)
    Blend: AUG-CC-PVTZ-JKFIT
	 Reference Energy          =    -309.1422551002413002 [Eh]
	 Singles Energy            =      -0.0000000000000000 [Eh]
	 Same-Spin Energy          =      -0.3223505547447298 [Eh]
	 Opposite-Spin Energy      =      -1.1110818310689887 [Eh]
	 Correlation Energy        =      -1.4334323858137186 [Eh]
	 Total Energy              =    -310.5756874860550170 [Eh]

	 ================> DF-SCS-MP2 Energies <==================
	-----------------------------------------------------------
	 SCS Same-Spin Scale       =       0.3333333333333333 [-]
	 SCS Opposite-Spin Scale   =       1.2000000000000000 [-]
	 SCS Same-Spin Energy      =      -0.1074501849149099 [Eh]
	 SCS Opposite-Spin Energy  =      -1.3332981972827864 [Eh]
	 SCS Correlation Energy    =      -1.4407483821976963 [Eh]
	 SCS Total Energy          =    -310.5830034824389827 [Eh]
	-----------------------------------------------------------

  Dipole Moment: [D]
     X:    -0.2384      Y:     1.0435      Z:     0.8779     Total:     1.3843

*** Psi4 exiting successfully. Buy a developer a beer!
