                               Psi4 1.4a3.dev225

  ==> Input File <==

--------------------------------------------------------------------------
#psi4
#
memory 32 gb

molecule  {
0 1
  O       -2.5655710    -0.4559810    -0.0273220
  C       -0.3219540     0.2014800    -0.4424590
  C        0.8011690     1.2489480    -0.2099430
  C        0.2481280    -1.1299970     0.0738820
  C        2.0012720     0.4634390     0.3560030
  C        1.7579830    -0.9743980    -0.1079500
  C       -1.6233710     0.5871250     0.2278630
  H       -0.5227930     0.1057830    -1.5165510
  H        0.4809950     2.0448300     0.4733970
  H        1.0672970     1.7363810    -1.1533330
  H       -0.1801860    -1.9933440    -0.4418670
  H        0.0160370    -1.2410800     1.1417000
  H        1.9841472     0.4995970     1.6518347
  H        2.9643500     0.8718720     0.0334030
  H        2.0194460    -1.0766330    -1.1687710
  H        2.3431410    -1.7133200     0.4495090
  H       -1.9840770     1.5507320    -0.1638540
  H       -1.4499160     0.7092340     1.3093790
  H       -3.3958760    -0.2202110     0.4192690
units angstrom
no_reorient  #important for SAPT in psi4, default
symmetry c1  #important for SAPT in psi4, default
}

set PROPERTIES_ORIGIN ["COM"]
properties('MP2/aug-cc-pvtz', properties = ['dipole'])
--------------------------------------------------------------------------

    Molecular point group: c1
  Charge       = 0
  Multiplicity = 1
  Basis Set: AUG-CC-PVTZ
    Blend: AUG-CC-PVTZ
  Basis Set: (AUG-CC-PVTZ AUX)
    Blend: AUG-CC-PVTZ-JKFIT

    Orbital Energies [Eh]
    ---------------------

    Doubly Occupied:

       1A    -20.556605     2A    -11.271925     3A    -11.237646
       4A    -11.218341     5A    -11.217754     6A    -11.213792
       7A    -11.207687     8A     -1.353290     9A     -1.121924
      10A     -0.996020    11A     -0.956006    12A     -0.872821
      13A     -0.769213    14A     -0.754144    15A     -0.687854
      16A     -0.651608    17A     -0.631022    18A     -0.619516
      19A     -0.570337    20A     -0.552302    21A     -0.522003
      22A     -0.476211    23A     -0.472681    24A     -0.464884
      25A     -0.461833    26A     -0.451809    27A     -0.440043
      28A     -0.428715

  @DF-RHF Final Energy:  -309.14262595597251

   => Energetics <=

    Nuclear Repulsion Energy =            324.0774304452926344
    One-Electron Energy =               -1062.0841416343864694
    Two-Electron Energy =                 428.8640852331213296
    Total Energy =                       -309.1426259559725054
  Basis Set: (AUG-CC-PVTZ AUX)
    Blend: AUG-CC-PVTZ-RI
    Molecular point group: c1

    Geometry (in Angstrom), charge = 0, multiplicity = 1:

       Center              X                  Y                   Z               Mass
    ------------   -----------------  -----------------  -----------------  -----------------
         O           -2.532513917500    -0.443488052450    -0.021067021674    15.994914619570
         C           -0.288896917500     0.213972947550    -0.436204021674    12.000000000000
         C            0.834226082500     1.261440947550    -0.203688021674    12.000000000000
         C            0.281185082500    -1.117504052450     0.080136978326    12.000000000000
         C            2.034329082500     0.475931947550     0.362257978326    12.000000000000
         C            1.791040082500    -0.961905052450    -0.101695021674    12.000000000000
         C           -1.590313917500     0.599617947550     0.234117978326    12.000000000000
         H           -0.489735917500     0.118275947550    -1.510296021674     1.007825032230
         H            0.514052082500     2.057322947550     0.479651978326     1.007825032230
         H            1.100354082500     1.748873947550    -1.147078021674     1.007825032230
         H           -0.147128917500    -1.980851052450    -0.435612021674     1.007825032230
         H            0.049094082500    -1.228587052450     1.147954978326     1.007825032230
         H            2.017204282500     0.512089947550     1.658089678326     1.007825032230
         H            2.997407082500     0.884364947550     0.039657978326     1.007825032230
         H            2.052503082500    -1.064140052450    -1.162516021674     1.007825032230
         H            2.376198082500    -1.700827052450     0.455763978326     1.007825032230
         H           -1.951019917500     1.563224947550    -0.157599021674     1.007825032230
         H           -1.416858917500     0.721726947550     1.315633978326     1.007825032230
         H           -3.362818917500    -0.207718052450     0.425523978326     1.007825032230

  Basis Set: AUG-CC-PVTZ
    Blend: AUG-CC-PVTZ
  Basis Set: (AUG-CC-PVTZ AUX)
    Blend: AUG-CC-PVTZ-JKFIT
	 Reference Energy          =    -309.1426259559725054 [Eh]
	 Singles Energy            =      -0.0000000000000000 [Eh]
	 Same-Spin Energy          =      -0.3223347697655812 [Eh]
	 Opposite-Spin Energy      =      -1.1109680636407324 [Eh]
	 Correlation Energy        =      -1.4333028334063136 [Eh]
	 Total Energy              =    -310.5759287893787928 [Eh]

	 ================> DF-SCS-MP2 Energies <==================
	-----------------------------------------------------------
	 SCS Same-Spin Scale       =       0.3333333333333333 [-]
	 SCS Opposite-Spin Scale   =       1.2000000000000000 [-]
	 SCS Same-Spin Energy      =      -0.1074449232551937 [Eh]
	 SCS Opposite-Spin Energy  =      -1.3331616763688789 [Eh]
	 SCS Correlation Energy    =      -1.4406065996240727 [Eh]
	 SCS Total Energy          =    -310.5832325555965667 [Eh]
	-----------------------------------------------------------

  Dipole Moment: [D]
     X:    -0.2385      Y:     1.1512      Z:     0.5637     Total:     1.3038

*** Psi4 exiting successfully. Buy a developer a beer!
