                               Psi4 1.4a3.dev225

  ==> Input File <==

--------------------------------------------------------------------------
#psi4
#
memory 32 gb

molecule  {
0 1
  O       -2.5655710    -0.4559810    -0.0273220
  C       -0.3845728     0.2822597    -0.4786218
  C        0.8011690     1.2489480    -0.2099430
  C        0.2481280    -1.1299970     0.0738820
  C        2.0012720     0.4634390     0.3560030
  C        1.7579830    -0.9743980    -0.1079500
  C       -1.6233710     0.5871250     0.2278630
  H       -0.5227930     0.1057830    -1.5165510
  H        0.4809950     2.0448300     0.4733970
  H        1.0672970     1.7363810    -1.1533330
  H       -0.1801860    -1.9933440    -0.4418670
  H        0.0160370    -1.2410800     1.1417000
  H        1.9867890     0.4940190     1.4519300
  H        2.9643500     0.8718720     0.0334030
  H        2.0194460    -1.0766330    -1.1687710
  H        2.3431410    -1.7133200     0.4495090
  H       -1.9840770     1.5507320    -0.1638540
  H       -1.4499160     0.7092340     1.3093790
  H       -3.3958760    -0.2202110     0.4192690
units angstrom
no_reorient  #important for SAPT in psi4, default
symmetry c1  #important for SAPT in psi4, default
}

set PROPERTIES_ORIGIN ["COM"]
properties('MP2/aug-cc-pvtz', properties = ['dipole'])
--------------------------------------------------------------------------

    Molecular point group: c1
  Charge       = 0
  Multiplicity = 1
  Basis Set: AUG-CC-PVTZ
    Blend: AUG-CC-PVTZ
  Basis Set: (AUG-CC-PVTZ AUX)
    Blend: AUG-CC-PVTZ-JKFIT

    Orbital Energies [Eh]
    ---------------------

    Doubly Occupied:

       1A    -20.557033     2A    -11.269756     3A    -11.216987
       4A    -11.216234     5A    -11.214488     6A    -11.210588
       7A    -11.209670     8A     -1.354221     9A     -1.114811
      10A     -1.007252    11A     -0.951262    12A     -0.873156
      13A     -0.776066    14A     -0.759858    15A     -0.687510
      16A     -0.649741    17A     -0.635174    18A     -0.617483
      19A     -0.574612    20A     -0.563346    21A     -0.521756
      22A     -0.476406    23A     -0.472489    24A     -0.465041
      25A     -0.463827    26A     -0.457056    27A     -0.453352
      28A     -0.409429

  @DF-RHF Final Energy:  -309.15186340086939

   => Energetics <=

    Nuclear Repulsion Energy =            324.2248019980058302
    One-Electron Energy =               -1062.3961224756353658
    Two-Electron Energy =                 429.0194570767600908
    Total Energy =                       -309.1518634008693880
  Basis Set: (AUG-CC-PVTZ AUX)
    Blend: AUG-CC-PVTZ-RI
    Molecular point group: c1

    Geometry (in Angstrom), charge = 0, multiplicity = 1:

       Center              X                  Y                   Z               Mass
    ------------   -----------------  -----------------  -----------------  -----------------
         O           -2.525032930460    -0.453116848154    -0.014718434565    15.994914619570
         C           -0.344034730460     0.285123851846    -0.466018234565    12.000000000000
         C            0.841707069540     1.251812151846    -0.197339434565    12.000000000000
         C            0.288666069540    -1.127132848154     0.086485565435    12.000000000000
         C            2.041810069540     0.466303151846     0.368606565435    12.000000000000
         C            1.798521069540    -0.971533848154    -0.095346434565    12.000000000000
         C           -1.582832930460     0.589989151846     0.240466565435    12.000000000000
         H           -0.482254930460     0.108647151846    -1.503947434565     1.007825032230
         H            0.521533069540     2.047694151846     0.486000565435     1.007825032230
         H            1.107835069540     1.739245151846    -1.140729434565     1.007825032230
         H           -0.139647930460    -1.990479848154    -0.429263434565     1.007825032230
         H            0.056575069540    -1.238215848154     1.154303565435     1.007825032230
         H            2.027327069540     0.496883151846     1.464533565435     1.007825032230
         H            3.004888069540     0.874736151846     0.046006565435     1.007825032230
         H            2.059984069540    -1.073768848154    -1.156167434565     1.007825032230
         H            2.383679069540    -1.710455848154     0.462112565435     1.007825032230
         H           -1.943538930460     1.553596151846    -0.151250434565     1.007825032230
         H           -1.409377930460     0.712098151846     1.321982565435     1.007825032230
         H           -3.355337930460    -0.217346848154     0.431872565435     1.007825032230

  Basis Set: AUG-CC-PVTZ
    Blend: AUG-CC-PVTZ
  Basis Set: (AUG-CC-PVTZ AUX)
    Blend: AUG-CC-PVTZ-JKFIT
	 Reference Energy          =    -309.1518634008693880 [Eh]
	 Singles Energy            =      -0.0000000000000000 [Eh]
	 Same-Spin Energy          =      -0.3225823146350001 [Eh]
	 Opposite-Spin Energy      =      -1.1101434079546628 [Eh]
	 Correlation Energy        =      -1.4327257225896628 [Eh]
	 Total Energy              =    -310.5845891234590681 [Eh]

	 ================> DF-SCS-MP2 Energies <==================
	-----------------------------------------------------------
	 SCS Same-Spin Scale       =       0.3333333333333333 [-]
	 SCS Opposite-Spin Scale   =       1.2000000000000000 [-]
	 SCS Same-Spin Energy      =      -0.1075274382116667 [Eh]
	 SCS Opposite-Spin Energy  =      -1.3321720895455953 [Eh]
	 SCS Correlation Energy    =      -1.4396995277572620 [Eh]
	 SCS Total Energy          =    -310.5915629286266721 [Eh]
	-----------------------------------------------------------

  Dipole Moment: [D]
     X:    -0.1818      Y:     1.1865      Z:     0.7400     Total:     1.4101

*** Psi4 exiting successfully. Buy a developer a beer!
