                               Psi4 1.4a3.dev225

  ==> Input File <==

--------------------------------------------------------------------------
#psi4
#
memory 32 gb

molecule  {
0 1
  O       -2.5655710    -0.4559810    -0.0273220
  C       -0.3219540     0.2014800    -0.4424590
  C        0.8011690     1.2489480    -0.2099430
  C        0.2481280    -1.1299970     0.0738820
  C        2.0791029     0.4124960     0.3927066
  C        1.7579830    -0.9743980    -0.1079500
  C       -1.6233710     0.5871250     0.2278630
  H       -0.5227930     0.1057830    -1.5165510
  H        0.4809950     2.0448300     0.4733970
  H        1.0672970     1.7363810    -1.1533330
  H       -0.1801860    -1.9933440    -0.4418670
  H        0.0160370    -1.2410800     1.1417000
  H        1.9867890     0.4940190     1.4519300
  H        2.9643500     0.8718720     0.0334030
  H        2.0194460    -1.0766330    -1.1687710
  H        2.3431410    -1.7133200     0.4495090
  H       -1.9840770     1.5507320    -0.1638540
  H       -1.4499160     0.7092340     1.3093790
  H       -3.3958760    -0.2202110     0.4192690
units angstrom
no_reorient  #important for SAPT in psi4, default
symmetry c1  #important for SAPT in psi4, default
}

set PROPERTIES_ORIGIN ["COM"]
properties('MP2/aug-cc-pvtz', properties = ['dipole'])
--------------------------------------------------------------------------

    Molecular point group: c1
  Charge       = 0
  Multiplicity = 1
  Basis Set: AUG-CC-PVTZ
    Blend: AUG-CC-PVTZ
  Basis Set: (AUG-CC-PVTZ AUX)
    Blend: AUG-CC-PVTZ-JKFIT

    Orbital Energies [Eh]
    ---------------------

    Doubly Occupied:

       1A    -20.556004     2A    -11.271117     3A    -11.218040
       4A    -11.216375     5A    -11.212468     6A    -11.210758
       7A    -11.207713     8A     -1.352676     9A     -1.116144
      10A     -1.000131    11A     -0.947463    12A     -0.876401
      13A     -0.782813    14A     -0.753656    15A     -0.686373
      16A     -0.650951    17A     -0.632252    18A     -0.620262
      19A     -0.567813    20A     -0.565842    21A     -0.525581
      22A     -0.481393    23A     -0.469970    24A     -0.465890
      25A     -0.464097    26A     -0.449900    27A     -0.433972
      28A     -0.431339

  @DF-RHF Final Energy:  -309.15465279110282

   => Energetics <=

    Nuclear Repulsion Energy =            323.8243913067347535
    One-Electron Energy =               -1061.6233000933907533
    Two-Electron Energy =                 428.6442559955532374
    Total Energy =                       -309.1546527911028193
  Basis Set: (AUG-CC-PVTZ AUX)
    Blend: AUG-CC-PVTZ-RI
    Molecular point group: c1

    Geometry (in Angstrom), charge = 0, multiplicity = 1:

       Center              X                  Y                   Z               Mass
    ------------   -----------------  -----------------  -----------------  -----------------
         O           -2.541871938894    -0.437324150439    -0.023454643500    15.994914619570
         C           -0.298254938894     0.220136849561    -0.438591643500    12.000000000000
         C            0.824868061106     1.267604849561    -0.206075643500    12.000000000000
         C            0.271827061106    -1.111340150439     0.077749356500    12.000000000000
         C            2.102801961106     0.431152849561     0.396573956500    12.000000000000
         C            1.781682061106    -0.955741150439    -0.104082643500    12.000000000000
         C           -1.599671938894     0.605781849561     0.231730356500    12.000000000000
         H           -0.499093938894     0.124439849561    -1.512683643500     1.007825032230
         H            0.504694061106     2.063486849561     0.477264356500     1.007825032230
         H            1.090996061106     1.755037849561    -1.149465643500     1.007825032230
         H           -0.156486938894    -1.974687150439    -0.437999643500     1.007825032230
         H            0.039736061106    -1.222423150439     1.145567356500     1.007825032230
         H            2.010488061106     0.512675849561     1.455797356500     1.007825032230
         H            2.988049061106     0.890528849561     0.037270356500     1.007825032230
         H            2.043145061106    -1.057976150439    -1.164903643500     1.007825032230
         H            2.366840061106    -1.694663150439     0.453376356500     1.007825032230
         H           -1.960377938894     1.569388849561    -0.159986643500     1.007825032230
         H           -1.426216938894     0.727890849561     1.313246356500     1.007825032230
         H           -3.372176938894    -0.201554150439     0.423136356500     1.007825032230

  Basis Set: AUG-CC-PVTZ
    Blend: AUG-CC-PVTZ
  Basis Set: (AUG-CC-PVTZ AUX)
    Blend: AUG-CC-PVTZ-JKFIT
	 Reference Energy          =    -309.1546527911028193 [Eh]
	 Singles Energy            =      -0.0000000000000000 [Eh]
	 Same-Spin Energy          =      -0.3223313641748401 [Eh]
	 Opposite-Spin Energy      =      -1.1098506630399509 [Eh]
	 Correlation Energy        =      -1.4321820272147909 [Eh]
	 Total Energy              =    -310.5868348183175840 [Eh]

	 ================> DF-SCS-MP2 Energies <==================
	-----------------------------------------------------------
	 SCS Same-Spin Scale       =       0.3333333333333333 [-]
	 SCS Opposite-Spin Scale   =       1.2000000000000000 [-]
	 SCS Same-Spin Energy      =      -0.1074437880582800 [Eh]
	 SCS Opposite-Spin Energy  =      -1.3318207956479411 [Eh]
	 SCS Correlation Energy    =      -1.4392645837062210 [Eh]
	 SCS Total Energy          =    -310.5939173748090525 [Eh]
	-----------------------------------------------------------

  Dipole Moment: [D]
     X:    -0.1784      Y:     1.1679      Z:     0.7534     Total:     1.4012

*** Psi4 exiting successfully. Buy a developer a beer!
