                               Psi4 1.4a3.dev225

  ==> Input File <==

--------------------------------------------------------------------------
#psi4
#
memory 32 gb

molecule  {
0 1
  O       -2.5655710    -0.4559810    -0.0273220
  C       -0.3219540     0.2014800    -0.4424590
  C        0.8734758     1.3163842    -0.1949736
  C        0.2481280    -1.1299970     0.0738820
  C        2.0012720     0.4634390     0.3560030
  C        1.7579830    -0.9743980    -0.1079500
  C       -1.6233710     0.5871250     0.2278630
  H       -0.5227930     0.1057830    -1.5165510
  H        0.4809950     2.0448300     0.4733970
  H        1.0672970     1.7363810    -1.1533330
  H       -0.1801860    -1.9933440    -0.4418670
  H        0.0160370    -1.2410800     1.1417000
  H        1.9867890     0.4940190     1.4519300
  H        2.9643500     0.8718720     0.0334030
  H        2.0194460    -1.0766330    -1.1687710
  H        2.3431410    -1.7133200     0.4495090
  H       -1.9840770     1.5507320    -0.1638540
  H       -1.4499160     0.7092340     1.3093790
  H       -3.3958760    -0.2202110     0.4192690
units angstrom
no_reorient  #important for SAPT in psi4, default
symmetry c1  #important for SAPT in psi4, default
}

set PROPERTIES_ORIGIN ["COM"]
properties('MP2/aug-cc-pvtz', properties = ['dipole'])
--------------------------------------------------------------------------

    Molecular point group: c1
  Charge       = 0
  Multiplicity = 1
  Basis Set: AUG-CC-PVTZ
    Blend: AUG-CC-PVTZ
  Basis Set: (AUG-CC-PVTZ AUX)
    Blend: AUG-CC-PVTZ-JKFIT

    Orbital Energies [Eh]
    ---------------------

    Doubly Occupied:

       1A    -20.555696     2A    -11.270707     3A    -11.219953
       4A    -11.213996     5A    -11.212909     6A    -11.211595
       7A    -11.206609     8A     -1.352281     9A     -1.115293
      10A     -0.994006    11A     -0.961260    12A     -0.871065
      13A     -0.778296    14A     -0.755425    15A     -0.686466
      16A     -0.647992    17A     -0.635228    18A     -0.618485
      19A     -0.576948    20A     -0.562076    21A     -0.523865
      22A     -0.485711    23A     -0.470291    24A     -0.462832
      25A     -0.461490    26A     -0.451397    27A     -0.433493
      28A     -0.430418

  @DF-RHF Final Energy:  -309.15491093922753

   => Energetics <=

    Nuclear Repulsion Energy =            323.6418884098167723
    One-Electron Energy =               -1061.2620287046261183
    Two-Electron Energy =                 428.4652293555817550
    Total Energy =                       -309.1549109392275341
  Basis Set: (AUG-CC-PVTZ AUX)
    Blend: AUG-CC-PVTZ-RI
    Molecular point group: c1

    Geometry (in Angstrom), charge = 0, multiplicity = 1:

       Center              X                  Y                   Z               Mass
    ------------   -----------------  -----------------  -----------------  -----------------
         O           -2.541209635119    -0.451517049015    -0.020848853832    15.994914619570
         C           -0.297592635119     0.205943950985    -0.435985853832    12.000000000000
         C            0.897837164881     1.320848150985    -0.188500453832    12.000000000000
         C            0.272489364881    -1.125533049015     0.080355146168    12.000000000000
         C            2.025633364881     0.467902950985     0.362476146168    12.000000000000
         C            1.782344364881    -0.969934049015    -0.101476853832    12.000000000000
         C           -1.599009635119     0.591588950985     0.234336146168    12.000000000000
         H           -0.498431635119     0.110246950985    -1.510077853832     1.007825032230
         H            0.505356364881     2.049293950985     0.479870146168     1.007825032230
         H            1.091658364881     1.740844950985    -1.146859853832     1.007825032230
         H           -0.155824635119    -1.988880049015    -0.435393853832     1.007825032230
         H            0.040398364881    -1.236616049015     1.148173146168     1.007825032230
         H            2.011150364881     0.498482950985     1.458403146168     1.007825032230
         H            2.988711364881     0.876335950985     0.039876146168     1.007825032230
         H            2.043807364881    -1.072169049015    -1.162297853832     1.007825032230
         H            2.367502364881    -1.708856049015     0.455982146168     1.007825032230
         H           -1.959715635119     1.555195950985    -0.157380853832     1.007825032230
         H           -1.425554635119     0.713697950985     1.315852146168     1.007825032230
         H           -3.371514635119    -0.215747049015     0.425742146168     1.007825032230

  Basis Set: AUG-CC-PVTZ
    Blend: AUG-CC-PVTZ
  Basis Set: (AUG-CC-PVTZ AUX)
    Blend: AUG-CC-PVTZ-JKFIT
	 Reference Energy          =    -309.1549109392275341 [Eh]
	 Singles Energy            =      -0.0000000000000000 [Eh]
	 Same-Spin Energy          =      -0.3223252144514756 [Eh]
	 Opposite-Spin Energy      =      -1.1097345513061985 [Eh]
	 Correlation Energy        =      -1.4320597657576739 [Eh]
	 Total Energy              =    -310.5869707049852195 [Eh]

	 ================> DF-SCS-MP2 Energies <==================
	-----------------------------------------------------------
	 SCS Same-Spin Scale       =       0.3333333333333333 [-]
	 SCS Opposite-Spin Scale   =       1.2000000000000000 [-]
	 SCS Same-Spin Energy      =      -0.1074417381504919 [Eh]
	 SCS Opposite-Spin Energy  =      -1.3316814615674382 [Eh]
	 SCS Correlation Energy    =      -1.4391231997179299 [Eh]
	 SCS Total Energy          =    -310.5940341389454602 [Eh]
	-----------------------------------------------------------

  Dipole Moment: [D]
     X:    -0.1925      Y:     1.1737      Z:     0.7461     Total:     1.4040

*** Psi4 exiting successfully. Buy a developer a beer!
