                               Psi4 1.4a3.dev225

  ==> Input File <==

--------------------------------------------------------------------------
#psi4
#
memory 32 gb

molecule  {
0 1
  O       -2.5655710    -0.4559810    -0.0273220
  C       -0.3219540     0.2014800    -0.4424590
  C        0.8011690     1.2489480    -0.2099430
  C        0.2481280    -1.1299970     0.0738820
  C        2.0012720     0.4634390     0.3560030
  C        1.7579830    -0.9743980    -0.1079500
  C       -1.6233710     0.5871250     0.2278630
  H       -0.5227930     0.1057830    -1.5165510
  H        0.4809950     2.0448300     0.4733970
  H        1.0672970     1.7363810    -1.1533330
  H       -0.1801860    -1.9933440    -0.4418670
  H        0.0160370    -1.2410800     1.1417000
  H        1.9867890     0.4940190     1.4519300
  H        2.9643500     0.8718720     0.0334030
  H        2.0194460    -1.0766330    -1.1687710
  H        2.4500124    -1.8482744     0.5513216
  H       -1.9840770     1.5507320    -0.1638540
  H       -1.4499160     0.7092340     1.3093790
  H       -3.3958760    -0.2202110     0.4192690
units angstrom
no_reorient  #important for SAPT in psi4, default
symmetry c1  #important for SAPT in psi4, default
}

set PROPERTIES_ORIGIN ["COM"]
properties('MP2/aug-cc-pvtz', properties = ['dipole'])
--------------------------------------------------------------------------

    Molecular point group: c1
  Charge       = 0
  Multiplicity = 1
  Basis Set: AUG-CC-PVTZ
    Blend: AUG-CC-PVTZ
  Basis Set: (AUG-CC-PVTZ AUX)
    Blend: AUG-CC-PVTZ-JKFIT

    Orbital Energies [Eh]
    ---------------------

    Doubly Occupied:

       1A    -20.557412     2A    -11.273128     3A    -11.234526
       4A    -11.219213     5A    -11.217696     6A    -11.216006
       7A    -11.209578     8A     -1.354136     9A     -1.123300
      10A     -0.996192    11A     -0.956605    12A     -0.872492
      13A     -0.771161    14A     -0.756048    15A     -0.688728
      16A     -0.651849    17A     -0.625526    18A     -0.619165
      19A     -0.567914    20A     -0.560489    21A     -0.524989
      22A     -0.475050    23A     -0.466310    24A     -0.463020
      25A     -0.460784    26A     -0.454335    27A     -0.445666
      28A     -0.430426

  @DF-RHF Final Energy:  -309.14209796552609

   => Energetics <=

    Nuclear Repulsion Energy =            324.0330870155054868
    One-Electron Energy =               -1061.9668807162304347
    Two-Electron Energy =                 428.7916957351988003
    Total Energy =                       -309.1420979655260908
  Basis Set: (AUG-CC-PVTZ AUX)
    Blend: AUG-CC-PVTZ-RI
    Molecular point group: c1

    Geometry (in Angstrom), charge = 0, multiplicity = 1:

       Center              X                  Y                   Z               Mass
    ------------   -----------------  -----------------  -----------------  -----------------
         O           -2.533616639560    -0.442072988533    -0.020079302179    15.994914619570
         C           -0.289999639560     0.215388011467    -0.435216302179    12.000000000000
         C            0.833123360440     1.262856011467    -0.202700302179    12.000000000000
         C            0.280082360440    -1.116088988533     0.081124697821    12.000000000000
         C            2.033226360440     0.477347011467     0.363245697821    12.000000000000
         C            1.789937360440    -0.960489988533    -0.100707302179    12.000000000000
         C           -1.591416639560     0.601033011467     0.235105697821    12.000000000000
         H           -0.490838639560     0.119691011467    -1.509308302179     1.007825032230
         H            0.512949360440     2.058738011467     0.480639697821     1.007825032230
         H            1.099251360440     1.750289011467    -1.146090302179     1.007825032230
         H           -0.148231639560    -1.979435988533    -0.434624302179     1.007825032230
         H            0.047991360440    -1.227171988533     1.148942697821     1.007825032230
         H            2.018743360440     0.507927011467     1.459172697821     1.007825032230
         H            2.996304360440     0.885780011467     0.040645697821     1.007825032230
         H            2.051400360440    -1.062724988533    -1.161528302179     1.007825032230
         H            2.481966760440    -1.834366388533     0.558564297821     1.007825032230
         H           -1.952122639560     1.564640011467    -0.156611302179     1.007825032230
         H           -1.417961639560     0.723142011467     1.316621697821     1.007825032230
         H           -3.363921639560    -0.206302988533     0.426511697821     1.007825032230

  Basis Set: AUG-CC-PVTZ
    Blend: AUG-CC-PVTZ
  Basis Set: (AUG-CC-PVTZ AUX)
    Blend: AUG-CC-PVTZ-JKFIT
	 Reference Energy          =    -309.1420979655260908 [Eh]
	 Singles Energy            =      -0.0000000000000000 [Eh]
	 Same-Spin Energy          =      -0.3223758586532944 [Eh]
	 Opposite-Spin Energy      =      -1.1110334112465166 [Eh]
	 Correlation Energy        =      -1.4334092698998111 [Eh]
	 Total Energy              =    -310.5755072354259028 [Eh]

	 ================> DF-SCS-MP2 Energies <==================
	-----------------------------------------------------------
	 SCS Same-Spin Scale       =       0.3333333333333333 [-]
	 SCS Opposite-Spin Scale   =       1.2000000000000000 [-]
	 SCS Same-Spin Energy      =      -0.1074586195510981 [Eh]
	 SCS Opposite-Spin Energy  =      -1.3332400934958197 [Eh]
	 SCS Correlation Energy    =      -1.4406987130469178 [Eh]
	 SCS Total Energy          =    -310.5827966785730041 [Eh]
	-----------------------------------------------------------

  Dipole Moment: [D]
     X:    -0.3431      Y:     1.3284      Z:     0.6907     Total:     1.5360

*** Psi4 exiting successfully. Buy a developer a beer!
