                               Psi4 1.4a3.dev225

  ==> Input File <==

--------------------------------------------------------------------------
#psi4
#
memory 32 gb

molecule  {
0 1
  O       -2.5655710    -0.4559810    -0.0273220
  C       -0.3219540     0.2014800    -0.4424590
  C        0.8011690     1.2489480    -0.2099430
  C        0.2481280    -1.1299970     0.0738820
  C        2.0012720     0.4634390     0.3560030
  C        1.7579830    -0.9743980    -0.1079500
  C       -1.6233710     0.5871250     0.2278630
  H       -0.5227930     0.1057830    -1.5165510
  H        0.4809950     2.0448300     0.4733970
  H        1.0916073     1.7809070    -1.2395098
  H       -0.1801860    -1.9933440    -0.4418670
  H        0.0160370    -1.2410800     1.1417000
  H        1.9867890     0.4940190     1.4519300
  H        2.9643500     0.8718720     0.0334030
  H        2.0194460    -1.0766330    -1.1687710
  H        2.3431410    -1.7133200     0.4495090
  H       -1.9840770     1.5507320    -0.1638540
  H       -1.4499160     0.7092340     1.3093790
  H       -3.3958760    -0.2202110     0.4192690
units angstrom
no_reorient  #important for SAPT in psi4, default
symmetry c1  #important for SAPT in psi4, default
}

set PROPERTIES_ORIGIN ["COM"]
properties('MP2/aug-cc-pvtz', properties = ['dipole'])
--------------------------------------------------------------------------

    Molecular point group: c1
  Charge       = 0
  Multiplicity = 1
  Basis Set: AUG-CC-PVTZ
    Blend: AUG-CC-PVTZ
  Basis Set: (AUG-CC-PVTZ AUX)
    Blend: AUG-CC-PVTZ-JKFIT

    Orbital Energies [Eh]
    ---------------------

    Doubly Occupied:

       1A    -20.556711     2A    -11.272033     3A    -11.227625
       4A    -11.217824     5A    -11.214674     6A    -11.211376
       7A    -11.207613     8A     -1.353368     9A     -1.121802
      10A     -0.998042    11A     -0.953448    12A     -0.872494
      13A     -0.777108    14A     -0.752610    15A     -0.685512
      16A     -0.649156    17A     -0.635734    18A     -0.619626
      19A     -0.563719    20A     -0.561611    21A     -0.523133
      22A     -0.474475    23A     -0.470952    24A     -0.463106
      25A     -0.460248    26A     -0.456615    27A     -0.445265
      28A     -0.430687

  @DF-RHF Final Energy:  -309.15555163230692

   => Energetics <=

    Nuclear Repulsion Energy =            324.4387984729879690
    One-Electron Energy =               -1062.8355628612121109
    Two-Electron Energy =                 429.2412127559172177
    Total Energy =                       -309.1555516323069241
  Basis Set: (AUG-CC-PVTZ AUX)
    Blend: AUG-CC-PVTZ-RI
    Molecular point group: c1

    Geometry (in Angstrom), charge = 0, multiplicity = 1:

       Center              X                  Y                   Z               Mass
    ------------   -----------------  -----------------  -----------------  -----------------
         O           -2.532785306476    -0.443880231829    -0.018186379147    15.994914619570
         C           -0.289168306476     0.213580768171    -0.433323379147    12.000000000000
         C            0.833954693524     1.261048768171    -0.200807379147    12.000000000000
         C            0.280913693524    -1.117896231829     0.083017620853    12.000000000000
         C            2.034057693524     0.475539768171     0.365138620853    12.000000000000
         C            1.790768693524    -0.962297231829    -0.098814379147    12.000000000000
         C           -1.590585306476     0.599225768171     0.236998620853    12.000000000000
         H           -0.490007306476     0.117883768171    -1.507415379147     1.007825032230
         H            0.513780693524     2.056930768171     0.482532620853     1.007825032230
         H            1.124392993524     1.793007768171    -1.230374179147     1.007825032230
         H           -0.147400306476    -1.981243231829    -0.432731379147     1.007825032230
         H            0.048822693524    -1.228979231829     1.150835620853     1.007825032230
         H            2.019574693524     0.506119768171     1.461065620853     1.007825032230
         H            2.997135693524     0.883972768171     0.042538620853     1.007825032230
         H            2.052231693524    -1.064532231829    -1.159635379147     1.007825032230
         H            2.375926693524    -1.701219231829     0.458644620853     1.007825032230
         H           -1.951291306476     1.562832768171    -0.154718379147     1.007825032230
         H           -1.417130306476     0.721334768171     1.318514620853     1.007825032230
         H           -3.363090306476    -0.208110231829     0.428404620853     1.007825032230

  Basis Set: AUG-CC-PVTZ
    Blend: AUG-CC-PVTZ
  Basis Set: (AUG-CC-PVTZ AUX)
    Blend: AUG-CC-PVTZ-JKFIT
	 Reference Energy          =    -309.1555516323069241 [Eh]
	 Singles Energy            =      -0.0000000000000000 [Eh]
	 Same-Spin Energy          =      -0.3223690421442863 [Eh]
	 Opposite-Spin Energy      =      -1.1102267634752296 [Eh]
	 Correlation Energy        =      -1.4325958056195160 [Eh]
	 Total Energy              =    -310.5881474379264660 [Eh]

	 ================> DF-SCS-MP2 Energies <==================
	-----------------------------------------------------------
	 SCS Same-Spin Scale       =       0.3333333333333333 [-]
	 SCS Opposite-Spin Scale   =       1.2000000000000000 [-]
	 SCS Same-Spin Energy      =      -0.1074563473814288 [Eh]
	 SCS Opposite-Spin Energy  =      -1.3322721161702755 [Eh]
	 SCS Correlation Energy    =      -1.4397284635517043 [Eh]
	 SCS Total Energy          =    -310.5952800958586408 [Eh]
	-----------------------------------------------------------

  Dipole Moment: [D]
     X:    -0.2145      Y:     1.1136      Z:     0.8044     Total:     1.3904

*** Psi4 exiting successfully. Buy a developer a beer!
