                               Psi4 1.4a3.dev225

  ==> Input File <==

--------------------------------------------------------------------------
#psi4
#
memory 32 gb

molecule  {
0 1
  O       -2.5655710    -0.4559810    -0.0273220
  C       -0.3219540     0.2014800    -0.4424590
  C        0.8011690     1.2489480    -0.2099430
  C        0.2481280    -1.1299970     0.0738820
  C        2.0012720     0.4634390     0.3560030
  C        1.7579830    -0.9743980    -0.1079500
  C       -1.6233710     0.5871250     0.2278630
  H       -0.5227930     0.1057830    -1.5165510
  H        0.4809950     2.0448300     0.4733970
  H        1.0672970     1.7363810    -1.1533330
  H       -0.1801860    -1.9933440    -0.4418670
  H        0.0160370    -1.2410800     1.1417000
  H        1.9867890     0.4940190     1.4519300
  H        2.9643500     0.8718720     0.0334030
  H        2.0194460    -1.0766330    -1.1687710
  H        2.3431410    -1.7133200     0.4495090
  H       -1.9840770     1.5507320    -0.1638540
  H       -1.4499160     0.7092340     1.3093790
  H       -3.3958760    -0.2202110     0.4192690
units angstrom
no_reorient  #important for SAPT in psi4, default
symmetry c1  #important for SAPT in psi4, default
}

set PROPERTIES_ORIGIN ["COM"]
properties('MP2/aug-cc-pvtz', properties = ['dipole'])
--------------------------------------------------------------------------

    Molecular point group: c1
  Charge       = 0
  Multiplicity = 1
  Basis Set: AUG-CC-PVTZ
    Blend: AUG-CC-PVTZ
  Basis Set: (AUG-CC-PVTZ AUX)
    Blend: AUG-CC-PVTZ-JKFIT

    Orbital Energies [Eh]
    ---------------------

    Doubly Occupied:

       1A    -20.556155     2A    -11.271404     3A    -11.216823
       4A    -11.215293     5A    -11.213409     6A    -11.210831
       7A    -11.206905     8A     -1.352832     9A     -1.121925
      10A     -0.997282    11A     -0.956570    12A     -0.873734
      13A     -0.778311    14A     -0.754179    15A     -0.687579
      16A     -0.650160    17A     -0.635113    18A     -0.619551
      19A     -0.569268    20A     -0.561821    21A     -0.523539
      22A     -0.474013    23A     -0.470260    24A     -0.462512
      25A     -0.459821    26A     -0.457580    27A     -0.448539
      28A     -0.432175

  @DF-RHF Final Energy:  -309.16204655576036

   => Energetics <=

    Nuclear Repulsion Energy =            324.9035627115667921
    One-Electron Energy =               -1063.7760479952059995
    Two-Electron Energy =                 429.7104387278788522
    Total Energy =                       -309.1620465557603552
  Basis Set: (AUG-CC-PVTZ AUX)
    Blend: AUG-CC-PVTZ-RI
    Molecular point group: c1

    Geometry (in Angstrom), charge = 0, multiplicity = 1:

       Center              X                  Y                   Z               Mass
    ------------   -----------------  -----------------  -----------------  -----------------
         O           -2.532540518596    -0.443431885854    -0.019054119826    15.994914619570
         C           -0.288923518596     0.214029114146    -0.434191119826    12.000000000000
         C            0.834199481404     1.261497114146    -0.201675119826    12.000000000000
         C            0.281158481404    -1.117447885854     0.082149880174    12.000000000000
         C            2.034302481404     0.475988114146     0.364270880174    12.000000000000
         C            1.791013481404    -0.961848885854    -0.099682119826    12.000000000000
         C           -1.590340518596     0.599674114146     0.236130880174    12.000000000000
         H           -0.489762518596     0.118332114146    -1.508283119826     1.007825032230
         H            0.514025481404     2.057379114146     0.481664880174     1.007825032230
         H            1.100327481404     1.748930114146    -1.145065119826     1.007825032230
         H           -0.147155518596    -1.980794885854    -0.433599119826     1.007825032230
         H            0.049067481404    -1.228530885854     1.149967880174     1.007825032230
         H            2.019819481404     0.506568114146     1.460197880174     1.007825032230
         H            2.997380481404     0.884421114146     0.041670880174     1.007825032230
         H            2.052476481404    -1.064083885854    -1.160503119826     1.007825032230
         H            2.376171481404    -1.700770885854     0.457776880174     1.007825032230
         H           -1.951046518596     1.563281114146    -0.155586119826     1.007825032230
         H           -1.416885518596     0.721783114146     1.317646880174     1.007825032230
         H           -3.362845518596    -0.207661885854     0.427536880174     1.007825032230

  Basis Set: AUG-CC-PVTZ
    Blend: AUG-CC-PVTZ
  Basis Set: (AUG-CC-PVTZ AUX)
    Blend: AUG-CC-PVTZ-JKFIT
	 Reference Energy          =    -309.1620465557603552 [Eh]
	 Singles Energy            =      -0.0000000000000000 [Eh]
	 Same-Spin Energy          =      -0.3223739179903207 [Eh]
	 Opposite-Spin Energy      =      -1.1094683406765546 [Eh]
	 Correlation Energy        =      -1.4318422586668753 [Eh]
	 Total Energy              =    -310.5938888144272028 [Eh]

	 ================> DF-SCS-MP2 Energies <==================
	-----------------------------------------------------------
	 SCS Same-Spin Scale       =       0.3333333333333333 [-]
	 SCS Opposite-Spin Scale   =       1.2000000000000000 [-]
	 SCS Same-Spin Energy      =      -0.1074579726634402 [Eh]
	 SCS Opposite-Spin Energy  =      -1.3313620088118656 [Eh]
	 SCS Correlation Energy    =      -1.4388199814753058 [Eh]
	 SCS Total Energy          =    -310.6008665372356745 [Eh]
	-----------------------------------------------------------

  Dipole Moment: [D]
     X:    -0.1956      Y:     1.1711      Z:     0.7465     Total:     1.4025

*** Psi4 exiting successfully. Buy a developer a beer!
