                               Psi4 1.4a3.dev225

  ==> Input File <==

--------------------------------------------------------------------------
#psi4
#
memory 32 gb

molecule  {
0 1
  O       -2.5655710    -0.4559810    -0.0273220
  C       -0.3219540     0.2014800    -0.4424590
  C        0.8011690     1.2489480    -0.2099430
  C        0.2481280    -1.1299970     0.0738820
  C        2.0012720     0.4634390     0.3560030
  C        1.7579830    -0.9743980    -0.1079500
  C       -1.6233710     0.5871250     0.2278630
  H       -0.5227930     0.1057830    -1.5165510
  H        0.4809950     2.0448300     0.4733970
  H        1.0672970     1.7363810    -1.1533330
  H       -0.1801860    -1.9933440    -0.4418670
  H        0.0054719    -1.2461367     1.1903087
  H        1.9867890     0.4940190     1.4519300
  H        2.9643500     0.8718720     0.0334030
  H        2.0194460    -1.0766330    -1.1687710
  H        2.3431410    -1.7133200     0.4495090
  H       -1.9840770     1.5507320    -0.1638540
  H       -1.4499160     0.7092340     1.3093790
  H       -3.3958760    -0.2202110     0.4192690
units angstrom
no_reorient  #important for SAPT in psi4, default
symmetry c1  #important for SAPT in psi4, default
}

set PROPERTIES_ORIGIN ["COM"]
properties('MP2/aug-cc-pvtz', properties = ['dipole'])
--------------------------------------------------------------------------

    Molecular point group: c1
  Charge       = 0
  Multiplicity = 1
  Basis Set: AUG-CC-PVTZ
    Blend: AUG-CC-PVTZ
  Basis Set: (AUG-CC-PVTZ AUX)
    Blend: AUG-CC-PVTZ-JKFIT

    Orbital Energies [Eh]
    ---------------------

    Doubly Occupied:

       1A    -20.556080     2A    -11.271421     3A    -11.217474
       4A    -11.215525     5A    -11.213559     6A    -11.213238
       7A    -11.211361     8A     -1.352759     9A     -1.121622
      10A     -0.997528    11A     -0.955043    12A     -0.873446
      13A     -0.776877    14A     -0.752141    15A     -0.687628
      16A     -0.650477    17A     -0.634705    18A     -0.619625
      19A     -0.567978    20A     -0.559460    21A     -0.522787
      22A     -0.474533    23A     -0.469732    24A     -0.462813
      25A     -0.459873    26A     -0.456742    27A     -0.447013
      28A     -0.432155

  @DF-RHF Final Energy:  -309.15996893493798

   => Energetics <=

    Nuclear Repulsion Energy =            324.6768388956172089
    One-Electron Energy =               -1063.3264198324779954
    Two-Electron Energy =                 429.4896120019227510
    Total Energy =                       -309.1599689349379787
  Basis Set: (AUG-CC-PVTZ AUX)
    Blend: AUG-CC-PVTZ-RI
    Molecular point group: c1

    Geometry (in Angstrom), charge = 0, multiplicity = 1:

       Center              X                  Y                   Z               Mass
    ------------   -----------------  -----------------  -----------------  -----------------
         O           -2.532434135357    -0.443380968388    -0.019543575762    15.994914619570
         C           -0.288817135357     0.214080031612    -0.434680575762    12.000000000000
         C            0.834305864643     1.261548031612    -0.202164575762    12.000000000000
         C            0.281264864643    -1.117396968388     0.081660424238    12.000000000000
         C            2.034408864643     0.476039031612     0.363781424238    12.000000000000
         C            1.791119864643    -0.961797968388    -0.100171575762    12.000000000000
         C           -1.590234135357     0.599725031612     0.235641424238    12.000000000000
         H           -0.489656135357     0.118383031612    -1.508772575762     1.007825032230
         H            0.514131864643     2.057430031612     0.481175424238     1.007825032230
         H            1.100433864643     1.748981031612    -1.145554575762     1.007825032230
         H           -0.147049135357    -1.980743968388    -0.434088575762     1.007825032230
         H            0.038608764643    -1.233536668388     1.198087124238     1.007825032230
         H            2.019925864643     0.506619031612     1.459708424238     1.007825032230
         H            2.997486864643     0.884472031612     0.041181424238     1.007825032230
         H            2.052582864643    -1.064032968388    -1.160992575762     1.007825032230
         H            2.376277864643    -1.700719968388     0.457287424238     1.007825032230
         H           -1.950940135357     1.563332031612    -0.156075575762     1.007825032230
         H           -1.416779135357     0.721834031612     1.317157424238     1.007825032230
         H           -3.362739135357    -0.207610968388     0.427047424238     1.007825032230

  Basis Set: AUG-CC-PVTZ
    Blend: AUG-CC-PVTZ
  Basis Set: (AUG-CC-PVTZ AUX)
    Blend: AUG-CC-PVTZ-JKFIT
	 Reference Energy          =    -309.1599689349379787 [Eh]
	 Singles Energy            =      -0.0000000000000000 [Eh]
	 Same-Spin Energy          =      -0.3224080725671950 [Eh]
	 Opposite-Spin Energy      =      -1.1098285240078400 [Eh]
	 Correlation Energy        =      -1.4322365965750350 [Eh]
	 Total Energy              =    -310.5922055315130024 [Eh]

	 ================> DF-SCS-MP2 Energies <==================
	-----------------------------------------------------------
	 SCS Same-Spin Scale       =       0.3333333333333333 [-]
	 SCS Opposite-Spin Scale   =       1.2000000000000000 [-]
	 SCS Same-Spin Energy      =      -0.1074693575223983 [Eh]
	 SCS Opposite-Spin Energy  =      -1.3317942288094080 [Eh]
	 SCS Correlation Energy    =      -1.4392635863318064 [Eh]
	 SCS Total Energy          =    -310.5992325212698120 [Eh]
	-----------------------------------------------------------

  Dipole Moment: [D]
     X:    -0.1841      Y:     1.1805      Z:     0.7108     Total:     1.3902

*** Psi4 exiting successfully. Buy a developer a beer!
