                               Psi4 1.4a3.dev225

  ==> Input File <==

--------------------------------------------------------------------------
#psi4
#
memory 32 gb

molecule  {
0 1
  O       -2.5655710    -0.4559810    -0.0273220
  C       -0.3219540     0.2014800    -0.4424590
  C        0.8011690     1.2489480    -0.2099430
  C        0.2558728    -1.0606986     0.2189439
  C        2.0012720     0.4634390     0.3560030
  C        1.7579830    -0.9743980    -0.1079500
  C       -1.6233710     0.5871250     0.2278630
  H       -0.5227930     0.1057830    -1.5165510
  H        0.4809950     2.0448300     0.4733970
  H        1.0672970     1.7363810    -1.1533330
  H       -0.1801860    -1.9933440    -0.4418670
  H        0.0160370    -1.2410800     1.1417000
  H        1.9867890     0.4940190     1.4519300
  H        2.9643500     0.8718720     0.0334030
  H        2.0194460    -1.0766330    -1.1687710
  H        2.3431410    -1.7133200     0.4495090
  H       -1.9840770     1.5507320    -0.1638540
  H       -1.4499160     0.7092340     1.3093790
  H       -3.3958760    -0.2202110     0.4192690
units angstrom
no_reorient  #important for SAPT in psi4, default
symmetry c1  #important for SAPT in psi4, default
}

set PROPERTIES_ORIGIN ["COM"]
properties('MP2/aug-cc-pvtz', properties = ['dipole'])
--------------------------------------------------------------------------

    Molecular point group: c1
  Charge       = 0
  Multiplicity = 1
  Basis Set: AUG-CC-PVTZ
    Blend: AUG-CC-PVTZ
  Basis Set: (AUG-CC-PVTZ AUX)
    Blend: AUG-CC-PVTZ-JKFIT

    Orbital Energies [Eh]
    ---------------------

    Doubly Occupied:

       1A    -20.555963     2A    -11.271114     3A    -11.218726
       4A    -11.214434     5A    -11.212857     6A    -11.212222
       7A    -11.208583     8A     -1.352802     9A     -1.125232
      10A     -0.998649    11A     -0.955028    12A     -0.873088
      13A     -0.788159    14A     -0.758411    15A     -0.687013
      16A     -0.643894    17A     -0.636951    18A     -0.621215
      19A     -0.574737    20A     -0.566314    21A     -0.527101
      22A     -0.489217    23A     -0.471034    24A     -0.463835
      25A     -0.459635    26A     -0.445994    27A     -0.437098
      28A     -0.421632

  @DF-RHF Final Energy:  -309.13124771367592

   => Energetics <=

    Nuclear Repulsion Energy =            325.4443511058155991
    One-Electron Energy =               -1064.7693229289404826
    Two-Electron Energy =                 430.1937241094489650
    Total Energy =                       -309.1312477136759185
  Basis Set: (AUG-CC-PVTZ AUX)
    Blend: AUG-CC-PVTZ-RI
    Molecular point group: c1

    Geometry (in Angstrom), charge = 0, multiplicity = 1:

       Center              X                  Y                   Z               Mass
    ------------   -----------------  -----------------  -----------------  -----------------
         O           -2.533469069903    -0.451740314722    -0.036446101136    15.994914619570
         C           -0.289852069903     0.205720685278    -0.451583101136    12.000000000000
         C            0.833270930097     1.253188685278    -0.219067101136    12.000000000000
         C            0.287974730097    -1.056457914722     0.209819798864    12.000000000000
         C            2.033373930097     0.467679685278     0.346878898864    12.000000000000
         C            1.790084930097    -0.970157314722    -0.117074101136    12.000000000000
         C           -1.591269069903     0.591365685278     0.218738898864    12.000000000000
         H           -0.490691069903     0.110023685278    -1.525675101136     1.007825032230
         H            0.513096930097     2.049070685278     0.464272898864     1.007825032230
         H            1.099398930097     1.740621685278    -1.162457101136     1.007825032230
         H           -0.148084069903    -1.989103314722    -0.450991101136     1.007825032230
         H            0.048138930097    -1.236839314722     1.132575898864     1.007825032230
         H            2.018890930097     0.498259685278     1.442805898864     1.007825032230
         H            2.996451930097     0.876112685278     0.024278898864     1.007825032230
         H            2.051547930097    -1.072392314722    -1.177895101136     1.007825032230
         H            2.375242930097    -1.709079314722     0.440384898864     1.007825032230
         H           -1.951975069903     1.554972685278    -0.172978101136     1.007825032230
         H           -1.417814069903     0.713474685278     1.300254898864     1.007825032230
         H           -3.363774069903    -0.215970314722     0.410144898864     1.007825032230

  Basis Set: AUG-CC-PVTZ
    Blend: AUG-CC-PVTZ
  Basis Set: (AUG-CC-PVTZ AUX)
    Blend: AUG-CC-PVTZ-JKFIT
	 Reference Energy          =    -309.1312477136759185 [Eh]
	 Singles Energy            =      -0.0000000000000000 [Eh]
	 Same-Spin Energy          =      -0.3230101893861773 [Eh]
	 Opposite-Spin Energy      =      -1.1111128098075795 [Eh]
	 Correlation Energy        =      -1.4341229991937570 [Eh]
	 Total Energy              =    -310.5653707128696510 [Eh]

	 ================> DF-SCS-MP2 Energies <==================
	-----------------------------------------------------------
	 SCS Same-Spin Scale       =       0.3333333333333333 [-]
	 SCS Opposite-Spin Scale   =       1.2000000000000000 [-]
	 SCS Same-Spin Energy      =      -0.1076700631287258 [Eh]
	 SCS Opposite-Spin Energy  =      -1.3333353717690954 [Eh]
	 SCS Correlation Energy    =      -1.4410054348978212 [Eh]
	 SCS Total Energy          =    -310.5722531485737363 [Eh]
	-----------------------------------------------------------

  Dipole Moment: [D]
     X:    -0.1724      Y:     1.2089      Z:     0.8102     Total:     1.4655

*** Psi4 exiting successfully. Buy a developer a beer!
