                               Psi4 1.4a3.dev225

  ==> Input File <==

--------------------------------------------------------------------------
#psi4
#
memory 32 gb

molecule  {
0 1
  O       -2.5655710    -0.4559810    -0.0273220
  C       -0.3210985     0.1573890    -0.4133492
  C        0.8011690     1.2489480    -0.2099430
  C        0.2481280    -1.1299970     0.0738820
  C        2.0012720     0.4634390     0.3560030
  C        1.7579830    -0.9743980    -0.1079500
  C       -1.6233710     0.5871250     0.2278630
  H       -0.5227930     0.1057830    -1.5165510
  H        0.4809950     2.0448300     0.4733970
  H        1.0672970     1.7363810    -1.1533330
  H       -0.1801860    -1.9933440    -0.4418670
  H        0.0160370    -1.2410800     1.1417000
  H        1.9867890     0.4940190     1.4519300
  H        2.9643500     0.8718720     0.0334030
  H        2.0194460    -1.0766330    -1.1687710
  H        2.3431410    -1.7133200     0.4495090
  H       -1.9840770     1.5507320    -0.1638540
  H       -1.4499160     0.7092340     1.3093790
  H       -3.3958760    -0.2202110     0.4192690
units angstrom
no_reorient  #important for SAPT in psi4, default
symmetry c1  #important for SAPT in psi4, default
}

set PROPERTIES_ORIGIN ["COM"]
properties('MP2/aug-cc-pvtz', properties = ['dipole'])
--------------------------------------------------------------------------

    Molecular point group: c1
  Charge       = 0
  Multiplicity = 1
  Basis Set: AUG-CC-PVTZ
    Blend: AUG-CC-PVTZ
  Basis Set: (AUG-CC-PVTZ AUX)
    Blend: AUG-CC-PVTZ-JKFIT

    Orbital Energies [Eh]
    ---------------------

    Doubly Occupied:

       1A    -20.555730     2A    -11.271708     3A    -11.217942
       4A    -11.215918     5A    -11.213104     6A    -11.211475
       7A    -11.205371     8A     -1.352932     9A     -1.124603
      10A     -0.996874    11A     -0.958555    12A     -0.874600
      13A     -0.779219    14A     -0.751198    15A     -0.688447
      16A     -0.650486    17A     -0.635192    18A     -0.621327
      19A     -0.568161    20A     -0.560331    21A     -0.525463
      22A     -0.478238    23A     -0.471307    24A     -0.464234
      25A     -0.458792    26A     -0.451853    27A     -0.446738
      28A     -0.432886

  @DF-RHF Final Energy:  -309.15891028086537

   => Energetics <=

    Nuclear Repulsion Energy =            325.2491558314323470
    One-Electron Energy =               -1064.4507700767819642
    Two-Electron Energy =                 430.0427039644843035
    Total Energy =                       -309.1589102808653706
  Basis Set: (AUG-CC-PVTZ AUX)
    Blend: AUG-CC-PVTZ-RI
    Molecular point group: c1

    Geometry (in Angstrom), charge = 0, multiplicity = 1:

       Center              X                  Y                   Z               Mass
    ------------   -----------------  -----------------  -----------------  -----------------
         O           -2.532643087499    -0.438145660815    -0.022544196114    15.994914619570
         C           -0.288170587499     0.175224339185    -0.408571396114    12.000000000000
         C            0.834096912501     1.266783339185    -0.205165196114    12.000000000000
         C            0.281055912501    -1.112161660815     0.078659803886    12.000000000000
         C            2.034199912501     0.481274339185     0.360780803886    12.000000000000
         C            1.790910912501    -0.956562660815    -0.103172196114    12.000000000000
         C           -1.590443087499     0.604960339185     0.232640803886    12.000000000000
         H           -0.489865087499     0.123618339185    -1.511773196114     1.007825032230
         H            0.513922912501     2.062665339185     0.478174803886     1.007825032230
         H            1.100224912501     1.754216339185    -1.148555196114     1.007825032230
         H           -0.147258087499    -1.975508660815    -0.437089196114     1.007825032230
         H            0.048964912501    -1.223244660815     1.146477803886     1.007825032230
         H            2.019716912501     0.511854339185     1.456707803886     1.007825032230
         H            2.997277912501     0.889707339185     0.038180803886     1.007825032230
         H            2.052373912501    -1.058797660815    -1.163993196114     1.007825032230
         H            2.376068912501    -1.695484660815     0.454286803886     1.007825032230
         H           -1.951149087499     1.568567339185    -0.159076196114     1.007825032230
         H           -1.416988087499     0.727069339185     1.314156803886     1.007825032230
         H           -3.362948087499    -0.202375660815     0.424046803886     1.007825032230

  Basis Set: AUG-CC-PVTZ
    Blend: AUG-CC-PVTZ
  Basis Set: (AUG-CC-PVTZ AUX)
    Blend: AUG-CC-PVTZ-JKFIT
	 Reference Energy          =    -309.1589102808653706 [Eh]
	 Singles Energy            =      -0.0000000000000000 [Eh]
	 Same-Spin Energy          =      -0.3226766485199883 [Eh]
	 Opposite-Spin Energy      =      -1.1098605412932212 [Eh]
	 Correlation Energy        =      -1.4325371898132095 [Eh]
	 Total Energy              =    -310.5914474706785882 [Eh]

	 ================> DF-SCS-MP2 Energies <==================
	-----------------------------------------------------------
	 SCS Same-Spin Scale       =       0.3333333333333333 [-]
	 SCS Opposite-Spin Scale   =       1.2000000000000000 [-]
	 SCS Same-Spin Energy      =      -0.1075588828399961 [Eh]
	 SCS Opposite-Spin Energy  =      -1.3318326495518653 [Eh]
	 SCS Correlation Energy    =      -1.4393915323918614 [Eh]
	 SCS Total Energy          =    -310.5983018132572511 [Eh]
	-----------------------------------------------------------

  Dipole Moment: [D]
     X:    -0.1930      Y:     1.1647      Z:     0.7599     Total:     1.4040

*** Psi4 exiting successfully. Buy a developer a beer!
