                               Psi4 1.4a3.dev225

  ==> Input File <==

--------------------------------------------------------------------------
#psi4
#
memory 32 gb

molecule  {
0 1
  O       -2.5655710    -0.4559810    -0.0273220
  C       -0.3219540     0.2014800    -0.4424590
  C        0.8011690     1.2489480    -0.2099430
  C        0.2555429    -1.1473151     0.0805979
  C        2.0012720     0.4634390     0.3560030
  C        1.7579830    -0.9743980    -0.1079500
  C       -1.6233710     0.5871250     0.2278630
  H       -0.5227930     0.1057830    -1.5165510
  H        0.4809950     2.0448300     0.4733970
  H        1.0672970     1.7363810    -1.1533330
  H       -0.1801860    -1.9933440    -0.4418670
  H        0.0160370    -1.2410800     1.1417000
  H        1.9867890     0.4940190     1.4519300
  H        2.9643500     0.8718720     0.0334030
  H        2.0194460    -1.0766330    -1.1687710
  H        2.3431410    -1.7133200     0.4495090
  H       -1.9840770     1.5507320    -0.1638540
  H       -1.4499160     0.7092340     1.3093790
  H       -3.3958760    -0.2202110     0.4192690
units angstrom
no_reorient  #important for SAPT in psi4, default
symmetry c1  #important for SAPT in psi4, default
}

set PROPERTIES_ORIGIN ["COM"]
properties('MP2/aug-cc-pvtz', properties = ['dipole'])
--------------------------------------------------------------------------

    Molecular point group: c1
  Charge       = 0
  Multiplicity = 1
  Basis Set: AUG-CC-PVTZ
    Blend: AUG-CC-PVTZ
  Basis Set: (AUG-CC-PVTZ AUX)
    Blend: AUG-CC-PVTZ-JKFIT

    Orbital Energies [Eh]
    ---------------------

    Doubly Occupied:

       1A    -20.556055     2A    -11.271265     3A    -11.217469
       4A    -11.215233     5A    -11.213552     6A    -11.210731
       7A    -11.206508     8A     -1.352680     9A     -1.120356
      10A     -0.996694    11A     -0.957101    12A     -0.873021
      13A     -0.778410    14A     -0.754316    15A     -0.687222
      16A     -0.650214    17A     -0.634573    18A     -0.619385
      19A     -0.570366    20A     -0.561864    21A     -0.522989
      22A     -0.475395    23A     -0.469789    24A     -0.462768
      25A     -0.459066    26A     -0.458341    27A     -0.449467
      28A     -0.429599

  @DF-RHF Final Energy:  -309.16186050326894

   => Energetics <=

    Nuclear Repulsion Energy =            324.6413787356341345
    One-Electron Energy =               -1063.2576171236896698
    Two-Electron Energy =                 429.4543778847865951
    Total Energy =                       -309.1618605032689402
  Basis Set: (AUG-CC-PVTZ AUX)
    Blend: AUG-CC-PVTZ-RI
    Molecular point group: c1

    Geometry (in Angstrom), charge = 0, multiplicity = 1:

       Center              X                  Y                   Z               Mass
    ------------   -----------------  -----------------  -----------------  -----------------
         O           -2.533429517032    -0.441355557944    -0.019859312693    15.994914619570
         C           -0.289812517032     0.216105442056    -0.434996312693    12.000000000000
         C            0.833310482968     1.263573442056    -0.202480312693    12.000000000000
         C            0.287684382968    -1.132689657944     0.088060587307    12.000000000000
         C            2.033413482968     0.478064442056     0.363465687307    12.000000000000
         C            1.790124482968    -0.959772557944    -0.100487312693    12.000000000000
         C           -1.591229517032     0.601750442056     0.235325687307    12.000000000000
         H           -0.490651517032     0.120408442056    -1.509088312693     1.007825032230
         H            0.513136482968     2.059455442056     0.480859687307     1.007825032230
         H            1.099438482968     1.751006442056    -1.145870312693     1.007825032230
         H           -0.148044517032    -1.978718557944    -0.434404312693     1.007825032230
         H            0.048178482968    -1.226454557944     1.149162687307     1.007825032230
         H            2.018930482968     0.508644442056     1.459392687307     1.007825032230
         H            2.996491482968     0.886497442056     0.040865687307     1.007825032230
         H            2.051587482968    -1.062007557944    -1.161308312693     1.007825032230
         H            2.375282482968    -1.698694557944     0.456971687307     1.007825032230
         H           -1.951935517032     1.565357442056    -0.156391312693     1.007825032230
         H           -1.417774517032     0.723859442056     1.316841687307     1.007825032230
         H           -3.363734517032    -0.205585557944     0.426731687307     1.007825032230

  Basis Set: AUG-CC-PVTZ
    Blend: AUG-CC-PVTZ
  Basis Set: (AUG-CC-PVTZ AUX)
    Blend: AUG-CC-PVTZ-JKFIT
	 Reference Energy          =    -309.1618605032689402 [Eh]
	 Singles Energy            =      -0.0000000000000000 [Eh]
	 Same-Spin Energy          =      -0.3222884261347641 [Eh]
	 Opposite-Spin Energy      =      -1.1094217382905356 [Eh]
	 Correlation Energy        =      -1.4317101644252996 [Eh]
	 Total Energy              =    -310.5935706676942232 [Eh]

	 ================> DF-SCS-MP2 Energies <==================
	-----------------------------------------------------------
	 SCS Same-Spin Scale       =       0.3333333333333333 [-]
	 SCS Opposite-Spin Scale   =       1.2000000000000000 [-]
	 SCS Same-Spin Energy      =      -0.1074294753782547 [Eh]
	 SCS Opposite-Spin Energy  =      -1.3313060859486427 [Eh]
	 SCS Correlation Energy    =      -1.4387355613268975 [Eh]
	 SCS Total Energy          =    -310.6005960645958339 [Eh]
	-----------------------------------------------------------

  Dipole Moment: [D]
     X:    -0.1949      Y:     1.1711      Z:     0.7475     Total:     1.4029

*** Psi4 exiting successfully. Buy a developer a beer!
