                               Psi4 1.4a3.dev225

  ==> Input File <==

--------------------------------------------------------------------------
#psi4
#
memory 32 gb

molecule  {
0 1
  O       -2.5655710    -0.4559810    -0.0273220
  C       -0.3219540     0.2014800    -0.4424590
  C        0.8011690     1.2489480    -0.2099430
  C        0.2481280    -1.1299970     0.0738820
  C        2.0012720     0.4634390     0.3560030
  C        1.7579830    -0.9743980    -0.1079500
  C       -1.6233710     0.5871250     0.2278630
  H       -0.5227930     0.1057830    -1.5165510
  H        0.4809950     2.0448300     0.4733970
  H        1.0672970     1.7363810    -1.1533330
  H       -0.1801860    -1.9933440    -0.4418670
  H        0.0266021    -1.2360233     1.0930913
  H        1.9867890     0.4940190     1.4519300
  H        2.9643500     0.8718720     0.0334030
  H        2.0194460    -1.0766330    -1.1687710
  H        2.3431410    -1.7133200     0.4495090
  H       -1.9840770     1.5507320    -0.1638540
  H       -1.4499160     0.7092340     1.3093790
  H       -3.3958760    -0.2202110     0.4192690
units angstrom
no_reorient  #important for SAPT in psi4, default
symmetry c1  #important for SAPT in psi4, default
}

set PROPERTIES_ORIGIN ["COM"]
properties('MP2/aug-cc-pvtz', properties = ['dipole'])
--------------------------------------------------------------------------

    Molecular point group: c1
  Charge       = 0
  Multiplicity = 1
  Basis Set: AUG-CC-PVTZ
    Blend: AUG-CC-PVTZ
  Basis Set: (AUG-CC-PVTZ AUX)
    Blend: AUG-CC-PVTZ-JKFIT

    Orbital Energies [Eh]
    ---------------------

    Doubly Occupied:

       1A    -20.556229     2A    -11.271402     3A    -11.216260
       4A    -11.215088     5A    -11.213294     6A    -11.210283
       7A    -11.200499     8A     -1.352907     9A     -1.122426
      10A     -0.997074    11A     -0.958559    12A     -0.874154
      13A     -0.780411    14A     -0.756154    15A     -0.687550
      16A     -0.649879    17A     -0.635645    18A     -0.619504
      19A     -0.571776    20A     -0.563304    21A     -0.524244
      22A     -0.473598    23A     -0.471055    24A     -0.462266
      25A     -0.460278    26A     -0.458017    27A     -0.449381
      28A     -0.432138

  @DF-RHF Final Energy:  -309.16115795662296

   => Energetics <=

    Nuclear Repulsion Energy =            325.1426428613111739
    One-Electron Energy =               -1064.2408516233399496
    Two-Electron Energy =                 429.9370508054058178
    Total Energy =                       -309.1611579566229580
  Basis Set: (AUG-CC-PVTZ AUX)
    Blend: AUG-CC-PVTZ-RI
    Molecular point group: c1

    Geometry (in Angstrom), charge = 0, multiplicity = 1:

       Center              X                  Y                   Z               Mass
    ------------   -----------------  -----------------  -----------------  -----------------
         O           -2.532646901834    -0.443482803320    -0.018564663889    15.994914619570
         C           -0.289029901834     0.213978196680    -0.433701663889    12.000000000000
         C            0.834093098166     1.261446196680    -0.201185663889    12.000000000000
         C            0.281052098166    -1.117498803320     0.082639336111    12.000000000000
         C            2.034196098166     0.475937196680     0.364760336111    12.000000000000
         C            1.790907098166    -0.961899803320    -0.099192663889    12.000000000000
         C           -1.590446901834     0.599623196680     0.236620336111    12.000000000000
         H           -0.489868901834     0.118281196680    -1.507793663889     1.007825032230
         H            0.513919098166     2.057328196680     0.482154336111     1.007825032230
         H            1.100221098166     1.748879196680    -1.144575663889     1.007825032230
         H           -0.147261901834    -1.980845803320    -0.433109663889     1.007825032230
         H            0.059526198166    -1.223525103320     1.101848636111     1.007825032230
         H            2.019713098166     0.506517196680     1.460687336111     1.007825032230
         H            2.997274098166     0.884370196680     0.042160336111     1.007825032230
         H            2.052370098166    -1.064134803320    -1.160013663889     1.007825032230
         H            2.376065098166    -1.700821803320     0.458266336111     1.007825032230
         H           -1.951152901834     1.563230196680    -0.155096663889     1.007825032230
         H           -1.416991901834     0.721732196680     1.318136336111     1.007825032230
         H           -3.362951901834    -0.207712803320     0.428026336111     1.007825032230

  Basis Set: AUG-CC-PVTZ
    Blend: AUG-CC-PVTZ
  Basis Set: (AUG-CC-PVTZ AUX)
    Blend: AUG-CC-PVTZ-JKFIT
	 Reference Energy          =    -309.1611579566229580 [Eh]
	 Singles Energy            =      -0.0000000000000000 [Eh]
	 Same-Spin Energy          =      -0.3223435739474437 [Eh]
	 Opposite-Spin Energy      =      -1.1091599815434345 [Eh]
	 Correlation Energy        =      -1.4315035554908782 [Eh]
	 Total Energy              =    -310.5926615121138639 [Eh]

	 ================> DF-SCS-MP2 Energies <==================
	-----------------------------------------------------------
	 SCS Same-Spin Scale       =       0.3333333333333333 [-]
	 SCS Opposite-Spin Scale   =       1.2000000000000000 [-]
	 SCS Same-Spin Energy      =      -0.1074478579824812 [Eh]
	 SCS Opposite-Spin Energy  =      -1.3309919778521213 [Eh]
	 SCS Correlation Energy    =      -1.4384398358346024 [Eh]
	 SCS Total Energy          =    -310.5995977924575868 [Eh]
	-----------------------------------------------------------

  Dipole Moment: [D]
     X:    -0.2057      Y:     1.1630      Z:     0.7779     Total:     1.4143

*** Psi4 exiting successfully. Buy a developer a beer!
