                               Psi4 1.4a3.dev225

  ==> Input File <==

--------------------------------------------------------------------------
#psi4
#
memory 32 gb

molecule  {
0 1
  O       -2.5655710    -0.4559810    -0.0273220
  C       -0.3219540     0.2014800    -0.4424590
  C        0.8011690     1.2489480    -0.2099430
  C        0.2481280    -1.1299970     0.0738820
  C        2.0012720     0.4634390     0.3560030
  C        1.7579830    -0.9743980    -0.1079500
  C       -1.6233710     0.5871250     0.2278630
  H       -0.5227930     0.1057830    -1.5165510
  H        0.4809950     2.0448300     0.4733970
  H        1.0429867     1.6918550    -1.0671562
  H       -0.1801860    -1.9933440    -0.4418670
  H        0.0160370    -1.2410800     1.1417000
  H        1.9867890     0.4940190     1.4519300
  H        2.9643500     0.8718720     0.0334030
  H        2.0194460    -1.0766330    -1.1687710
  H        2.3431410    -1.7133200     0.4495090
  H       -1.9840770     1.5507320    -0.1638540
  H       -1.4499160     0.7092340     1.3093790
  H       -3.3958760    -0.2202110     0.4192690
units angstrom
no_reorient  #important for SAPT in psi4, default
symmetry c1  #important for SAPT in psi4, default
}

set PROPERTIES_ORIGIN ["COM"]
properties('MP2/aug-cc-pvtz', properties = ['dipole'])
--------------------------------------------------------------------------

    Molecular point group: c1
  Charge       = 0
  Multiplicity = 1
  Basis Set: AUG-CC-PVTZ
    Blend: AUG-CC-PVTZ
  Basis Set: (AUG-CC-PVTZ AUX)
    Blend: AUG-CC-PVTZ-JKFIT

    Orbital Energies [Eh]
    ---------------------

    Doubly Occupied:

       1A    -20.555739     2A    -11.270949     3A    -11.216004
       4A    -11.212545     5A    -11.210438     6A    -11.206391
       7A    -11.202453     8A     -1.352437     9A     -1.122823
      10A     -0.996753    11A     -0.961821    12A     -0.875786
      13A     -0.780868    14A     -0.756387    15A     -0.690551
      16A     -0.651464    17A     -0.634727    18A     -0.619686
      19A     -0.575907    20A     -0.561469    21A     -0.523945
      22A     -0.474374    23A     -0.469764    24A     -0.463856
      25A     -0.459705    26A     -0.457858    27A     -0.450062
      28A     -0.432673

  @DF-RHF Final Energy:  -309.15621697845825

   => Energetics <=

    Nuclear Repulsion Energy =            325.4238735584659707
    One-Electron Energy =               -1064.7853138321418101
    Two-Electron Energy =                 430.2052232952175927
    Total Energy =                       -309.1562169784582466
  Basis Set: (AUG-CC-PVTZ AUX)
    Blend: AUG-CC-PVTZ-RI
    Molecular point group: c1

    Geometry (in Angstrom), charge = 0, multiplicity = 1:

       Center              X                  Y                   Z               Mass
    ------------   -----------------  -----------------  -----------------  -----------------
         O           -2.532295730715    -0.442983539878    -0.019921860504    15.994914619570
         C           -0.288678730715     0.214477460122    -0.435058860504    12.000000000000
         C            0.834444269285     1.261945460122    -0.202542860504    12.000000000000
         C            0.281403269285    -1.116999539878     0.081282139496    12.000000000000
         C            2.034547269285     0.476436460122     0.363403139496    12.000000000000
         C            1.791258269285    -0.961400539878    -0.100549860504    12.000000000000
         C           -1.590095730715     0.600122460122     0.235263139496    12.000000000000
         H           -0.489517730715     0.118780460122    -1.509150860504     1.007825032230
         H            0.514270269285     2.057827460122     0.480797139496     1.007825032230
         H            1.076261969285     1.704852460122    -1.059756060504     1.007825032230
         H           -0.146910730715    -1.980346539878    -0.434466860504     1.007825032230
         H            0.049312269285    -1.228082539878     1.149100139496     1.007825032230
         H            2.020064269285     0.507016460122     1.459330139496     1.007825032230
         H            2.997625269285     0.884869460122     0.040803139496     1.007825032230
         H            2.052721269285    -1.063635539878    -1.161370860504     1.007825032230
         H            2.376416269285    -1.700322539878     0.456909139496     1.007825032230
         H           -1.950801730715     1.563729460122    -0.156453860504     1.007825032230
         H           -1.416640730715     0.722231460122     1.316779139496     1.007825032230
         H           -3.362600730715    -0.207213539878     0.426669139496     1.007825032230

  Basis Set: AUG-CC-PVTZ
    Blend: AUG-CC-PVTZ
  Basis Set: (AUG-CC-PVTZ AUX)
    Blend: AUG-CC-PVTZ-JKFIT
	 Reference Energy          =    -309.1562169784582466 [Eh]
	 Singles Energy            =      -0.0000000000000000 [Eh]
	 Same-Spin Energy          =      -0.3223917547124425 [Eh]
	 Opposite-Spin Energy      =      -1.1089026026661941 [Eh]
	 Correlation Energy        =      -1.4312943573786368 [Eh]
	 Total Energy              =    -310.5875113358368935 [Eh]

	 ================> DF-SCS-MP2 Energies <==================
	-----------------------------------------------------------
	 SCS Same-Spin Scale       =       0.3333333333333333 [-]
	 SCS Opposite-Spin Scale   =       1.2000000000000000 [-]
	 SCS Same-Spin Energy      =      -0.1074639182374808 [Eh]
	 SCS Opposite-Spin Energy  =      -1.3306831231994329 [Eh]
	 SCS Correlation Energy    =      -1.4381470414369137 [Eh]
	 SCS Total Energy          =    -310.5943640198951812 [Eh]
	-----------------------------------------------------------

  Dipole Moment: [D]
     X:    -0.1819      Y:     1.2151      Z:     0.7050     Total:     1.4165

*** Psi4 exiting successfully. Buy a developer a beer!
