                               Psi4 1.4a3.dev225

  ==> Input File <==

--------------------------------------------------------------------------
#psi4
#
memory 32 gb

molecule  {
0 1
  O       -2.5655710    -0.4559810    -0.0273220
  C       -0.3219540     0.2014800    -0.4424590
  C        0.8011690     1.2489480    -0.2099430
  C        0.2441522    -1.1498877     0.0241904
  C        2.0012720     0.4634390     0.3560030
  C        1.7579830    -0.9743980    -0.1079500
  C       -1.6233710     0.5871250     0.2278630
  H       -0.5227930     0.1057830    -1.5165510
  H        0.4809950     2.0448300     0.4733970
  H        1.0672970     1.7363810    -1.1533330
  H       -0.1801860    -1.9933440    -0.4418670
  H        0.0160370    -1.2410800     1.1417000
  H        1.9867890     0.4940190     1.4519300
  H        2.9643500     0.8718720     0.0334030
  H        2.0194460    -1.0766330    -1.1687710
  H        2.3431410    -1.7133200     0.4495090
  H       -1.9840770     1.5507320    -0.1638540
  H       -1.4499160     0.7092340     1.3093790
  H       -3.3958760    -0.2202110     0.4192690
units angstrom
no_reorient  #important for SAPT in psi4, default
symmetry c1  #important for SAPT in psi4, default
}

set PROPERTIES_ORIGIN ["COM"]
properties('MP2/aug-cc-pvtz', properties = ['dipole'])
--------------------------------------------------------------------------

    Molecular point group: c1
  Charge       = 0
  Multiplicity = 1
  Basis Set: AUG-CC-PVTZ
    Blend: AUG-CC-PVTZ
  Basis Set: (AUG-CC-PVTZ AUX)
    Blend: AUG-CC-PVTZ-JKFIT

    Orbital Energies [Eh]
    ---------------------

    Doubly Occupied:

       1A    -20.556218     2A    -11.271648     3A    -11.217148
       4A    -11.215941     5A    -11.214060     6A    -11.211331
       7A    -11.207992     8A     -1.352856     9A     -1.121188
      10A     -0.997127    11A     -0.957860    12A     -0.874551
      13A     -0.777790    14A     -0.753591    15A     -0.688228
      16A     -0.654206    17A     -0.634801    18A     -0.619071
      19A     -0.567837    20A     -0.559463    21A     -0.522674
      22A     -0.482347    23A     -0.469740    24A     -0.464129
      25A     -0.461726    26A     -0.454815    27A     -0.444261
      28A     -0.429558

  @DF-RHF Final Energy:  -309.15887645417951

   => Energetics <=

    Nuclear Repulsion Energy =            324.7132740669267150
    One-Electron Energy =               -1063.3799884682214270
    Two-Electron Energy =                 429.5078379471152061
    Total Energy =                       -309.1588764541795058
  Basis Set: (AUG-CC-PVTZ AUX)
    Blend: AUG-CC-PVTZ-RI
    Molecular point group: c1

    Geometry (in Angstrom), charge = 0, multiplicity = 1:

       Center              X                  Y                   Z               Mass
    ------------   -----------------  -----------------  -----------------  -----------------
         O           -2.532063845952    -0.441047119884    -0.013096419158    15.994914619570
         C           -0.288446845952     0.216413880116    -0.428233419158    12.000000000000
         C            0.834676154048     1.263881880116    -0.195717419158    12.000000000000
         C            0.277659354048    -1.134953819884     0.038415980842    12.000000000000
         C            2.034779154048     0.478372880116     0.370228580842    12.000000000000
         C            1.791490154048    -0.959464119884    -0.093724419158    12.000000000000
         C           -1.589863845952     0.602058880116     0.242088580842    12.000000000000
         H           -0.489285845952     0.120716880116    -1.502325419158     1.007825032230
         H            0.514502154048     2.059763880116     0.487622580842     1.007825032230
         H            1.100804154048     1.751314880116    -1.139107419158     1.007825032230
         H           -0.146678845952    -1.978410119884    -0.427641419158     1.007825032230
         H            0.049544154048    -1.226146119884     1.155925580842     1.007825032230
         H            2.020296154048     0.508952880116     1.466155580842     1.007825032230
         H            2.997857154048     0.886805880116     0.047628580842     1.007825032230
         H            2.052953154048    -1.061699119884    -1.154545419158     1.007825032230
         H            2.376648154048    -1.698386119884     0.463734580842     1.007825032230
         H           -1.950569845952     1.565665880116    -0.149628419158     1.007825032230
         H           -1.416408845952     0.724167880116     1.323604580842     1.007825032230
         H           -3.362368845952    -0.205277119884     0.433494580842     1.007825032230

  Basis Set: AUG-CC-PVTZ
    Blend: AUG-CC-PVTZ
  Basis Set: (AUG-CC-PVTZ AUX)
    Blend: AUG-CC-PVTZ-JKFIT
	 Reference Energy          =    -309.1588764541795058 [Eh]
	 Singles Energy            =      -0.0000000000000000 [Eh]
	 Same-Spin Energy          =      -0.3223715640287208 [Eh]
	 Opposite-Spin Energy      =      -1.1095943020981180 [Eh]
	 Correlation Energy        =      -1.4319658661268388 [Eh]
	 Total Energy              =    -310.5908423203063649 [Eh]

	 ================> DF-SCS-MP2 Energies <==================
	-----------------------------------------------------------
	 SCS Same-Spin Scale       =       0.3333333333333333 [-]
	 SCS Opposite-Spin Scale   =       1.2000000000000000 [-]
	 SCS Same-Spin Energy      =      -0.1074571880095736 [Eh]
	 SCS Opposite-Spin Energy  =      -1.3315131625177417 [Eh]
	 SCS Correlation Energy    =      -1.4389703505273153 [Eh]
	 SCS Total Energy          =    -310.5978468047068191 [Eh]
	-----------------------------------------------------------

  Dipole Moment: [D]
     X:    -0.1921      Y:     1.1775      Z:     0.7119     Total:     1.3893

*** Psi4 exiting successfully. Buy a developer a beer!
