                               Psi4 1.4a3.dev225

  ==> Input File <==

--------------------------------------------------------------------------
#psi4
#
memory 32 gb

molecule  {
0 1
  O       -2.5655710    -0.4559810    -0.0273220
  C       -0.3219540     0.2014800    -0.4424590
  C        0.8011690     1.2489480    -0.2099430
  C        0.2481280    -1.1299970     0.0738820
  C        2.0177672     0.4755744     0.3066696
  C        1.7579830    -0.9743980    -0.1079500
  C       -1.6233710     0.5871250     0.2278630
  H       -0.5227930     0.1057830    -1.5165510
  H        0.4809950     2.0448300     0.4733970
  H        1.0672970     1.7363810    -1.1533330
  H       -0.1801860    -1.9933440    -0.4418670
  H        0.0160370    -1.2410800     1.1417000
  H        1.9867890     0.4940190     1.4519300
  H        2.9643500     0.8718720     0.0334030
  H        2.0194460    -1.0766330    -1.1687710
  H        2.3431410    -1.7133200     0.4495090
  H       -1.9840770     1.5507320    -0.1638540
  H       -1.4499160     0.7092340     1.3093790
  H       -3.3958760    -0.2202110     0.4192690
units angstrom
no_reorient  #important for SAPT in psi4, default
symmetry c1  #important for SAPT in psi4, default
}

set PROPERTIES_ORIGIN ["COM"]
properties('MP2/aug-cc-pvtz', properties = ['dipole'])
--------------------------------------------------------------------------

    Molecular point group: c1
  Charge       = 0
  Multiplicity = 1
  Basis Set: AUG-CC-PVTZ
    Blend: AUG-CC-PVTZ
  Basis Set: (AUG-CC-PVTZ AUX)
    Blend: AUG-CC-PVTZ-JKFIT

    Orbital Energies [Eh]
    ---------------------

    Doubly Occupied:

       1A    -20.556447     2A    -11.271683     3A    -11.217450
       4A    -11.215363     5A    -11.214538     6A    -11.211192
       7A    -11.207384     8A     -1.353105     9A     -1.122391
      10A     -0.997619    11A     -0.958273    12A     -0.874105
      13A     -0.776663    14A     -0.755159    15A     -0.687727
      16A     -0.652771    17A     -0.634344    18A     -0.621359
      19A     -0.568186    20A     -0.558746    21A     -0.523785
      22A     -0.479653    23A     -0.473971    24A     -0.466215
      25A     -0.461145    26A     -0.450455    27A     -0.444293
      28A     -0.430606

  @DF-RHF Final Energy:  -309.15891664213683

   => Energetics <=

    Nuclear Repulsion Energy =            324.8674302893667800
    One-Electron Energy =               -1063.6834380338577830
    Two-Electron Energy =                 429.6570911023541726
    Total Energy =                       -309.1589166421368304
  Basis Set: (AUG-CC-PVTZ AUX)
    Blend: AUG-CC-PVTZ-RI
    Molecular point group: c1

    Geometry (in Angstrom), charge = 0, multiplicity = 1:

       Center              X                  Y                   Z               Mass
    ------------   -----------------  -----------------  -----------------  -----------------
         O           -2.534518186130    -0.444886841635    -0.013139365015    15.994914619570
         C           -0.290901186130     0.212574158365    -0.428276365015    12.000000000000
         C            0.832221813870     1.260042158365    -0.195760365015    12.000000000000
         C            0.279180813870    -1.118902841635     0.088064634985    12.000000000000
         C            2.048820013870     0.486668558365     0.320852234985    12.000000000000
         C            1.789035813870    -0.963303841635    -0.093767365015    12.000000000000
         C           -1.592318186130     0.598219158365     0.242045634985    12.000000000000
         H           -0.491740186130     0.116877158365    -1.502368365015     1.007825032230
         H            0.512047813870     2.055924158365     0.487579634985     1.007825032230
         H            1.098349813870     1.747475158365    -1.139150365015     1.007825032230
         H           -0.149133186130    -1.982249841635    -0.427684365015     1.007825032230
         H            0.047089813870    -1.229985841635     1.155882634985     1.007825032230
         H            2.017841813870     0.505113158365     1.466112634985     1.007825032230
         H            2.995402813870     0.882966158365     0.047585634985     1.007825032230
         H            2.050498813870    -1.065538841635    -1.154588365015     1.007825032230
         H            2.374193813870    -1.702225841635     0.463691634985     1.007825032230
         H           -1.953024186130     1.561826158365    -0.149671365015     1.007825032230
         H           -1.418863186130     0.720328158365     1.323561634985     1.007825032230
         H           -3.364823186130    -0.209116841635     0.433451634985     1.007825032230

  Basis Set: AUG-CC-PVTZ
    Blend: AUG-CC-PVTZ
  Basis Set: (AUG-CC-PVTZ AUX)
    Blend: AUG-CC-PVTZ-JKFIT
	 Reference Energy          =    -309.1589166421368304 [Eh]
	 Singles Energy            =      -0.0000000000000000 [Eh]
	 Same-Spin Energy          =      -0.3224266049087088 [Eh]
	 Opposite-Spin Energy      =      -1.1096504858853036 [Eh]
	 Correlation Energy        =      -1.4320770907940124 [Eh]
	 Total Energy              =    -310.5909937329308264 [Eh]

	 ================> DF-SCS-MP2 Energies <==================
	-----------------------------------------------------------
	 SCS Same-Spin Scale       =       0.3333333333333333 [-]
	 SCS Opposite-Spin Scale   =       1.2000000000000000 [-]
	 SCS Same-Spin Energy      =      -0.1074755349695696 [Eh]
	 SCS Opposite-Spin Energy  =      -1.3315805830623642 [Eh]
	 SCS Correlation Energy    =      -1.4390561180319337 [Eh]
	 SCS Total Energy          =    -310.5979727601687728 [Eh]
	-----------------------------------------------------------

  Dipole Moment: [D]
     X:    -0.1973      Y:     1.1744      Z:     0.7113     Total:     1.3871

*** Psi4 exiting successfully. Buy a developer a beer!
