                               Psi4 1.4a3.dev225

  ==> Input File <==

--------------------------------------------------------------------------
#psi4
#
memory 32 gb

molecule  {
0 1
  O       -2.5655710    -0.4559810    -0.0273220
  C       -0.3284188     0.2910174    -0.4981940
  C        0.8011690     1.2489480    -0.2099430
  C        0.2481280    -1.1299970     0.0738820
  C        2.0012720     0.4634390     0.3560030
  C        1.7579830    -0.9743980    -0.1079500
  C       -1.6233710     0.5871250     0.2278630
  H       -0.5227930     0.1057830    -1.5165510
  H        0.4809950     2.0448300     0.4733970
  H        1.0672970     1.7363810    -1.1533330
  H       -0.1801860    -1.9933440    -0.4418670
  H        0.0160370    -1.2410800     1.1417000
  H        1.9867890     0.4940190     1.4519300
  H        2.9643500     0.8718720     0.0334030
  H        2.0194460    -1.0766330    -1.1687710
  H        2.3431410    -1.7133200     0.4495090
  H       -1.9840770     1.5507320    -0.1638540
  H       -1.4499160     0.7092340     1.3093790
  H       -3.3958760    -0.2202110     0.4192690
units angstrom
no_reorient  #important for SAPT in psi4, default
symmetry c1  #important for SAPT in psi4, default
}

set PROPERTIES_ORIGIN ["COM"]
properties('MP2/aug-cc-pvtz', properties = ['dipole'])
--------------------------------------------------------------------------

    Molecular point group: c1
  Charge       = 0
  Multiplicity = 1
  Basis Set: AUG-CC-PVTZ
    Blend: AUG-CC-PVTZ
  Basis Set: (AUG-CC-PVTZ AUX)
    Blend: AUG-CC-PVTZ-JKFIT

    Orbital Energies [Eh]
    ---------------------

    Doubly Occupied:

       1A    -20.557142     2A    -11.271725     3A    -11.216493
       4A    -11.214790     5A    -11.214161     6A    -11.210009
       7A    -11.209276     8A     -1.352887     9A     -1.118270
      10A     -0.999829    11A     -0.953015    12A     -0.873027
      13A     -0.777233    14A     -0.759698    15A     -0.686358
      16A     -0.649856    17A     -0.635136    18A     -0.616337
      19A     -0.574776    20A     -0.562546    21A     -0.521031
      22A     -0.486030    23A     -0.472036    24A     -0.465750
      25A     -0.458909    26A     -0.453512    27A     -0.452663
      28A     -0.411016

  @DF-RHF Final Energy:  -309.15298905652321

   => Energetics <=

    Nuclear Repulsion Energy =            324.1896993583953872
    One-Electron Energy =               -1062.3383576547364555
    Two-Electron Energy =                 428.9956692398178575
    Total Energy =                       -309.1529890565232108
  Basis Set: (AUG-CC-PVTZ AUX)
    Blend: AUG-CC-PVTZ-RI
    Molecular point group: c1

    Geometry (in Angstrom), charge = 0, multiplicity = 1:

       Center              X                  Y                   Z               Mass
    ------------   -----------------  -----------------  -----------------  -----------------
         O           -2.531765430990    -0.454166839604    -0.012371854680    15.994914619570
         C           -0.294613230990     0.292831560396    -0.483243854680    12.000000000000
         C            0.834974569010     1.250762160396    -0.194992854680    12.000000000000
         C            0.281933569010    -1.128182839604     0.088832145320    12.000000000000
         C            2.035077569010     0.465253160396     0.370953145320    12.000000000000
         C            1.791788569010    -0.972583839604    -0.092999854680    12.000000000000
         C           -1.589565430990     0.588939160396     0.242813145320    12.000000000000
         H           -0.488987430990     0.107597160396    -1.501600854680     1.007825032230
         H            0.514800569010     2.046644160396     0.488347145320     1.007825032230
         H            1.101102569010     1.738195160396    -1.138382854680     1.007825032230
         H           -0.146380430990    -1.991529839604    -0.426916854680     1.007825032230
         H            0.049842569010    -1.239265839604     1.156650145320     1.007825032230
         H            2.020594569010     0.495833160396     1.466880145320     1.007825032230
         H            2.998155569010     0.873686160396     0.048353145320     1.007825032230
         H            2.053251569010    -1.074818839604    -1.153820854680     1.007825032230
         H            2.376946569010    -1.711505839604     0.464459145320     1.007825032230
         H           -1.950271430990     1.552546160396    -0.148903854680     1.007825032230
         H           -1.416110430990     0.711048160396     1.324329145320     1.007825032230
         H           -3.362070430990    -0.218396839604     0.434219145320     1.007825032230

  Basis Set: AUG-CC-PVTZ
    Blend: AUG-CC-PVTZ
  Basis Set: (AUG-CC-PVTZ AUX)
    Blend: AUG-CC-PVTZ-JKFIT
	 Reference Energy          =    -309.1529890565232108 [Eh]
	 Singles Energy            =      -0.0000000000000000 [Eh]
	 Same-Spin Energy          =      -0.3224747315335599 [Eh]
	 Opposite-Spin Energy      =      -1.1099416578884218 [Eh]
	 Correlation Energy        =      -1.4324163894219817 [Eh]
	 Total Energy              =    -310.5854054459451845 [Eh]

	 ================> DF-SCS-MP2 Energies <==================
	-----------------------------------------------------------
	 SCS Same-Spin Scale       =       0.3333333333333333 [-]
	 SCS Opposite-Spin Scale   =       1.2000000000000000 [-]
	 SCS Same-Spin Energy      =      -0.1074915771778533 [Eh]
	 SCS Opposite-Spin Energy  =      -1.3319299894661061 [Eh]
	 SCS Correlation Energy    =      -1.4394215666439594 [Eh]
	 SCS Total Energy          =    -310.5924106231671544 [Eh]
	-----------------------------------------------------------

  Dipole Moment: [D]
     X:    -0.1930      Y:     1.1788      Z:     0.7307     Total:     1.4003

*** Psi4 exiting successfully. Buy a developer a beer!
