                               Psi4 1.4a3.dev225

  ==> Input File <==

--------------------------------------------------------------------------
#psi4
#
memory 32 gb

molecule  {
0 1
  O       -2.5655710    -0.4559810    -0.0273220
  C       -0.3219540     0.2014800    -0.4424590
  C        0.8011690     1.2489480    -0.2099430
  C        0.2481280    -1.1299970     0.0738820
  C        2.0012720     0.4634390     0.3560030
  C        1.7579830    -0.9743980    -0.1079500
  C       -1.6365614     0.5725219     0.2242905
  H       -0.5227930     0.1057830    -1.5165510
  H        0.4809950     2.0448300     0.4733970
  H        1.0672970     1.7363810    -1.1533330
  H       -0.1801860    -1.9933440    -0.4418670
  H        0.0160370    -1.2410800     1.1417000
  H        1.9867890     0.4940190     1.4519300
  H        2.9643500     0.8718720     0.0334030
  H        2.0194460    -1.0766330    -1.1687710
  H        2.3431410    -1.7133200     0.4495090
  H       -1.9840770     1.5507320    -0.1638540
  H       -1.4499160     0.7092340     1.3093790
  H       -3.3958760    -0.2202110     0.4192690
units angstrom
no_reorient  #important for SAPT in psi4, default
symmetry c1  #important for SAPT in psi4, default
}

set PROPERTIES_ORIGIN ["COM"]
properties('MP2/aug-cc-pvtz', properties = ['dipole'])
--------------------------------------------------------------------------

    Molecular point group: c1
  Charge       = 0
  Multiplicity = 1
  Basis Set: AUG-CC-PVTZ
    Blend: AUG-CC-PVTZ
  Basis Set: (AUG-CC-PVTZ AUX)
    Blend: AUG-CC-PVTZ-JKFIT

    Orbital Energies [Eh]
    ---------------------

    Doubly Occupied:

       1A    -20.558473     2A    -11.271812     3A    -11.216583
       4A    -11.215110     5A    -11.213182     6A    -11.210573
       7A    -11.206520     8A     -1.361162     9A     -1.121239
      10A     -0.995693    11A     -0.956256    12A     -0.872922
      13A     -0.778076    14A     -0.753341    15A     -0.692578
      16A     -0.649981    17A     -0.635476    18A     -0.620338
      19A     -0.569819    20A     -0.563722    21A     -0.524906
      22A     -0.473707    23A     -0.469737    24A     -0.463172
      25A     -0.459447    26A     -0.457316    27A     -0.445778
      28A     -0.429837

  @DF-RHF Final Energy:  -309.16192862350994

   => Energetics <=

    Nuclear Repulsion Energy =            324.9926261975914485
    One-Electron Energy =               -1063.9355972545390614
    Two-Electron Energy =                 429.7810424334376762
    Total Energy =                       -309.1619286235099366
  Basis Set: (AUG-CC-PVTZ AUX)
    Blend: AUG-CC-PVTZ-RI
    Molecular point group: c1

    Geometry (in Angstrom), charge = 0, multiplicity = 1:

       Center              X                  Y                   Z               Mass
    ------------   -----------------  -----------------  -----------------  -----------------
         O           -2.530959075155    -0.441681068842    -0.018625800238    15.994914619570
         C           -0.287342075155     0.215779931158    -0.433762800238    12.000000000000
         C            0.835780924845     1.263247931158    -0.201246800238    12.000000000000
         C            0.282739924845    -1.115697068842     0.082578199762    12.000000000000
         C            2.035883924845     0.477738931158     0.364699199762    12.000000000000
         C            1.792594924845    -0.960098068842    -0.099253800238    12.000000000000
         C           -1.601949475155     0.586821831158     0.232986699762    12.000000000000
         H           -0.488181075155     0.120082931158    -1.507854800238     1.007825032230
         H            0.515606924845     2.059129931158     0.482093199762     1.007825032230
         H            1.101908924845     1.750680931158    -1.144636800238     1.007825032230
         H           -0.145574075155    -1.979044068842    -0.433170800238     1.007825032230
         H            0.050648924845    -1.226780068842     1.150396199762     1.007825032230
         H            2.021400924845     0.508318931158     1.460626199762     1.007825032230
         H            2.998961924845     0.886171931158     0.042099199762     1.007825032230
         H            2.054057924845    -1.062333068842    -1.160074800238     1.007825032230
         H            2.377752924845    -1.699020068842     0.458205199762     1.007825032230
         H           -1.949465075155     1.565031931158    -0.155157800238     1.007825032230
         H           -1.415304075155     0.723533931158     1.318075199762     1.007825032230
         H           -3.361264075155    -0.205911068842     0.427965199762     1.007825032230

  Basis Set: AUG-CC-PVTZ
    Blend: AUG-CC-PVTZ
  Basis Set: (AUG-CC-PVTZ AUX)
    Blend: AUG-CC-PVTZ-JKFIT
	 Reference Energy          =    -309.1619286235099366 [Eh]
	 Singles Energy            =      -0.0000000000000000 [Eh]
	 Same-Spin Energy          =      -0.3223347769864210 [Eh]
	 Opposite-Spin Energy      =      -1.1091683992067618 [Eh]
	 Correlation Energy        =      -1.4315031761931829 [Eh]
	 Total Energy              =    -310.5934317997031258 [Eh]

	 ================> DF-SCS-MP2 Energies <==================
	-----------------------------------------------------------
	 SCS Same-Spin Scale       =       0.3333333333333333 [-]
	 SCS Opposite-Spin Scale   =       1.2000000000000000 [-]
	 SCS Same-Spin Energy      =      -0.1074449256621403 [Eh]
	 SCS Opposite-Spin Energy  =      -1.3310020790481141 [Eh]
	 SCS Correlation Energy    =      -1.4384470047102544 [Eh]
	 SCS Total Energy          =    -310.6003756282202062 [Eh]
	-----------------------------------------------------------

  Dipole Moment: [D]
     X:    -0.2597      Y:     1.1209      Z:     0.7357     Total:     1.3656

*** Psi4 exiting successfully. Buy a developer a beer!
