                               Psi4 1.4a3.dev225

  ==> Input File <==

--------------------------------------------------------------------------
#psi4
#
memory 32 gb

molecule  {
0 1
  O       -2.5655710    -0.4559810    -0.0273220
  C       -0.3219540     0.2014800    -0.4424590
  C        0.8011690     1.2489480    -0.2099430
  C        0.2481280    -1.1299970     0.0738820
  C        2.0012720     0.4634390     0.3560030
  C        1.7579830    -0.9743980    -0.1079500
  C       -1.6233710     0.5871250     0.2278630
  H       -0.5227930     0.1057830    -1.5165510
  H        0.4809950     2.0448300     0.4733970
  H        1.0672970     1.7363810    -1.1533330
  H       -0.1801860    -1.9933440    -0.4418670
  H        0.0160370    -1.2410800     1.1417000
  H        1.9867890     0.4940190     1.4519300
  H        2.9643500     0.8718720     0.0334030
  H        2.0194460    -1.0766330    -1.1687710
  H        2.3431410    -1.7133200     0.4495090
  H       -1.9840770     1.5507320    -0.1638540
  H       -1.4499160     0.7092340     1.3093790
  H       -3.2250000    -0.2687322     0.3273610
units angstrom
no_reorient  #important for SAPT in psi4, default
symmetry c1  #important for SAPT in psi4, default
}

set PROPERTIES_ORIGIN ["COM"]
properties('MP2/aug-cc-pvtz', properties = ['dipole'])
--------------------------------------------------------------------------

    Molecular point group: c1
  Charge       = 0
  Multiplicity = 1
  Basis Set: AUG-CC-PVTZ
    Blend: AUG-CC-PVTZ
  Basis Set: (AUG-CC-PVTZ AUX)
    Blend: AUG-CC-PVTZ-JKFIT

    Orbital Energies [Eh]
    ---------------------

    Doubly Occupied:

       1A    -20.534079     2A    -11.273977     3A    -11.218068
       4A    -11.215979     5A    -11.214048     6A    -11.211520
       7A    -11.207779     8A     -1.414358     9A     -1.124493
      10A     -1.007475    11A     -0.957531    12A     -0.885878
      13A     -0.780461    14A     -0.755839    15A     -0.725992
      16A     -0.653823    17A     -0.637399    18A     -0.623510
      19A     -0.571328    20A     -0.565146    21A     -0.530611
      22A     -0.474860    23A     -0.473733    24A     -0.465039
      25A     -0.461733    26A     -0.458939    27A     -0.451534
      28A     -0.435509

  @DF-RHF Final Energy:  -309.11547016270646

   => Energetics <=

    Nuclear Repulsion Energy =            326.3789250824991086
    One-Electron Energy =               -1066.3275046304354419
    Two-Electron Energy =                 430.8331093852298750
    Total Energy =                       -309.1154701627064583
  Basis Set: (AUG-CC-PVTZ AUX)
    Blend: AUG-CC-PVTZ-RI
    Molecular point group: c1

    Geometry (in Angstrom), charge = 0, multiplicity = 1:

       Center              X                  Y                   Z               Mass
    ------------   -----------------  -----------------  -----------------  -----------------
         O           -2.534261121544    -0.442943310982    -0.018128669933    15.994914619570
         C           -0.290644121544     0.214517689018    -0.433265669933    12.000000000000
         C            0.832478878456     1.261985689018    -0.200749669933    12.000000000000
         C            0.279437878456    -1.116959310982     0.083075330067    12.000000000000
         C            2.032581878456     0.476476689018     0.365196330067    12.000000000000
         C            1.789292878456    -0.961360310982    -0.098756669933    12.000000000000
         C           -1.592061121544     0.600162689018     0.237056330067    12.000000000000
         H           -0.491483121544     0.118820689018    -1.507357669933     1.007825032230
         H            0.512304878456     2.057867689018     0.482590330067     1.007825032230
         H            1.098606878456     1.749418689018    -1.144139669933     1.007825032230
         H           -0.148876121544    -1.980306310982    -0.432673669933     1.007825032230
         H            0.047346878456    -1.228042310982     1.150893330067     1.007825032230
         H            2.018098878456     0.507056689018     1.461123330067     1.007825032230
         H            2.995659878456     0.884909689018     0.042596330067     1.007825032230
         H            2.050755878456    -1.063595310982    -1.159577669933     1.007825032230
         H            2.374450878456    -1.700282310982     0.458702330067     1.007825032230
         H           -1.952767121544     1.563769689018    -0.154660669933     1.007825032230
         H           -1.418606121544     0.722271689018     1.318572330067     1.007825032230
         H           -3.193690121544    -0.255694510982     0.336554330067     1.007825032230

  Basis Set: AUG-CC-PVTZ
    Blend: AUG-CC-PVTZ
  Basis Set: (AUG-CC-PVTZ AUX)
    Blend: AUG-CC-PVTZ-JKFIT
	 Reference Energy          =    -309.1154701627064583 [Eh]
	 Singles Energy            =      -0.0000000000000000 [Eh]
	 Same-Spin Energy          =      -0.3200806640350716 [Eh]
	 Opposite-Spin Energy      =      -1.1038664011162198 [Eh]
	 Correlation Energy        =      -1.4239470651512915 [Eh]
	 Total Energy              =    -310.5394172278577685 [Eh]

	 ================> DF-SCS-MP2 Energies <==================
	-----------------------------------------------------------
	 SCS Same-Spin Scale       =       0.3333333333333333 [-]
	 SCS Opposite-Spin Scale   =       1.2000000000000000 [-]
	 SCS Same-Spin Energy      =      -0.1066935546783572 [Eh]
	 SCS Opposite-Spin Energy  =      -1.3246396813394636 [Eh]
	 SCS Correlation Energy    =      -1.4313332360178208 [Eh]
	 SCS Total Energy          =    -310.5468033987242507 [Eh]
	-----------------------------------------------------------

  Dipole Moment: [D]
     X:    -0.0214      Y:     1.1718      Z:     0.6826     Total:     1.3563

*** Psi4 exiting successfully. Buy a developer a beer!
