                               Psi4 1.4a3.dev225

  ==> Input File <==

--------------------------------------------------------------------------
#psi4
#
memory 32 gb

molecule  {
0 1
  O       -2.5655710    -0.4559810    -0.0273220
  C       -0.3219540     0.2014800    -0.4424590
  C        0.7650156     1.2152299    -0.2174277
  C        0.2481280    -1.1299970     0.0738820
  C        2.0012720     0.4634390     0.3560030
  C        1.7579830    -0.9743980    -0.1079500
  C       -1.6233710     0.5871250     0.2278630
  H       -0.5227930     0.1057830    -1.5165510
  H        0.4809950     2.0448300     0.4733970
  H        1.0672970     1.7363810    -1.1533330
  H       -0.1801860    -1.9933440    -0.4418670
  H        0.0160370    -1.2410800     1.1417000
  H        1.9867890     0.4940190     1.4519300
  H        2.9643500     0.8718720     0.0334030
  H        2.0194460    -1.0766330    -1.1687710
  H        2.3431410    -1.7133200     0.4495090
  H       -1.9840770     1.5507320    -0.1638540
  H       -1.4499160     0.7092340     1.3093790
  H       -3.3958760    -0.2202110     0.4192690
units angstrom
no_reorient  #important for SAPT in psi4, default
symmetry c1  #important for SAPT in psi4, default
}

set PROPERTIES_ORIGIN ["COM"]
properties('MP2/aug-cc-pvtz', properties = ['dipole'])
--------------------------------------------------------------------------

    Molecular point group: c1
  Charge       = 0
  Multiplicity = 1
  Basis Set: AUG-CC-PVTZ
    Blend: AUG-CC-PVTZ
  Basis Set: (AUG-CC-PVTZ AUX)
    Blend: AUG-CC-PVTZ-JKFIT

    Orbital Energies [Eh]
    ---------------------

    Doubly Occupied:

       1A    -20.556385     2A    -11.271862     3A    -11.217009
       4A    -11.214728     5A    -11.214061     6A    -11.210571
       7A    -11.207243     8A     -1.353136     9A     -1.126304
      10A     -0.999717    11A     -0.953932    12A     -0.875638
      13A     -0.779137    14A     -0.752965    15A     -0.688094
      16A     -0.651845    17A     -0.635403    18A     -0.619972
      19A     -0.567408    20A     -0.560189    21A     -0.523488
      22A     -0.480398    23A     -0.470807    24A     -0.467367
      25A     -0.457263    26A     -0.454876    27A     -0.445288
      28A     -0.431089

  @DF-RHF Final Energy:  -309.15925428542113

   => Energetics <=

    Nuclear Repulsion Energy =            325.5537856759765987
    One-Electron Energy =               -1065.0537227876200177
    Two-Electron Energy =                 430.3406828262223485
    Total Energy =                       -309.1592542854211274
  Basis Set: (AUG-CC-PVTZ AUX)
    Blend: AUG-CC-PVTZ-RI
    Molecular point group: c1

    Geometry (in Angstrom), charge = 0, multiplicity = 1:

       Center              X                  Y                   Z               Mass
    ------------   -----------------  -----------------  -----------------  -----------------
         O           -2.528205960334    -0.439389304273    -0.018156752822    15.994914619570
         C           -0.284588960334     0.218071695727    -0.433293752822    12.000000000000
         C            0.802380639666     1.231821595727    -0.208262452822    12.000000000000
         C            0.285493039666    -1.113405304273     0.083047247178    12.000000000000
         C            2.038637039666     0.480030695727     0.365168247178    12.000000000000
         C            1.795348039666    -0.957806304273    -0.098784752822    12.000000000000
         C           -1.586005960334     0.603716695727     0.237028247178    12.000000000000
         H           -0.485427960334     0.122374695727    -1.507385752822     1.007825032230
         H            0.518360039666     2.061421695727     0.482562247178     1.007825032230
         H            1.104662039666     1.752972695727    -1.144167752822     1.007825032230
         H           -0.142820960334    -1.976752304273    -0.432701752822     1.007825032230
         H            0.053402039666    -1.224488304273     1.150865247178     1.007825032230
         H            2.024154039666     0.510610695727     1.461095247178     1.007825032230
         H            3.001715039666     0.888463695727     0.042568247178     1.007825032230
         H            2.056811039666    -1.060041304273    -1.159605752822     1.007825032230
         H            2.380506039666    -1.696728304273     0.458674247178     1.007825032230
         H           -1.946711960334     1.567323695727    -0.154688752822     1.007825032230
         H           -1.412550960334     0.725825695727     1.318544247178     1.007825032230
         H           -3.358510960334    -0.203619304273     0.428434247178     1.007825032230

  Basis Set: AUG-CC-PVTZ
    Blend: AUG-CC-PVTZ
  Basis Set: (AUG-CC-PVTZ AUX)
    Blend: AUG-CC-PVTZ-JKFIT
	 Reference Energy          =    -309.1592542854211274 [Eh]
	 Singles Energy            =      -0.0000000000000000 [Eh]
	 Same-Spin Energy          =      -0.3227118922443489 [Eh]
	 Opposite-Spin Energy      =      -1.1098520388493502 [Eh]
	 Correlation Energy        =      -1.4325639310936991 [Eh]
	 Total Energy              =    -310.5918182165148096 [Eh]

	 ================> DF-SCS-MP2 Energies <==================
	-----------------------------------------------------------
	 SCS Same-Spin Scale       =       0.3333333333333333 [-]
	 SCS Opposite-Spin Scale   =       1.2000000000000000 [-]
	 SCS Same-Spin Energy      =      -0.1075706307481163 [Eh]
	 SCS Opposite-Spin Energy  =      -1.3318224466192203 [Eh]
	 SCS Correlation Energy    =      -1.4393930773673367 [Eh]
	 SCS Total Energy          =    -310.5986473627884834 [Eh]
	-----------------------------------------------------------

  Dipole Moment: [D]
     X:    -0.1996      Y:     1.1583      Z:     0.7471     Total:     1.3927

*** Psi4 exiting successfully. Buy a developer a beer!
