                               Psi4 1.4a3.dev225

  ==> Input File <==

--------------------------------------------------------------------------
#psi4
#
memory 32 gb

molecule  {
0 1
  O       -2.5655710    -0.4559810    -0.0273220
  C       -0.3219540     0.2014800    -0.4424590
  C        0.8011690     1.2489480    -0.2099430
  C        0.2481280    -1.1299970     0.0738820
  C        1.9929120     0.4567134     0.3804615
  C        1.7579830    -0.9743980    -0.1079500
  C       -1.6233710     0.5871250     0.2278630
  H       -0.5227930     0.1057830    -1.5165510
  H        0.4809950     2.0448300     0.4733970
  H        1.0672970     1.7363810    -1.1533330
  H       -0.1801860    -1.9933440    -0.4418670
  H        0.0160370    -1.2410800     1.1417000
  H        1.9867890     0.4940190     1.4519300
  H        2.9643500     0.8718720     0.0334030
  H        2.0194460    -1.0766330    -1.1687710
  H        2.3431410    -1.7133200     0.4495090
  H       -1.9840770     1.5507320    -0.1638540
  H       -1.4499160     0.7092340     1.3093790
  H       -3.3958760    -0.2202110     0.4192690
units angstrom
no_reorient  #important for SAPT in psi4, default
symmetry c1  #important for SAPT in psi4, default
}

set PROPERTIES_ORIGIN ["COM"]
properties('MP2/aug-cc-pvtz', properties = ['dipole'])
--------------------------------------------------------------------------

    Molecular point group: c1
  Charge       = 0
  Multiplicity = 1
  Basis Set: AUG-CC-PVTZ
    Blend: AUG-CC-PVTZ
  Basis Set: (AUG-CC-PVTZ AUX)
    Blend: AUG-CC-PVTZ-JKFIT

    Orbital Energies [Eh]
    ---------------------

    Doubly Occupied:

       1A    -20.556038     2A    -11.271299     3A    -11.216577
       4A    -11.215464     5A    -11.213125     6A    -11.210824
       7A    -11.206725     8A     -1.352724     9A     -1.121761
      10A     -0.997241    11A     -0.955769    12A     -0.873696
      13A     -0.779744    14A     -0.753794    15A     -0.687515
      16A     -0.648985    17A     -0.635876    18A     -0.618393
      19A     -0.569958    20A     -0.563421    21A     -0.523550
      22A     -0.473260    23A     -0.468270    24A     -0.462986
      25A     -0.459420    26A     -0.458050    27A     -0.448976
      28A     -0.432441

  @DF-RHF Final Energy:  -309.16126122062735

   => Energetics <=

    Nuclear Repulsion Energy =            324.9184906161966637
    One-Electron Energy =               -1063.8077408527626631
    Two-Electron Energy =                 429.7279890159386468
    Total Energy =                       -309.1612612206273525
  Basis Set: (AUG-CC-PVTZ AUX)
    Blend: AUG-CC-PVTZ-RI
    Molecular point group: c1

    Geometry (in Angstrom), charge = 0, multiplicity = 1:

       Center              X                  Y                   Z               Mass
    ------------   -----------------  -----------------  -----------------  -----------------
         O           -2.531538208797    -0.442625530019    -0.021986535400    15.994914619570
         C           -0.287921208797     0.214835469981    -0.437123535400    12.000000000000
         C            0.835201791203     1.262303469981    -0.204607535400    12.000000000000
         C            0.282160791203    -1.116641530019     0.079217464600    12.000000000000
         C            2.026944791203     0.470068869981     0.385796964600    12.000000000000
         C            1.792015791203    -0.961042530019    -0.102614535400    12.000000000000
         C           -1.589338208797     0.600480469981     0.233198464600    12.000000000000
         H           -0.488760208797     0.119138469981    -1.511215535400     1.007825032230
         H            0.515027791203     2.058185469981     0.478732464600     1.007825032230
         H            1.101329791203     1.749736469981    -1.147997535400     1.007825032230
         H           -0.146153208797    -1.979988530019    -0.436531535400     1.007825032230
         H            0.050069791203    -1.227724530019     1.147035464600     1.007825032230
         H            2.020821791203     0.507374469981     1.457265464600     1.007825032230
         H            2.998382791203     0.885227469981     0.038738464600     1.007825032230
         H            2.053478791203    -1.063277530019    -1.163435535400     1.007825032230
         H            2.377173791203    -1.699964530019     0.454844464600     1.007825032230
         H           -1.950044208797     1.564087469981    -0.158518535400     1.007825032230
         H           -1.415883208797     0.722589469981     1.314714464600     1.007825032230
         H           -3.361843208797    -0.206855530019     0.424604464600     1.007825032230

  Basis Set: AUG-CC-PVTZ
    Blend: AUG-CC-PVTZ
  Basis Set: (AUG-CC-PVTZ AUX)
    Blend: AUG-CC-PVTZ-JKFIT
	 Reference Energy          =    -309.1612612206273525 [Eh]
	 Singles Energy            =      -0.0000000000000000 [Eh]
	 Same-Spin Energy          =      -0.3223825472257132 [Eh]
	 Opposite-Spin Energy      =      -1.1094881377802028 [Eh]
	 Correlation Energy        =      -1.4318706850059160 [Eh]
	 Total Energy              =    -310.5931319056332427 [Eh]

	 ================> DF-SCS-MP2 Energies <==================
	-----------------------------------------------------------
	 SCS Same-Spin Scale       =       0.3333333333333333 [-]
	 SCS Opposite-Spin Scale   =       1.2000000000000000 [-]
	 SCS Same-Spin Energy      =      -0.1074608490752377 [Eh]
	 SCS Opposite-Spin Energy  =      -1.3313857653362433 [Eh]
	 SCS Correlation Energy    =      -1.4388466144114811 [Eh]
	 SCS Total Energy          =    -310.6001078350388411 [Eh]
	-----------------------------------------------------------

  Dipole Moment: [D]
     X:    -0.1982      Y:     1.1677      Z:     0.7604     Total:     1.4075

*** Psi4 exiting successfully. Buy a developer a beer!
