                               Psi4 1.4a3.dev225

  ==> Input File <==

--------------------------------------------------------------------------
#psi4
#
memory 32 gb

molecule  {
0 1
  O       -2.5655710    -0.4559810    -0.0273220
  C       -0.3219540     0.2014800    -0.4424590
  C        0.8011690     1.2489480    -0.2099430
  C        0.2481280    -1.1299970     0.0738820
  C        2.0012720     0.4634390     0.3560030
  C        1.7579830    -0.9743980    -0.1079500
  C       -1.6233710     0.5871250     0.2278630
  H       -0.5227930     0.1057830    -1.5165510
  H        0.4809950     2.0448300     0.4733970
  H        1.0672970     1.7363810    -1.1533330
  H       -0.1801860    -1.9933440    -0.4418670
  H        0.0160370    -1.2410800     1.1417000
  H        1.9854681     0.4968080     1.5518824
  H        2.9643500     0.8718720     0.0334030
  H        2.0194460    -1.0766330    -1.1687710
  H        2.3431410    -1.7133200     0.4495090
  H       -1.9840770     1.5507320    -0.1638540
  H       -1.4499160     0.7092340     1.3093790
  H       -3.3958760    -0.2202110     0.4192690
units angstrom
no_reorient  #important for SAPT in psi4, default
symmetry c1  #important for SAPT in psi4, default
}

set PROPERTIES_ORIGIN ["COM"]
properties('MP2/aug-cc-pvtz', properties = ['dipole'])
--------------------------------------------------------------------------

    Molecular point group: c1
  Charge       = 0
  Multiplicity = 1
  Basis Set: AUG-CC-PVTZ
    Blend: AUG-CC-PVTZ
  Basis Set: (AUG-CC-PVTZ AUX)
    Blend: AUG-CC-PVTZ-JKFIT

    Orbital Energies [Eh]
    ---------------------

    Doubly Occupied:

       1A    -20.556346     2A    -11.271626     3A    -11.225906
       4A    -11.217377     5A    -11.216463     6A    -11.212168
       7A    -11.207228     8A     -1.353026     9A     -1.121619
      10A     -0.996244    11A     -0.955943    12A     -0.872973
      13A     -0.772662    14A     -0.754110    15A     -0.687619
      16A     -0.650788    17A     -0.632487    18A     -0.619557
      19A     -0.569649    20A     -0.556624    21A     -0.522739
      22A     -0.474903    23A     -0.471290    24A     -0.463567
      25A     -0.460736    26A     -0.452812    27A     -0.445895
      28A     -0.431522

  @DF-RHF Final Energy:  -309.15570375227406

   => Energetics <=

    Nuclear Repulsion Energy =            324.4696979418257570
    One-Electron Energy =               -1062.9030414977758028
    Two-Electron Energy =                 429.2776398036759815
    Total Energy =                       -309.1557037522740643
  Basis Set: (AUG-CC-PVTZ AUX)
    Blend: AUG-CC-PVTZ-RI
    Molecular point group: c1

    Geometry (in Angstrom), charge = 0, multiplicity = 1:

       Center              X                  Y                   Z               Mass
    ------------   -----------------  -----------------  -----------------  -----------------
         O           -2.532527218048    -0.443459969152    -0.020060571253    15.994914619570
         C           -0.288910218048     0.214001030848    -0.435197571253    12.000000000000
         C            0.834212781952     1.261469030848    -0.202681571253    12.000000000000
         C            0.281171781952    -1.117475969152     0.081143428747    12.000000000000
         C            2.034315781952     0.475960030848     0.363264428747    12.000000000000
         C            1.791026781952    -0.961876969152    -0.100688571253    12.000000000000
         C           -1.590327218048     0.599646030848     0.235124428747    12.000000000000
         H           -0.489749218048     0.118304030848    -1.509289571253     1.007825032230
         H            0.514038781952     2.057351030848     0.480658428747     1.007825032230
         H            1.100340781952     1.748902030848    -1.146071571253     1.007825032230
         H           -0.147142218048    -1.980822969152    -0.434605571253     1.007825032230
         H            0.049080781952    -1.228558969152     1.148961428747     1.007825032230
         H            2.018511881952     0.509329030848     1.559143828747     1.007825032230
         H            2.997393781952     0.884393030848     0.040664428747     1.007825032230
         H            2.052489781952    -1.064111969152    -1.161509571253     1.007825032230
         H            2.376184781952    -1.700798969152     0.456770428747     1.007825032230
         H           -1.951033218048     1.563253030848    -0.156592571253     1.007825032230
         H           -1.416872218048     0.721755030848     1.316640428747     1.007825032230
         H           -3.362832218048    -0.207689969152     0.426530428747     1.007825032230

  Basis Set: AUG-CC-PVTZ
    Blend: AUG-CC-PVTZ
  Basis Set: (AUG-CC-PVTZ AUX)
    Blend: AUG-CC-PVTZ-JKFIT
	 Reference Energy          =    -309.1557037522740643 [Eh]
	 Singles Energy            =      -0.0000000000000000 [Eh]
	 Same-Spin Energy          =      -0.3223616856547715 [Eh]
	 Opposite-Spin Energy      =      -1.1101635099794738 [Eh]
	 Correlation Energy        =      -1.4325251956342453 [Eh]
	 Total Energy              =    -310.5882289479083056 [Eh]

	 ================> DF-SCS-MP2 Energies <==================
	-----------------------------------------------------------
	 SCS Same-Spin Scale       =       0.3333333333333333 [-]
	 SCS Opposite-Spin Scale   =       1.2000000000000000 [-]
	 SCS Same-Spin Energy      =      -0.1074538952182572 [Eh]
	 SCS Opposite-Spin Energy  =      -1.3321962119753685 [Eh]
	 SCS Correlation Energy    =      -1.4396501071936256 [Eh]
	 SCS Total Energy          =    -310.5953538594677070 [Eh]
	-----------------------------------------------------------

  Dipole Moment: [D]
     X:    -0.2149      Y:     1.1622      Z:     0.6648     Total:     1.3560

*** Psi4 exiting successfully. Buy a developer a beer!
