                               Psi4 1.4a3.dev225

  ==> Input File <==

--------------------------------------------------------------------------
#psi4
#
memory 32 gb

molecule  {
0 1
  O       -2.5655710    -0.4559810    -0.0273220
  C       -0.3219540     0.2014800    -0.4424590
  C        0.8011690     1.2489480    -0.2099430
  C        0.2394868    -1.1681319    -0.0260697
  C        2.0012720     0.4634390     0.3560030
  C        1.7579830    -0.9743980    -0.1079500
  C       -1.6233710     0.5871250     0.2278630
  H       -0.5227930     0.1057830    -1.5165510
  H        0.4809950     2.0448300     0.4733970
  H        1.0672970     1.7363810    -1.1533330
  H       -0.1801860    -1.9933440    -0.4418670
  H        0.0160370    -1.2410800     1.1417000
  H        1.9867890     0.4940190     1.4519300
  H        2.9643500     0.8718720     0.0334030
  H        2.0194460    -1.0766330    -1.1687710
  H        2.3431410    -1.7133200     0.4495090
  H       -1.9840770     1.5507320    -0.1638540
  H       -1.4499160     0.7092340     1.3093790
  H       -3.3958760    -0.2202110     0.4192690
units angstrom
no_reorient  #important for SAPT in psi4, default
symmetry c1  #important for SAPT in psi4, default
}

set PROPERTIES_ORIGIN ["COM"]
properties('MP2/aug-cc-pvtz', properties = ['dipole'])
--------------------------------------------------------------------------

    Molecular point group: c1
  Charge       = 0
  Multiplicity = 1
  Basis Set: AUG-CC-PVTZ
    Blend: AUG-CC-PVTZ
  Basis Set: (AUG-CC-PVTZ AUX)
    Blend: AUG-CC-PVTZ-JKFIT

    Orbital Energies [Eh]
    ---------------------

    Doubly Occupied:

       1A    -20.556278     2A    -11.271959     3A    -11.217926
       4A    -11.216775     5A    -11.214866     6A    -11.212371
       7A    -11.209900     8A     -1.352883     9A     -1.120641
      10A     -0.997125    11A     -0.959485    12A     -0.875623
      13A     -0.778253    14A     -0.754254    15A     -0.688985
      16A     -0.657973    17A     -0.635057    18A     -0.618460
      19A     -0.567136    20A     -0.556737    21A     -0.522349
      22A     -0.491917    23A     -0.470040    24A     -0.465979
      25A     -0.462662    26A     -0.454409    27A     -0.438036
      28A     -0.422999

  @DF-RHF Final Energy:  -309.14933775790382

   => Energetics <=

    Nuclear Repulsion Energy =            324.5172607308710440
    One-Electron Energy =               -1062.9510395593333669
    Two-Electron Energy =                 429.2844410705585005
    Total Energy =                       -309.1493377579038224
  Basis Set: (AUG-CC-PVTZ AUX)
    Blend: AUG-CC-PVTZ-RI
    Molecular point group: c1

    Geometry (in Angstrom), charge = 0, multiplicity = 1:

       Center              X                  Y                   Z               Mass
    ------------   -----------------  -----------------  -----------------  -----------------
         O           -2.531504494740    -0.438859758589    -0.007070559026    15.994914619570
         C           -0.287887494740     0.218601241411    -0.422207559026    12.000000000000
         C            0.835235505260     1.266069241411    -0.189691559026    12.000000000000
         C            0.273553305260    -1.151010658589    -0.005818259026    12.000000000000
         C            2.035338505260     0.480560241411     0.376254440974    12.000000000000
         C            1.792049505260    -0.957276758589    -0.087698559026    12.000000000000
         C           -1.589304494740     0.604246241411     0.248114440974    12.000000000000
         H           -0.488726494740     0.122904241411    -1.496299559026     1.007825032230
         H            0.515061505260     2.061951241411     0.493648440974     1.007825032230
         H            1.101363505260     1.753502241411    -1.133081559026     1.007825032230
         H           -0.146119494740    -1.976222758589    -0.421615559026     1.007825032230
         H            0.050103505260    -1.223958758589     1.161951440974     1.007825032230
         H            2.020855505260     0.511140241411     1.472181440974     1.007825032230
         H            2.998416505260     0.888993241411     0.053654440974     1.007825032230
         H            2.053512505260    -1.059511758589    -1.148519559026     1.007825032230
         H            2.377207505260    -1.696198758589     0.469760440974     1.007825032230
         H           -1.950010494740     1.567853241411    -0.143602559026     1.007825032230
         H           -1.415849494740     0.726355241411     1.329630440974     1.007825032230
         H           -3.361809494740    -0.203089758589     0.439520440974     1.007825032230

  Basis Set: AUG-CC-PVTZ
    Blend: AUG-CC-PVTZ
  Basis Set: (AUG-CC-PVTZ AUX)
    Blend: AUG-CC-PVTZ-JKFIT
	 Reference Energy          =    -309.1493377579038224 [Eh]
	 Singles Energy            =      -0.0000000000000000 [Eh]
	 Same-Spin Energy          =      -0.3224709587247053 [Eh]
	 Opposite-Spin Energy      =      -1.1100359076900053 [Eh]
	 Correlation Energy        =      -1.4325068664147107 [Eh]
	 Total Energy              =    -310.5818446243185349 [Eh]

	 ================> DF-SCS-MP2 Energies <==================
	-----------------------------------------------------------
	 SCS Same-Spin Scale       =       0.3333333333333333 [-]
	 SCS Opposite-Spin Scale   =       1.2000000000000000 [-]
	 SCS Same-Spin Energy      =      -0.1074903195749018 [Eh]
	 SCS Opposite-Spin Energy  =      -1.3320430892280062 [Eh]
	 SCS Correlation Energy    =      -1.4395334088029079 [Eh]
	 SCS Total Energy          =    -310.5888711667067241 [Eh]
	-----------------------------------------------------------

  Dipole Moment: [D]
     X:    -0.1828      Y:     1.1935      Z:     0.6707     Total:     1.3812

*** Psi4 exiting successfully. Buy a developer a beer!
