                               Psi4 1.4a3.dev225

  ==> Input File <==

--------------------------------------------------------------------------
#psi4
#
memory 32 gb

molecule  {
0 1
  O       -2.5655710    -0.4559810    -0.0273220
  C       -0.3219540     0.2014800    -0.4424590
  C        0.8011690     1.2489480    -0.2099430
  C        0.3222768    -1.3031780     0.1410408
  C        2.0012720     0.4634390     0.3560030
  C        1.7579830    -0.9743980    -0.1079500
  C       -1.6233710     0.5871250     0.2278630
  H       -0.5227930     0.1057830    -1.5165510
  H        0.4809950     2.0448300     0.4733970
  H        1.0672970     1.7363810    -1.1533330
  H       -0.1801860    -1.9933440    -0.4418670
  H        0.0160370    -1.2410800     1.1417000
  H        1.9867890     0.4940190     1.4519300
  H        2.9643500     0.8718720     0.0334030
  H        2.0194460    -1.0766330    -1.1687710
  H        2.3431410    -1.7133200     0.4495090
  H       -1.9840770     1.5507320    -0.1638540
  H       -1.4499160     0.7092340     1.3093790
  H       -3.3958760    -0.2202110     0.4192690
units angstrom
no_reorient  #important for SAPT in psi4, default
symmetry c1  #important for SAPT in psi4, default
}

set PROPERTIES_ORIGIN ["COM"]
properties('MP2/aug-cc-pvtz', properties = ['dipole'])
--------------------------------------------------------------------------

    Molecular point group: c1
  Charge       = 0
  Multiplicity = 1
  Basis Set: AUG-CC-PVTZ
    Blend: AUG-CC-PVTZ
  Basis Set: (AUG-CC-PVTZ AUX)
    Blend: AUG-CC-PVTZ-JKFIT

    Orbital Energies [Eh]
    ---------------------

    Doubly Occupied:

       1A    -20.555220     2A    -11.270458     3A    -11.221753
       4A    -11.215612     5A    -11.214997     6A    -11.211875
       7A    -11.207808     8A     -1.351481     9A     -1.110247
      10A     -0.994714    11A     -0.960808    12A     -0.868906
      13A     -0.781974    14A     -0.753525    15A     -0.684753
      16A     -0.652155    17A     -0.631095    18A     -0.617489
      19A     -0.582103    20A     -0.562294    21A     -0.521604
      22A     -0.494789    23A     -0.478580    24A     -0.465528
      25A     -0.460570    26A     -0.454012    27A     -0.446203
      28A     -0.386383

  @DF-RHF Final Energy:  -309.13457846818886

   => Energetics <=

    Nuclear Repulsion Energy =            322.3198933943471616
    One-Electron Energy =               -1058.5950695612261825
    Two-Electron Energy =                 427.1405976986901010
    Total Energy =                       -309.1345784681888631
  Basis Set: (AUG-CC-PVTZ AUX)
    Blend: AUG-CC-PVTZ-RI
    Molecular point group: c1

    Geometry (in Angstrom), charge = 0, multiplicity = 1:

       Center              X                  Y                   Z               Mass
    ------------   -----------------  -----------------  -----------------  -----------------
         O           -2.541430478977    -0.422668606761    -0.027106024526    15.994914619570
         C           -0.297813478977     0.234792393239    -0.442243024526    12.000000000000
         C            0.825309521023     1.282260393239    -0.209727024526    12.000000000000
         C            0.346417321023    -1.269865606761     0.141256775474    12.000000000000
         C            2.025412521023     0.496751393239     0.356218975474    12.000000000000
         C            1.782123521023    -0.941085606761    -0.107734024526    12.000000000000
         C           -1.599230478977     0.620437393239     0.228078975474    12.000000000000
         H           -0.498652478977     0.139095393239    -1.516335024526     1.007825032230
         H            0.505135521023     2.078142393239     0.473612975474     1.007825032230
         H            1.091437521023     1.769693393239    -1.153117024526     1.007825032230
         H           -0.156045478977    -1.960031606761    -0.441651024526     1.007825032230
         H            0.040177521023    -1.207767606761     1.141915975474     1.007825032230
         H            2.010929521023     0.527331393239     1.452145975474     1.007825032230
         H            2.988490521023     0.905184393239     0.033618975474     1.007825032230
         H            2.043586521023    -1.043320606761    -1.168555024526     1.007825032230
         H            2.367281521023    -1.680007606761     0.449724975474     1.007825032230
         H           -1.959936478977     1.584044393239    -0.163638024526     1.007825032230
         H           -1.425775478977     0.742546393239     1.309594975474     1.007825032230
         H           -3.371735478977    -0.186898606761     0.419484975474     1.007825032230

  Basis Set: AUG-CC-PVTZ
    Blend: AUG-CC-PVTZ
  Basis Set: (AUG-CC-PVTZ AUX)
    Blend: AUG-CC-PVTZ-JKFIT
	 Reference Energy          =    -309.1345784681888631 [Eh]
	 Singles Energy            =      -0.0000000000000000 [Eh]
	 Same-Spin Energy          =      -0.3229052087299968 [Eh]
	 Opposite-Spin Energy      =      -1.1114645318213743 [Eh]
	 Correlation Energy        =      -1.4343697405513711 [Eh]
	 Total Energy              =    -310.5689482087402098 [Eh]

	 ================> DF-SCS-MP2 Energies <==================
	-----------------------------------------------------------
	 SCS Same-Spin Scale       =       0.3333333333333333 [-]
	 SCS Opposite-Spin Scale   =       1.2000000000000000 [-]
	 SCS Same-Spin Energy      =      -0.1076350695766656 [Eh]
	 SCS Opposite-Spin Energy  =      -1.3337574381856492 [Eh]
	 SCS Correlation Energy    =      -1.4413925077623149 [Eh]
	 SCS Total Energy          =    -310.5759709759511793 [Eh]
	-----------------------------------------------------------

  Dipole Moment: [D]
     X:    -0.1866      Y:     1.2191      Z:     0.7401     Total:     1.4383

*** Psi4 exiting successfully. Buy a developer a beer!
