                               Psi4 1.4a3.dev225

  ==> Input File <==

--------------------------------------------------------------------------
#psi4
#
memory 32 gb

molecule  {
0 1
  O       -2.5655710    -0.4559810    -0.0273220
  C       -0.3219540     0.2014800    -0.4424590
  C        0.8011690     1.2489480    -0.2099430
  C        0.2481280    -1.1299970     0.0738820
  C        2.0012720     0.4634390     0.3560030
  C        1.7579830    -0.9743980    -0.1079500
  C       -1.6233710     0.5871250     0.2278630
  H       -0.5227930     0.1057830    -1.5165510
  H        0.4809950     2.0448300     0.4733970
  H        1.0672970     1.7363810    -1.1533330
  H       -0.1410018    -1.9143608    -0.3946838
  H        0.0160370    -1.2410800     1.1417000
  H        1.9867890     0.4940190     1.4519300
  H        2.9643500     0.8718720     0.0334030
  H        2.0194460    -1.0766330    -1.1687710
  H        2.3431410    -1.7133200     0.4495090
  H       -1.9840770     1.5507320    -0.1638540
  H       -1.4499160     0.7092340     1.3093790
  H       -3.3958760    -0.2202110     0.4192690
units angstrom
no_reorient  #important for SAPT in psi4, default
symmetry c1  #important for SAPT in psi4, default
}

set PROPERTIES_ORIGIN ["COM"]
properties('MP2/aug-cc-pvtz', properties = ['dipole'])
--------------------------------------------------------------------------

    Molecular point group: c1
  Charge       = 0
  Multiplicity = 1
  Basis Set: AUG-CC-PVTZ
    Blend: AUG-CC-PVTZ
  Basis Set: (AUG-CC-PVTZ AUX)
    Blend: AUG-CC-PVTZ-JKFIT

    Orbital Energies [Eh]
    ---------------------

    Doubly Occupied:

       1A    -20.556314     2A    -11.271141     3A    -11.216055
       4A    -11.214605     5A    -11.212703     6A    -11.210034
       7A    -11.194507     8A     -1.352956     9A     -1.122454
      10A     -0.996761    11A     -0.961784    12A     -0.875143
      13A     -0.780745    14A     -0.756517    15A     -0.689031
      16A     -0.657476    17A     -0.634594    18A     -0.620110
      19A     -0.570555    20A     -0.562024    21A     -0.524193
      22A     -0.479215    23A     -0.470083    24A     -0.463564
      25A     -0.460504    26A     -0.457004    27A     -0.449058
      28A     -0.431810

  @DF-RHF Final Energy:  -309.15619610075152

   => Energetics <=

    Nuclear Repulsion Energy =            325.4227432071573958
    One-Electron Energy =               -1064.7760012869159709
    Two-Electron Energy =                 430.1970619790070600
    Total Energy =                       -309.1561961007515151
  Basis Set: (AUG-CC-PVTZ AUX)
    Blend: AUG-CC-PVTZ-RI
    Molecular point group: c1

    Geometry (in Angstrom), charge = 0, multiplicity = 1:

       Center              X                  Y                   Z               Mass
    ------------   -----------------  -----------------  -----------------  -----------------
         O           -2.532935076345    -0.444227191963    -0.019529221964    15.994914619570
         C           -0.289318076345     0.213233808037    -0.434666221964    12.000000000000
         C            0.833804923655     1.260701808037    -0.202150221964    12.000000000000
         C            0.280763923655    -1.118243191963     0.081674778036    12.000000000000
         C            2.033907923655     0.475192808037     0.363795778036    12.000000000000
         C            1.790618923655    -0.962644191963    -0.100157221964    12.000000000000
         C           -1.590735076345     0.598878808037     0.235655778036    12.000000000000
         H           -0.490157076345     0.117536808037    -1.508758221964     1.007825032230
         H            0.513630923655     2.056583808037     0.481189778036     1.007825032230
         H            1.099932923655     1.748134808037    -1.145540221964     1.007825032230
         H           -0.108365876345    -1.902606991963    -0.386891021964     1.007825032230
         H            0.048672923655    -1.229326191963     1.149492778036     1.007825032230
         H            2.019424923655     0.505772808037     1.459722778036     1.007825032230
         H            2.996985923655     0.883625808037     0.041195778036     1.007825032230
         H            2.052081923655    -1.064879191963    -1.160978221964     1.007825032230
         H            2.375776923655    -1.701566191963     0.457301778036     1.007825032230
         H           -1.951441076345     1.562485808037    -0.156061221964     1.007825032230
         H           -1.417280076345     0.720987808037     1.317171778036     1.007825032230
         H           -3.363240076345    -0.208457191963     0.427061778036     1.007825032230

  Basis Set: AUG-CC-PVTZ
    Blend: AUG-CC-PVTZ
  Basis Set: (AUG-CC-PVTZ AUX)
    Blend: AUG-CC-PVTZ-JKFIT
	 Reference Energy          =    -309.1561961007515151 [Eh]
	 Singles Energy            =      -0.0000000000000000 [Eh]
	 Same-Spin Energy          =      -0.3223367998026627 [Eh]
	 Opposite-Spin Energy      =      -1.1089118694250981 [Eh]
	 Correlation Energy        =      -1.4312486692277608 [Eh]
	 Total Energy              =    -310.5874447699792995 [Eh]

	 ================> DF-SCS-MP2 Energies <==================
	-----------------------------------------------------------
	 SCS Same-Spin Scale       =       0.3333333333333333 [-]
	 SCS Opposite-Spin Scale   =       1.2000000000000000 [-]
	 SCS Same-Spin Energy      =      -0.1074455999342209 [Eh]
	 SCS Opposite-Spin Energy  =      -1.3306942433101177 [Eh]
	 SCS Correlation Energy    =      -1.4381398432443386 [Eh]
	 SCS Total Energy          =    -310.5943359439958726 [Eh]
	-----------------------------------------------------------

  Dipole Moment: [D]
     X:    -0.2170      Y:     1.1226      Z:     0.7373     Total:     1.3605

*** Psi4 exiting successfully. Buy a developer a beer!
