                               Psi4 1.4a3.dev225

  ==> Input File <==

--------------------------------------------------------------------------
#psi4
#
memory 32 gb

molecule  {
0 1
  O       -2.5655710    -0.4559810    -0.0273220
  C       -0.3241464     0.0708306    -0.3528224
  C        0.8011690     1.2489480    -0.2099430
  C        0.2481280    -1.1299970     0.0738820
  C        2.0012720     0.4634390     0.3560030
  C        1.7579830    -0.9743980    -0.1079500
  C       -1.6233710     0.5871250     0.2278630
  H       -0.5227930     0.1057830    -1.5165510
  H        0.4809950     2.0448300     0.4733970
  H        1.0672970     1.7363810    -1.1533330
  H       -0.1801860    -1.9933440    -0.4418670
  H        0.0160370    -1.2410800     1.1417000
  H        1.9867890     0.4940190     1.4519300
  H        2.9643500     0.8718720     0.0334030
  H        2.0194460    -1.0766330    -1.1687710
  H        2.3431410    -1.7133200     0.4495090
  H       -1.9840770     1.5507320    -0.1638540
  H       -1.4499160     0.7092340     1.3093790
  H       -3.3958760    -0.2202110     0.4192690
units angstrom
no_reorient  #important for SAPT in psi4, default
symmetry c1  #important for SAPT in psi4, default
}

set PROPERTIES_ORIGIN ["COM"]
properties('MP2/aug-cc-pvtz', properties = ['dipole'])
--------------------------------------------------------------------------

    Molecular point group: c1
  Charge       = 0
  Multiplicity = 1
  Basis Set: AUG-CC-PVTZ
    Blend: AUG-CC-PVTZ
  Basis Set: (AUG-CC-PVTZ AUX)
    Blend: AUG-CC-PVTZ-JKFIT

    Orbital Energies [Eh]
    ---------------------

    Doubly Occupied:

       1A    -20.555050     2A    -11.273338     3A    -11.221888
       4A    -11.217516     5A    -11.213433     6A    -11.212505
       7A    -11.202009     8A     -1.353430     9A     -1.132178
      10A     -0.998655    11A     -0.962221    12A     -0.877393
      13A     -0.781503    14A     -0.745010    15A     -0.690705
      16A     -0.652415    17A     -0.635012    18A     -0.625056
      19A     -0.569153    20A     -0.555725    21A     -0.531914
      22A     -0.496565    23A     -0.472087    24A     -0.468432
      25A     -0.459480    26A     -0.449074    27A     -0.433536
      28A     -0.414694

  @DF-RHF Final Energy:  -309.13465369897733

   => Energetics <=

    Nuclear Repulsion Energy =            325.9270562559678410
    One-Electron Energy =               -1065.7234698806123561
    Two-Electron Energy =                 430.6617599256671838
    Total Energy =                       -309.1346536989773313
  Basis Set: (AUG-CC-PVTZ AUX)
    Blend: AUG-CC-PVTZ-RI
    Molecular point group: c1

    Geometry (in Angstrom), charge = 0, multiplicity = 1:

       Center              X                  Y                   Z               Mass
    ------------   -----------------  -----------------  -----------------  -----------------
         O           -2.532277664050    -0.427767869850    -0.029800967013    15.994914619570
         C           -0.290853064050     0.099043730150    -0.355301367013    12.000000000000
         C            0.834462335950     1.277161130150    -0.212421967013    12.000000000000
         C            0.281421335950    -1.101783869850     0.071403032987    12.000000000000
         C            2.034565335950     0.491652130150     0.353524032987    12.000000000000
         C            1.791276335950    -0.946184869850    -0.110428967013    12.000000000000
         C           -1.590077664050     0.615338130150     0.225384032987    12.000000000000
         H           -0.489499664050     0.133996130150    -1.519029967013     1.007825032230
         H            0.514288335950     2.073043130150     0.470918032987     1.007825032230
         H            1.100590335950     1.764594130150    -1.155811967013     1.007825032230
         H           -0.146892664050    -1.965130869850    -0.444345967013     1.007825032230
         H            0.049330335950    -1.212866869850     1.139221032987     1.007825032230
         H            2.020082335950     0.522232130150     1.449451032987     1.007825032230
         H            2.997643335950     0.900085130150     0.030924032987     1.007825032230
         H            2.052739335950    -1.048419869850    -1.171249967013     1.007825032230
         H            2.376434335950    -1.685106869850     0.447030032987     1.007825032230
         H           -1.950783664050     1.578945130150    -0.166332967013     1.007825032230
         H           -1.416622664050     0.737447130150     1.306900032987     1.007825032230
         H           -3.362582664050    -0.191997869850     0.416790032987     1.007825032230

  Basis Set: AUG-CC-PVTZ
    Blend: AUG-CC-PVTZ
  Basis Set: (AUG-CC-PVTZ AUX)
    Blend: AUG-CC-PVTZ-JKFIT
	 Reference Energy          =    -309.1346536989773313 [Eh]
	 Singles Energy            =      -0.0000000000000000 [Eh]
	 Same-Spin Energy          =      -0.3240256123306604 [Eh]
	 Opposite-Spin Energy      =      -1.1119322272098926 [Eh]
	 Correlation Energy        =      -1.4359578395405530 [Eh]
	 Total Energy              =    -310.5706115385178805 [Eh]

	 ================> DF-SCS-MP2 Energies <==================
	-----------------------------------------------------------
	 SCS Same-Spin Scale       =       0.3333333333333333 [-]
	 SCS Opposite-Spin Scale   =       1.2000000000000000 [-]
	 SCS Same-Spin Energy      =      -0.1080085374435535 [Eh]
	 SCS Opposite-Spin Energy  =      -1.3343186726518710 [Eh]
	 SCS Correlation Energy    =      -1.4423272100954245 [Eh]
	 SCS Total Energy          =    -310.5769809090727449 [Eh]
	-----------------------------------------------------------

  Dipole Moment: [D]
     X:    -0.1806      Y:     1.1441      Z:     0.8019     Total:     1.4088

*** Psi4 exiting successfully. Buy a developer a beer!
