                               Psi4 1.4a3.dev225

  ==> Input File <==

--------------------------------------------------------------------------
#psi4
#
memory 32 gb

molecule  {
0 1
  O       -2.5655710    -0.4559810    -0.0273220
  C       -0.3219540     0.2014800    -0.4424590
  C        0.8011690     1.2489480    -0.2099430
  C        0.2481280    -1.1299970     0.0738820
  C        2.0012720     0.4634390     0.3560030
  C        1.7579830    -0.9743980    -0.1079500
  C       -1.6233710     0.5871250     0.2278630
  H       -0.5227930     0.1057830    -1.5165510
  H        0.4809950     2.0448300     0.4733970
  H        1.0672970     1.7363810    -1.1533330
  H       -0.1801860    -1.9933440    -0.4418670
  H        0.0160370    -1.2410800     1.1417000
  H        1.9870532     0.4934612     1.4319395
  H        2.9643500     0.8718720     0.0334030
  H        2.0194460    -1.0766330    -1.1687710
  H        2.3431410    -1.7133200     0.4495090
  H       -1.9840770     1.5507320    -0.1638540
  H       -1.4499160     0.7092340     1.3093790
  H       -3.3958760    -0.2202110     0.4192690
units angstrom
no_reorient  #important for SAPT in psi4, default
symmetry c1  #important for SAPT in psi4, default
}

set PROPERTIES_ORIGIN ["COM"]
properties('MP2/aug-cc-pvtz', properties = ['dipole'])
--------------------------------------------------------------------------

    Molecular point group: c1
  Charge       = 0
  Multiplicity = 1
  Basis Set: AUG-CC-PVTZ
    Blend: AUG-CC-PVTZ
  Basis Set: (AUG-CC-PVTZ AUX)
    Blend: AUG-CC-PVTZ-JKFIT

    Orbital Energies [Eh]
    ---------------------

    Doubly Occupied:

       1A    -20.556124     2A    -11.271368     3A    -11.216735
       4A    -11.215056     5A    -11.211053     6A    -11.210418
       7A    -11.206855     8A     -1.352801     9A     -1.122072
      10A     -0.997614    11A     -0.956786    12A     -0.873973
      13A     -0.779731    14A     -0.754198    15A     -0.687593
      16A     -0.650056    17A     -0.635770    18A     -0.619545
      19A     -0.569254    20A     -0.562891    21A     -0.523699
      22A     -0.473892    23A     -0.470097    24A     -0.462334
      25A     -0.459712    26A     -0.458731    27A     -0.448685
      28A     -0.432231

  @DF-RHF Final Energy:  -309.16207951646578

   => Energetics <=

    Nuclear Repulsion Energy =            324.9962097871233482
    One-Electron Energy =               -1063.9580266879972896
    Two-Electron Energy =                 429.7997373844081608
    Total Energy =                       -309.1620795164657807
  Basis Set: (AUG-CC-PVTZ AUX)
    Blend: AUG-CC-PVTZ-RI
    Molecular point group: c1

    Geometry (in Angstrom), charge = 0, multiplicity = 1:

       Center              X                  Y                   Z               Mass
    ------------   -----------------  -----------------  -----------------  -----------------
         O           -2.532543178907    -0.443426269194    -0.018852829339    15.994914619570
         C           -0.288926178907     0.214034730806    -0.433989829339    12.000000000000
         C            0.834196821093     1.261502730806    -0.201473829339    12.000000000000
         C            0.281155821093    -1.117442269194     0.082351170661    12.000000000000
         C            2.034299821093     0.475993730806     0.364472170661    12.000000000000
         C            1.791010821093    -0.961843269194    -0.099480829339    12.000000000000
         C           -1.590343178907     0.599679730806     0.236332170661    12.000000000000
         H           -0.489765178907     0.118337730806    -1.508081829339     1.007825032230
         H            0.514022821093     2.057384730806     0.481866170661     1.007825032230
         H            1.100324821093     1.748935730806    -1.144863829339     1.007825032230
         H           -0.147158178907    -1.980789269194    -0.433397829339     1.007825032230
         H            0.049064821093    -1.228525269194     1.150169170661     1.007825032230
         H            2.020081021093     0.506015930806     1.440408670661     1.007825032230
         H            2.997377821093     0.884426730806     0.041872170661     1.007825032230
         H            2.052473821093    -1.064078269194    -1.160301829339     1.007825032230
         H            2.376168821093    -1.700765269194     0.457978170661     1.007825032230
         H           -1.951049178907     1.563286730806    -0.155384829339     1.007825032230
         H           -1.416888178907     0.721788730806     1.317848170661     1.007825032230
         H           -3.362848178907    -0.207656269194     0.427738170661     1.007825032230

  Basis Set: AUG-CC-PVTZ
    Blend: AUG-CC-PVTZ
  Basis Set: (AUG-CC-PVTZ AUX)
    Blend: AUG-CC-PVTZ-JKFIT
	 Reference Energy          =    -309.1620795164657807 [Eh]
	 Singles Energy            =      -0.0000000000000000 [Eh]
	 Same-Spin Energy          =      -0.3223765752601187 [Eh]
	 Opposite-Spin Energy      =      -1.1093496807140364 [Eh]
	 Correlation Energy        =      -1.4317262559741550 [Eh]
	 Total Energy              =    -310.5938057724399641 [Eh]

	 ================> DF-SCS-MP2 Energies <==================
	-----------------------------------------------------------
	 SCS Same-Spin Scale       =       0.3333333333333333 [-]
	 SCS Opposite-Spin Scale   =       1.2000000000000000 [-]
	 SCS Same-Spin Energy      =      -0.1074588584200396 [Eh]
	 SCS Opposite-Spin Energy  =      -1.3312196168568435 [Eh]
	 SCS Correlation Energy    =      -1.4386784752768831 [Eh]
	 SCS Total Energy          =    -310.6007579917426824 [Eh]
	-----------------------------------------------------------

  Dipole Moment: [D]
     X:    -0.1923      Y:     1.1726      Z:     0.7604     Total:     1.4107

*** Psi4 exiting successfully. Buy a developer a beer!
