                               Psi4 1.4a3.dev225

  ==> Input File <==

--------------------------------------------------------------------------
#psi4
#
memory 32 gb

molecule  {
0 1
  O       -2.5655710    -0.4559810    -0.0273220
  C       -0.3219540     0.2014800    -0.4424590
  C        0.9457827     1.3838203    -0.1800042
  C        0.2481280    -1.1299970     0.0738820
  C        2.0012720     0.4634390     0.3560030
  C        1.7579830    -0.9743980    -0.1079500
  C       -1.6233710     0.5871250     0.2278630
  H       -0.5227930     0.1057830    -1.5165510
  H        0.4809950     2.0448300     0.4733970
  H        1.0672970     1.7363810    -1.1533330
  H       -0.1801860    -1.9933440    -0.4418670
  H        0.0160370    -1.2410800     1.1417000
  H        1.9867890     0.4940190     1.4519300
  H        2.9643500     0.8718720     0.0334030
  H        2.0194460    -1.0766330    -1.1687710
  H        2.3431410    -1.7133200     0.4495090
  H       -1.9840770     1.5507320    -0.1638540
  H       -1.4499160     0.7092340     1.3093790
  H       -3.3958760    -0.2202110     0.4192690
units angstrom
no_reorient  #important for SAPT in psi4, default
symmetry c1  #important for SAPT in psi4, default
}

set PROPERTIES_ORIGIN ["COM"]
properties('MP2/aug-cc-pvtz', properties = ['dipole'])
--------------------------------------------------------------------------

    Molecular point group: c1
  Charge       = 0
  Multiplicity = 1
  Basis Set: AUG-CC-PVTZ
    Blend: AUG-CC-PVTZ
  Basis Set: (AUG-CC-PVTZ AUX)
    Blend: AUG-CC-PVTZ-JKFIT

    Orbital Energies [Eh]
    ---------------------

    Doubly Occupied:

       1A    -20.555263     2A    -11.270263     3A    -11.222314
       4A    -11.215257     5A    -11.213597     6A    -11.212670
       7A    -11.206769     8A     -1.351814     9A     -1.110710
      10A     -0.992752    11A     -0.964857    12A     -0.869562
      13A     -0.779980    14A     -0.755544    15A     -0.685442
      16A     -0.648171    17A     -0.635284    18A     -0.617000
      19A     -0.584914    20A     -0.561752    21A     -0.524314
      22A     -0.498044    23A     -0.471050    24A     -0.467065
      25A     -0.461685    26A     -0.451642    27A     -0.432448
      28A     -0.399997

  @DF-RHF Final Energy:  -309.13539929335263

   => Energetics <=

    Nuclear Repulsion Energy =            322.4026033940973548
    One-Electron Energy =               -1058.7556894219544574
    Two-Electron Energy =                 427.2176867345044684
    Total Energy =                       -309.1353992933526342
  Basis Set: (AUG-CC-PVTZ AUX)
    Blend: AUG-CC-PVTZ-RI
    Molecular point group: c1

    Geometry (in Angstrom), charge = 0, multiplicity = 1:

       Center              X                  Y                   Z               Mass
    ------------   -----------------  -----------------  -----------------  -----------------
         O           -2.549878763632    -0.459602200188    -0.022643587839    15.994914619570
         C           -0.306261763632     0.197858799812    -0.437780587839    12.000000000000
         C            0.961474936368     1.380199099812    -0.175325787839    12.000000000000
         C            0.263820236368    -1.133618200188     0.078560412161    12.000000000000
         C            2.016964236368     0.459817799812     0.360681412161    12.000000000000
         C            1.773675236368    -0.978019200188    -0.103271587839    12.000000000000
         C           -1.607678763632     0.583503799812     0.232541412161    12.000000000000
         H           -0.507100763632     0.102161799812    -1.511872587839     1.007825032230
         H            0.496687236368     2.041208799812     0.478075412161     1.007825032230
         H            1.082989236368     1.732759799812    -1.148654587839     1.007825032230
         H           -0.164493763632    -1.996965200188    -0.437188587839     1.007825032230
         H            0.031729236368    -1.244701200188     1.146378412161     1.007825032230
         H            2.002481236368     0.490397799812     1.456608412161     1.007825032230
         H            2.980042236368     0.868250799812     0.038081412161     1.007825032230
         H            2.035138236368    -1.080254200188    -1.164092587839     1.007825032230
         H            2.358833236368    -1.716941200188     0.454187412161     1.007825032230
         H           -1.968384763632     1.547110799812    -0.159175587839     1.007825032230
         H           -1.434223763632     0.705612799812     1.314057412161     1.007825032230
         H           -3.380183763632    -0.223832200188     0.423947412161     1.007825032230

  Basis Set: AUG-CC-PVTZ
    Blend: AUG-CC-PVTZ
  Basis Set: (AUG-CC-PVTZ AUX)
    Blend: AUG-CC-PVTZ-JKFIT
	 Reference Energy          =    -309.1353992933526342 [Eh]
	 Singles Energy            =      -0.0000000000000000 [Eh]
	 Same-Spin Energy          =      -0.3230134161266401 [Eh]
	 Opposite-Spin Energy      =      -1.1113269475015799 [Eh]
	 Correlation Energy        =      -1.4343403636282201 [Eh]
	 Total Energy              =    -310.5697396569808575 [Eh]

	 ================> DF-SCS-MP2 Energies <==================
	-----------------------------------------------------------
	 SCS Same-Spin Scale       =       0.3333333333333333 [-]
	 SCS Opposite-Spin Scale   =       1.2000000000000000 [-]
	 SCS Same-Spin Energy      =      -0.1076711387088800 [Eh]
	 SCS Opposite-Spin Energy  =      -1.3335923370018958 [Eh]
	 SCS Correlation Energy    =      -1.4412634757107758 [Eh]
	 SCS Total Energy          =    -310.5766627690634323 [Eh]
	-----------------------------------------------------------

  Dipole Moment: [D]
     X:    -0.2003      Y:     1.1433      Z:     0.7456     Total:     1.3796

*** Psi4 exiting successfully. Buy a developer a beer!
