                               Psi4 1.4a3.dev225

  ==> Input File <==

--------------------------------------------------------------------------
#psi4
#
memory 32 gb

molecule  {
0 1
  O       -2.5655710    -0.4559810    -0.0273220
  C       -0.3219540     0.2014800    -0.4424590
  C        0.8011690     1.2489480    -0.2099430
  C        0.2481280    -1.1299970     0.0738820
  C        1.9844804     0.4495518     0.4047711
  C        1.7579830    -0.9743980    -0.1079500
  C       -1.6233710     0.5871250     0.2278630
  H       -0.5227930     0.1057830    -1.5165510
  H        0.4809950     2.0448300     0.4733970
  H        1.0672970     1.7363810    -1.1533330
  H       -0.1801860    -1.9933440    -0.4418670
  H        0.0160370    -1.2410800     1.1417000
  H        1.9867890     0.4940190     1.4519300
  H        2.9643500     0.8718720     0.0334030
  H        2.0194460    -1.0766330    -1.1687710
  H        2.3431410    -1.7133200     0.4495090
  H       -1.9840770     1.5507320    -0.1638540
  H       -1.4499160     0.7092340     1.3093790
  H       -3.3958760    -0.2202110     0.4192690
units angstrom
no_reorient  #important for SAPT in psi4, default
symmetry c1  #important for SAPT in psi4, default
}

set PROPERTIES_ORIGIN ["COM"]
properties('MP2/aug-cc-pvtz', properties = ['dipole'])
--------------------------------------------------------------------------

    Molecular point group: c1
  Charge       = 0
  Multiplicity = 1
  Basis Set: AUG-CC-PVTZ
    Blend: AUG-CC-PVTZ
  Basis Set: (AUG-CC-PVTZ AUX)
    Blend: AUG-CC-PVTZ-JKFIT

    Orbital Energies [Eh]
    ---------------------

    Doubly Occupied:

       1A    -20.555941     2A    -11.271219     3A    -11.216412
       4A    -11.215719     5A    -11.213040     6A    -11.210937
       7A    -11.206585     8A     -1.352637     9A     -1.121643
      10A     -0.997288    11A     -0.955012    12A     -0.873764
      13A     -0.781596    14A     -0.753475    15A     -0.687455
      16A     -0.647969    17A     -0.636765    18A     -0.617166
      19A     -0.570760    20A     -0.565005    21A     -0.523633
      22A     -0.473707    23A     -0.468135    24A     -0.466155
      25A     -0.456993    26A     -0.454611    27A     -0.449188
      28A     -0.432598

  @DF-RHF Final Energy:  -309.15879367345900

   => Energetics <=

    Nuclear Repulsion Energy =            324.9318008495096706
    One-Electron Energy =               -1063.8303742690477520
    Two-Electron Energy =                 429.7397797460790230
    Total Energy =                       -309.1587936734590016
  Basis Set: (AUG-CC-PVTZ AUX)
    Blend: AUG-CC-PVTZ-RI
    Molecular point group: c1

    Geometry (in Angstrom), charge = 0, multiplicity = 1:

       Center              X                  Y                   Z               Mass
    ------------   -----------------  -----------------  -----------------  -----------------
         O           -2.530527314623    -0.441766900610    -0.024901098831    15.994914619570
         C           -0.286910314623     0.215694099390    -0.440038098831    12.000000000000
         C            0.836212685377     1.263162099390    -0.207522098831    12.000000000000
         C            0.283171685377    -1.115782900610     0.076302901169    12.000000000000
         C            2.019524085377     0.463765899390     0.407192001169    12.000000000000
         C            1.793026685377    -0.960183900610    -0.105529098831    12.000000000000
         C           -1.588327314623     0.601339099390     0.230283901169    12.000000000000
         H           -0.487749314623     0.119997099390    -1.514130098831     1.007825032230
         H            0.516038685377     2.059044099390     0.475817901169     1.007825032230
         H            1.102340685377     1.750595099390    -1.150912098831     1.007825032230
         H           -0.145142314623    -1.979129900610    -0.439446098831     1.007825032230
         H            0.051080685377    -1.226865900610     1.144120901169     1.007825032230
         H            2.021832685377     0.508233099390     1.454350901169     1.007825032230
         H            2.999393685377     0.886086099390     0.035823901169     1.007825032230
         H            2.054489685377    -1.062418900610    -1.166350098831     1.007825032230
         H            2.378184685377    -1.699105900610     0.451929901169     1.007825032230
         H           -1.949033314623     1.564946099390    -0.161433098831     1.007825032230
         H           -1.414872314623     0.723448099390     1.311799901169     1.007825032230
         H           -3.360832314623    -0.205996900610     0.421689901169     1.007825032230

  Basis Set: AUG-CC-PVTZ
    Blend: AUG-CC-PVTZ
  Basis Set: (AUG-CC-PVTZ AUX)
    Blend: AUG-CC-PVTZ-JKFIT
	 Reference Energy          =    -309.1587936734590016 [Eh]
	 Singles Energy            =      -0.0000000000000000 [Eh]
	 Same-Spin Energy          =      -0.3224154347886017 [Eh]
	 Opposite-Spin Energy      =      -1.1095867329614970 [Eh]
	 Correlation Energy        =      -1.4320021677500987 [Eh]
	 Total Energy              =    -310.5907958412091148 [Eh]

	 ================> DF-SCS-MP2 Energies <==================
	-----------------------------------------------------------
	 SCS Same-Spin Scale       =       0.3333333333333333 [-]
	 SCS Opposite-Spin Scale   =       1.2000000000000000 [-]
	 SCS Same-Spin Energy      =      -0.1074718115962006 [Eh]
	 SCS Opposite-Spin Energy  =      -1.3315040795537965 [Eh]
	 SCS Correlation Energy    =      -1.4389758911499970 [Eh]
	 SCS Total Energy          =    -310.5977695646089956 [Eh]
	-----------------------------------------------------------

  Dipole Moment: [D]
     X:    -0.2033      Y:     1.1633      Z:     0.7717     Total:     1.4107

*** Psi4 exiting successfully. Buy a developer a beer!
