                               Psi4 1.4a3.dev225

  ==> Input File <==

--------------------------------------------------------------------------
#psi4
#
memory 32 gb

molecule  {
0 1
  O       -2.5655710    -0.4559810    -0.0273220
  C       -0.3219540     0.2014800    -0.4424590
  C        0.8011690     1.2489480    -0.2099430
  C        0.2481280    -1.1299970     0.0738820
  C        1.9500900     0.4165920     0.5003747
  C        1.7579830    -0.9743980    -0.1079500
  C       -1.6233710     0.5871250     0.2278630
  H       -0.5227930     0.1057830    -1.5165510
  H        0.4809950     2.0448300     0.4733970
  H        1.0672970     1.7363810    -1.1533330
  H       -0.1801860    -1.9933440    -0.4418670
  H        0.0160370    -1.2410800     1.1417000
  H        1.9867890     0.4940190     1.4519300
  H        2.9643500     0.8718720     0.0334030
  H        2.0194460    -1.0766330    -1.1687710
  H        2.3431410    -1.7133200     0.4495090
  H       -1.9840770     1.5507320    -0.1638540
  H       -1.4499160     0.7092340     1.3093790
  H       -3.3958760    -0.2202110     0.4192690
units angstrom
no_reorient  #important for SAPT in psi4, default
symmetry c1  #important for SAPT in psi4, default
}

set PROPERTIES_ORIGIN ["COM"]
properties('MP2/aug-cc-pvtz', properties = ['dipole'])
--------------------------------------------------------------------------

    Molecular point group: c1
  Charge       = 0
  Multiplicity = 1
  Basis Set: AUG-CC-PVTZ
    Blend: AUG-CC-PVTZ
  Basis Set: (AUG-CC-PVTZ AUX)
    Blend: AUG-CC-PVTZ-JKFIT

    Orbital Energies [Eh]
    ---------------------

    Doubly Occupied:

       1A    -20.555759     2A    -11.271142     3A    -11.218331
       4A    -11.215705     5A    -11.214674     6A    -11.212620
       7A    -11.206440     8A     -1.352496     9A     -1.121653
      10A     -0.998372    11A     -0.952651    12A     -0.875173
      13A     -0.793048    14A     -0.752741    15A     -0.687268
      16A     -0.647943    17A     -0.638645    18A     -0.612800
      19A     -0.575115    20A     -0.570080    21A     -0.524485
      22A     -0.488702    23A     -0.470723    24A     -0.465522
      25A     -0.451382    26A     -0.446379    27A     -0.433647
      28A     -0.432210

  @DF-RHF Final Energy:  -309.13049473947473

   => Energetics <=

    Nuclear Repulsion Energy =            324.9750559395537834
    One-Electron Energy =               -1063.8396872539119613
    Two-Electron Energy =                 429.7341365748833937
    Total Energy =                       -309.1304947394747273
  Basis Set: (AUG-CC-PVTZ AUX)
    Blend: AUG-CC-PVTZ-RI
    Molecular point group: c1

    Geometry (in Angstrom), charge = 0, multiplicity = 1:

       Center              X                  Y                   Z               Mass
    ------------   -----------------  -----------------  -----------------  -----------------
         O           -2.526404128631    -0.437815234283    -0.036363350631    15.994914619570
         C           -0.282787128631     0.219645765717    -0.451500350631    12.000000000000
         C            0.840335871369     1.267113765717    -0.218984350631    12.000000000000
         C            0.287294871369    -1.111831234283     0.064840649369    12.000000000000
         C            1.989256871369     0.434757765717     0.491333349369    12.000000000000
         C            1.797149871369    -0.956232234283    -0.116991350631    12.000000000000
         C           -1.584204128631     0.605290765717     0.218821649369    12.000000000000
         H           -0.483626128631     0.123948765717    -1.525592350631     1.007825032230
         H            0.520161871369     2.062995765717     0.464355649369     1.007825032230
         H            1.106463871369     1.754546765717    -1.162374350631     1.007825032230
         H           -0.141019128631    -1.975178234283    -0.450908350631     1.007825032230
         H            0.055203871369    -1.222914234283     1.132658649369     1.007825032230
         H            2.025955871369     0.512184765717     1.442888649369     1.007825032230
         H            3.003516871369     0.890037765717     0.024361649369     1.007825032230
         H            2.058612871369    -1.058467234283    -1.177812350631     1.007825032230
         H            2.382307871369    -1.695154234283     0.440467649369     1.007825032230
         H           -1.944910128631     1.568897765717    -0.172895350631     1.007825032230
         H           -1.410749128631     0.727399765717     1.300337649369     1.007825032230
         H           -3.356709128631    -0.202045234283     0.410227649369     1.007825032230

  Basis Set: AUG-CC-PVTZ
    Blend: AUG-CC-PVTZ
  Basis Set: (AUG-CC-PVTZ AUX)
    Blend: AUG-CC-PVTZ-JKFIT
	 Reference Energy          =    -309.1304947394747273 [Eh]
	 Singles Energy            =      -0.0000000000000000 [Eh]
	 Same-Spin Energy          =      -0.3228044478202430 [Eh]
	 Opposite-Spin Energy      =      -1.1108439526148004 [Eh]
	 Correlation Energy        =      -1.4336484004350434 [Eh]
	 Total Energy              =    -310.5641431399097883 [Eh]

	 ================> DF-SCS-MP2 Energies <==================
	-----------------------------------------------------------
	 SCS Same-Spin Scale       =       0.3333333333333333 [-]
	 SCS Opposite-Spin Scale   =       1.2000000000000000 [-]
	 SCS Same-Spin Energy      =      -0.1076014826067477 [Eh]
	 SCS Opposite-Spin Energy  =      -1.3330127431377605 [Eh]
	 SCS Correlation Energy    =      -1.4406142257445083 [Eh]
	 SCS Total Energy          =    -310.5711089652192527 [Eh]
	-----------------------------------------------------------

  Dipole Moment: [D]
     X:    -0.2465      Y:     1.1334      Z:     0.7923     Total:     1.4046

*** Psi4 exiting successfully. Buy a developer a beer!
