                               Psi4 1.4a3.dev225

  ==> Input File <==

--------------------------------------------------------------------------
#psi4
#
memory 32 gb

molecule  {
0 1
  O       -2.5655710    -0.4559810    -0.0273220
  C       -0.3219540     0.2014800    -0.4424590
  C        0.8011690     1.2489480    -0.2099430
  C        0.2481280    -1.1299970     0.0738820
  C        1.9857058     0.4736276     0.3486623
  C        1.7579830    -0.9743980    -0.1079500
  C       -1.6233710     0.5871250     0.2278630
  H       -0.5227930     0.1057830    -1.5165510
  H        0.4809950     2.0448300     0.4733970
  H        1.0672970     1.7363810    -1.1533330
  H       -0.1801860    -1.9933440    -0.4418670
  H        0.0160370    -1.2410800     1.1417000
  H        1.9867890     0.4940190     1.4519300
  H        2.9643500     0.8718720     0.0334030
  H        2.0194460    -1.0766330    -1.1687710
  H        2.3431410    -1.7133200     0.4495090
  H       -1.9840770     1.5507320    -0.1638540
  H       -1.4499160     0.7092340     1.3093790
  H       -3.3958760    -0.2202110     0.4192690
units angstrom
no_reorient  #important for SAPT in psi4, default
symmetry c1  #important for SAPT in psi4, default
}

set PROPERTIES_ORIGIN ["COM"]
properties('MP2/aug-cc-pvtz', properties = ['dipole'])
--------------------------------------------------------------------------

    Molecular point group: c1
  Charge       = 0
  Multiplicity = 1
  Basis Set: AUG-CC-PVTZ
    Blend: AUG-CC-PVTZ
  Basis Set: (AUG-CC-PVTZ AUX)
    Blend: AUG-CC-PVTZ-JKFIT

    Orbital Energies [Eh]
    ---------------------

    Doubly Occupied:

       1A    -20.556201     2A    -11.271483     3A    -11.216926
       4A    -11.214725     5A    -11.213853     6A    -11.210985
       7A    -11.206779     8A     -1.352881     9A     -1.123367
      10A     -0.996764    11A     -0.958762    12A     -0.873115
      13A     -0.777489    14A     -0.754231    15A     -0.687878
      16A     -0.650101    17A     -0.636005    18A     -0.619296
      19A     -0.569761    20A     -0.561148    21A     -0.523064
      22A     -0.478409    23A     -0.469238    24A     -0.463991
      25A     -0.457963    26A     -0.455711    27A     -0.448369
      28A     -0.432058

  @DF-RHF Final Energy:  -309.16151399713709

   => Energetics <=

    Nuclear Repulsion Energy =            325.1232926735417550
    One-Electron Energy =               -1064.2085093234927626
    Two-Electron Energy =                 429.9237026528139154
    Total Energy =                       -309.1615139971370922
  Basis Set: (AUG-CC-PVTZ AUX)
    Blend: AUG-CC-PVTZ-RI
    Molecular point group: c1

    Geometry (in Angstrom), charge = 0, multiplicity = 1:

       Center              X                  Y                   Z               Mass
    ------------   -----------------  -----------------  -----------------  -----------------
         O           -2.530674232138    -0.444653432936    -0.018174017489    15.994914619570
         C           -0.287057232138     0.212807567064    -0.433311017489    12.000000000000
         C            0.836065767862     1.260275567064    -0.200795017489    12.000000000000
         C            0.283024767862    -1.118669432936     0.083029982511    12.000000000000
         C            2.020602567862     0.484955167064     0.357810282511    12.000000000000
         C            1.792879767862    -0.963070432936    -0.098802017489    12.000000000000
         C           -1.588474232138     0.598452567064     0.237010982511    12.000000000000
         H           -0.487896232138     0.117110567064    -1.507403017489     1.007825032230
         H            0.515891767862     2.056157567064     0.482544982511     1.007825032230
         H            1.102193767862     1.747708567064    -1.144185017489     1.007825032230
         H           -0.145289232138    -1.982016432936    -0.432719017489     1.007825032230
         H            0.050933767862    -1.229752432936     1.150847982511     1.007825032230
         H            2.021685767862     0.505346567064     1.461077982511     1.007825032230
         H            2.999246767862     0.883199567064     0.042550982511     1.007825032230
         H            2.054342767862    -1.065305432936    -1.159623017489     1.007825032230
         H            2.378037767862    -1.701992432936     0.458656982511     1.007825032230
         H           -1.949180232138     1.562059567064    -0.154706017489     1.007825032230
         H           -1.415019232138     0.720561567064     1.318526982511     1.007825032230
         H           -3.360979232138    -0.208883432936     0.428416982511     1.007825032230

  Basis Set: AUG-CC-PVTZ
    Blend: AUG-CC-PVTZ
  Basis Set: (AUG-CC-PVTZ AUX)
    Blend: AUG-CC-PVTZ-JKFIT
	 Reference Energy          =    -309.1615139971370922 [Eh]
	 Singles Energy            =      -0.0000000000000000 [Eh]
	 Same-Spin Energy          =      -0.3224727839492315 [Eh]
	 Opposite-Spin Energy      =      -1.1095481975775969 [Eh]
	 Correlation Energy        =      -1.4320209815268283 [Eh]
	 Total Energy              =    -310.5935349786639108 [Eh]

	 ================> DF-SCS-MP2 Energies <==================
	-----------------------------------------------------------
	 SCS Same-Spin Scale       =       0.3333333333333333 [-]
	 SCS Opposite-Spin Scale   =       1.2000000000000000 [-]
	 SCS Same-Spin Energy      =      -0.1074909279830772 [Eh]
	 SCS Opposite-Spin Energy  =      -1.3314578370931163 [Eh]
	 SCS Correlation Energy    =      -1.4389487650761934 [Eh]
	 SCS Total Energy          =    -310.6004627622132830 [Eh]
	-----------------------------------------------------------

  Dipole Moment: [D]
     X:    -0.2022      Y:     1.1710      Z:     0.7439     Total:     1.4019

*** Psi4 exiting successfully. Buy a developer a beer!
