                               Psi4 1.4a3.dev225

  ==> Input File <==

--------------------------------------------------------------------------
#psi4
#
memory 32 gb

molecule  {
0 1
  O       -2.5655710    -0.4559810    -0.0273220
  C       -0.3219540     0.2014800    -0.4424590
  C        0.8011690     1.2489480    -0.2099430
  C        0.2481280    -1.1299970     0.0738820
  C        2.0012720     0.4634390     0.3560030
  C        1.7579830    -0.9743980    -0.1079500
  C       -1.6233710     0.5871250     0.2278630
  H       -0.5227930     0.1057830    -1.5165510
  H        0.4809950     2.0448300     0.4733970
  H        1.0672970     1.7363810    -1.1533330
  H       -0.1801860    -1.9933440    -0.4418670
  H        0.0160370    -1.2410800     1.1417000
  H        1.9867890     0.4940190     1.4519300
  H        2.9643500     0.8718720     0.0334030
  H        2.0194460    -1.0766330    -1.1687710
  H        2.3431410    -1.7133200     0.4495090
  H       -1.9840770     1.5507320    -0.1638540
  H       -1.4499160     0.7092340     1.3093790
  H       -3.4385950    -0.2080807     0.4422460
units angstrom
no_reorient  #important for SAPT in psi4, default
symmetry c1  #important for SAPT in psi4, default
}

set PROPERTIES_ORIGIN ["COM"]
properties('MP2/aug-cc-pvtz', properties = ['dipole'])
--------------------------------------------------------------------------

    Molecular point group: c1
  Charge       = 0
  Multiplicity = 1
  Basis Set: AUG-CC-PVTZ
    Blend: AUG-CC-PVTZ
  Basis Set: (AUG-CC-PVTZ AUX)
    Blend: AUG-CC-PVTZ-JKFIT

    Orbital Energies [Eh]
    ---------------------

    Doubly Occupied:

       1A    -20.560578     2A    -11.270883     3A    -11.216651
       4A    -11.215211     5A    -11.213313     6A    -11.210716
       7A    -11.206758     8A     -1.342803     9A     -1.121464
      10A     -0.995488    11A     -0.956411    12A     -0.871503
      13A     -0.777993    14A     -0.753873    15A     -0.678671
      16A     -0.648592    17A     -0.634515    18A     -0.618463
      19A     -0.568971    20A     -0.561067    21A     -0.521687
      22A     -0.473883    23A     -0.469604    24A     -0.461977
      25A     -0.459515    26A     -0.457198    27A     -0.447692
      28A     -0.431505

  @DF-RHF Final Energy:  -309.15689400709755

   => Energetics <=

    Nuclear Repulsion Energy =            324.6073301299786067
    One-Electron Energy =               -1063.2344730596855698
    Two-Electron Energy =                 429.4702489226093576
    Total Energy =                       -309.1568940070975486
  Basis Set: (AUG-CC-PVTZ AUX)
    Blend: AUG-CC-PVTZ-RI
    Molecular point group: c1

    Geometry (in Angstrom), charge = 0, multiplicity = 1:

       Center              X                  Y                   Z               Mass
    ------------   -----------------  -----------------  -----------------  -----------------
         O           -2.532110367858    -0.443554029572    -0.019285482299    15.994914619570
         C           -0.288493367858     0.213906970428    -0.434422482299    12.000000000000
         C            0.834629632142     1.261374970428    -0.201906482299    12.000000000000
         C            0.281588632142    -1.117570029572     0.081918517701    12.000000000000
         C            2.034732632142     0.475865970428     0.364039517701    12.000000000000
         C            1.791443632142    -0.961971029572    -0.099913482299    12.000000000000
         C           -1.589910367858     0.599551970428     0.235899517701    12.000000000000
         H           -0.489332367858     0.118209970428    -1.508514482299     1.007825032230
         H            0.514455632142     2.057256970428     0.481433517701     1.007825032230
         H            1.100757632142     1.748807970428    -1.145296482299     1.007825032230
         H           -0.146725367858    -1.980917029572    -0.433830482299     1.007825032230
         H            0.049497632142    -1.228653029572     1.149736517701     1.007825032230
         H            2.020249632142     0.506445970428     1.459966517701     1.007825032230
         H            2.997810632142     0.884298970428     0.041439517701     1.007825032230
         H            2.052906632142    -1.064206029572    -1.160734482299     1.007825032230
         H            2.376601632142    -1.700893029572     0.457545517701     1.007825032230
         H           -1.950616367858     1.563158970428    -0.155817482299     1.007825032230
         H           -1.416455367858     0.721660970428     1.317415517701     1.007825032230
         H           -3.405134367858    -0.195653729572     0.450282517701     1.007825032230

  Basis Set: AUG-CC-PVTZ
    Blend: AUG-CC-PVTZ
  Basis Set: (AUG-CC-PVTZ AUX)
    Blend: AUG-CC-PVTZ-JKFIT
	 Reference Energy          =    -309.1568940070975486 [Eh]
	 Singles Energy            =      -0.0000000000000000 [Eh]
	 Same-Spin Energy          =      -0.3229405940667491 [Eh]
	 Opposite-Spin Energy      =      -1.1110755521313098 [Eh]
	 Correlation Energy        =      -1.4340161461980589 [Eh]
	 Total Energy              =    -310.5909101532956242 [Eh]

	 ================> DF-SCS-MP2 Energies <==================
	-----------------------------------------------------------
	 SCS Same-Spin Scale       =       0.3333333333333333 [-]
	 SCS Opposite-Spin Scale   =       1.2000000000000000 [-]
	 SCS Same-Spin Energy      =      -0.1076468646889164 [Eh]
	 SCS Opposite-Spin Energy  =      -1.3332906625575718 [Eh]
	 SCS Correlation Energy    =      -1.4409375272464882 [Eh]
	 SCS Total Energy          =    -310.5978315343440386 [Eh]
	-----------------------------------------------------------

  Dipole Moment: [D]
     X:    -0.2288      Y:     1.1739      Z:     0.7616     Total:     1.4179

*** Psi4 exiting successfully. Buy a developer a beer!
