                               Psi4 1.4a3.dev225

  ==> Input File <==

--------------------------------------------------------------------------
#psi4
#
memory 32 gb

molecule  {
0 1
  O       -2.5655710    -0.4559810    -0.0273220
  C       -0.3123018     0.1958775    -0.4668655
  C        0.8011690     1.2489480    -0.2099430
  C        0.2481280    -1.1299970     0.0738820
  C        2.0012720     0.4634390     0.3560030
  C        1.7579830    -0.9743980    -0.1079500
  C       -1.6233710     0.5871250     0.2278630
  H       -0.5227930     0.1057830    -1.5165510
  H        0.4809950     2.0448300     0.4733970
  H        1.0672970     1.7363810    -1.1533330
  H       -0.1801860    -1.9933440    -0.4418670
  H        0.0160370    -1.2410800     1.1417000
  H        1.9867890     0.4940190     1.4519300
  H        2.9643500     0.8718720     0.0334030
  H        2.0194460    -1.0766330    -1.1687710
  H        2.3431410    -1.7133200     0.4495090
  H       -1.9840770     1.5507320    -0.1638540
  H       -1.4499160     0.7092340     1.3093790
  H       -3.3958760    -0.2202110     0.4192690
units angstrom
no_reorient  #important for SAPT in psi4, default
symmetry c1  #important for SAPT in psi4, default
}

set PROPERTIES_ORIGIN ["COM"]
properties('MP2/aug-cc-pvtz', properties = ['dipole'])
--------------------------------------------------------------------------

    Molecular point group: c1
  Charge       = 0
  Multiplicity = 1
  Basis Set: AUG-CC-PVTZ
    Blend: AUG-CC-PVTZ
  Basis Set: (AUG-CC-PVTZ AUX)
    Blend: AUG-CC-PVTZ-JKFIT

    Orbital Energies [Eh]
    ---------------------

    Doubly Occupied:

       1A    -20.555732     2A    -11.271839     3A    -11.216109
       4A    -11.214957     5A    -11.213155     6A    -11.210564
       7A    -11.206788     8A     -1.352183     9A     -1.121455
      10A     -0.994525    11A     -0.956382    12A     -0.872763
      13A     -0.778025    14A     -0.757089    15A     -0.686568
      16A     -0.650088    17A     -0.634474    18A     -0.618308
      19A     -0.569917    20A     -0.562454    21A     -0.523258
      22A     -0.474145    23A     -0.470537    24A     -0.461874
      25A     -0.460098    26A     -0.457311    27A     -0.446115
      28A     -0.433445

  @DF-RHF Final Energy:  -309.16144281627487

   => Energetics <=

    Nuclear Repulsion Energy =            324.7312993395420335
    One-Electron Energy =               -1063.4451663158965857
    Two-Electron Energy =                 429.5524241600796813
    Total Energy =                       -309.1614428162748709
  Basis Set: (AUG-CC-PVTZ AUX)
    Blend: AUG-CC-PVTZ-RI
    Molecular point group: c1

    Geometry (in Angstrom), charge = 0, multiplicity = 1:

       Center              X                  Y                   Z               Mass
    ------------   -----------------  -----------------  -----------------  -----------------
         O           -2.533697754796    -0.442760182427    -0.016127938713    15.994914619570
         C           -0.280428554796     0.209098317573    -0.455671438713    12.000000000000
         C            0.833042245204     1.262168817573    -0.198748938713    12.000000000000
         C            0.280001245204    -1.116776182427     0.085076061287    12.000000000000
         C            2.033145245204     0.476659817573     0.367197061287    12.000000000000
         C            1.789856245204    -0.961177182427    -0.096755938713    12.000000000000
         C           -1.591497754796     0.600345817573     0.239057061287    12.000000000000
         H           -0.490919754796     0.119003817573    -1.505356938713     1.007825032230
         H            0.512868245204     2.058050817573     0.484591061287     1.007825032230
         H            1.099170245204     1.749601817573    -1.142138938713     1.007825032230
         H           -0.148312754796    -1.980123182427    -0.430672938713     1.007825032230
         H            0.047910245204    -1.227859182427     1.152894061287     1.007825032230
         H            2.018662245204     0.507239817573     1.463124061287     1.007825032230
         H            2.996223245204     0.885092817573     0.044597061287     1.007825032230
         H            2.051319245204    -1.063412182427    -1.157576938713     1.007825032230
         H            2.375014245204    -1.700099182427     0.460703061287     1.007825032230
         H           -1.952203754796     1.563952817573    -0.152659938713     1.007825032230
         H           -1.418042754796     0.722454817573     1.320573061287     1.007825032230
         H           -3.364002754796    -0.206990182427     0.430463061287     1.007825032230

  Basis Set: AUG-CC-PVTZ
    Blend: AUG-CC-PVTZ
  Basis Set: (AUG-CC-PVTZ AUX)
    Blend: AUG-CC-PVTZ-JKFIT
	 Reference Energy          =    -309.1614428162748709 [Eh]
	 Singles Energy            =      -0.0000000000000000 [Eh]
	 Same-Spin Energy          =      -0.3222726289647210 [Eh]
	 Opposite-Spin Energy      =      -1.1093851702004476 [Eh]
	 Correlation Energy        =      -1.4316577991651687 [Eh]
	 Total Energy              =    -310.5931006154400507 [Eh]

	 ================> DF-SCS-MP2 Energies <==================
	-----------------------------------------------------------
	 SCS Same-Spin Scale       =       0.3333333333333333 [-]
	 SCS Opposite-Spin Scale   =       1.2000000000000000 [-]
	 SCS Same-Spin Energy      =      -0.1074242096549070 [Eh]
	 SCS Opposite-Spin Energy  =      -1.3312622042405371 [Eh]
	 SCS Correlation Energy    =      -1.4386864138954440 [Eh]
	 SCS Total Energy          =    -310.6001292301702961 [Eh]
	-----------------------------------------------------------

  Dipole Moment: [D]
     X:    -0.2050      Y:     1.1664      Z:     0.7362     Total:     1.3944

*** Psi4 exiting successfully. Buy a developer a beer!
