                               Psi4 1.4a3.dev225

  ==> Input File <==

--------------------------------------------------------------------------
#psi4
#
memory 32 gb

molecule  {
0 1
  O       -2.5655710    -0.4559810    -0.0273220
  C       -0.3219540     0.2014800    -0.4424590
  C        0.8011690     1.2489480    -0.2099430
  C        0.2481280    -1.1299970     0.0738820
  C        2.0012720     0.4634390     0.3560030
  C        1.7579830    -0.9743980    -0.1079500
  C       -1.6233710     0.5871250     0.2278630
  H       -0.5227930     0.1057830    -1.5165510
  H        0.4809950     2.0448300     0.4733970
  H        1.0551419     1.7141180    -1.1102446
  H       -0.1801860    -1.9933440    -0.4418670
  H        0.0160370    -1.2410800     1.1417000
  H        1.9867890     0.4940190     1.4519300
  H        2.9643500     0.8718720     0.0334030
  H        2.0194460    -1.0766330    -1.1687710
  H        2.3431410    -1.7133200     0.4495090
  H       -1.9840770     1.5507320    -0.1638540
  H       -1.4499160     0.7092340     1.3093790
  H       -3.3958760    -0.2202110     0.4192690
units angstrom
no_reorient  #important for SAPT in psi4, default
symmetry c1  #important for SAPT in psi4, default
}

set PROPERTIES_ORIGIN ["COM"]
properties('MP2/aug-cc-pvtz', properties = ['dipole'])
--------------------------------------------------------------------------

    Molecular point group: c1
  Charge       = 0
  Multiplicity = 1
  Basis Set: AUG-CC-PVTZ
    Blend: AUG-CC-PVTZ
  Basis Set: (AUG-CC-PVTZ AUX)
    Blend: AUG-CC-PVTZ-JKFIT

    Orbital Energies [Eh]
    ---------------------

    Doubly Occupied:

       1A    -20.555930     2A    -11.271155     3A    -11.216360
       4A    -11.212977     5A    -11.210618     6A    -11.208892
       7A    -11.206625     8A     -1.352618     9A     -1.122266
      10A     -0.996989    11A     -0.958889    12A     -0.874656
      13A     -0.779390    14A     -0.755225    15A     -0.688964
      16A     -0.650789    17A     -0.634892    18A     -0.619595
      19A     -0.572581    20A     -0.561637    21A     -0.523743
      22A     -0.474073    23A     -0.469989    24A     -0.462940
      25A     -0.459797    26A     -0.457841    27A     -0.449484
      28A     -0.432485

  @DF-RHF Final Energy:  -309.16114095939542

   => Energetics <=

    Nuclear Repulsion Energy =            325.1559191351247478
    One-Electron Energy =               -1064.2713218617834627
    Two-Electron Energy =                 429.9542617672632332
    Total Energy =                       -309.1611409593954249
  Basis Set: (AUG-CC-PVTZ AUX)
    Blend: AUG-CC-PVTZ-RI
    Molecular point group: c1

    Geometry (in Angstrom), charge = 0, multiplicity = 1:

       Center              X                  Y                   Z               Mass
    ------------   -----------------  -----------------  -----------------  -----------------
         O           -2.532418125159    -0.443207712866    -0.019487990165    15.994914619570
         C           -0.288801125159     0.214253287134    -0.434624990165    12.000000000000
         C            0.834321874841     1.261721287134    -0.202108990165    12.000000000000
         C            0.281280874841    -1.117223712866     0.081716009835    12.000000000000
         C            2.034424874841     0.476212287134     0.363837009835    12.000000000000
         C            1.791135874841    -0.961624712866    -0.100115990165    12.000000000000
         C           -1.590218125159     0.599898287134     0.235697009835    12.000000000000
         H           -0.489640125159     0.118556287134    -1.508716990165     1.007825032230
         H            0.514147874841     2.057603287134     0.481231009835     1.007825032230
         H            1.088294774841     1.726891287134    -1.102410590165     1.007825032230
         H           -0.147033125159    -1.980570712866    -0.434032990165     1.007825032230
         H            0.049189874841    -1.228306712866     1.149534009835     1.007825032230
         H            2.019941874841     0.506792287134     1.459764009835     1.007825032230
         H            2.997502874841     0.884645287134     0.041237009835     1.007825032230
         H            2.052598874841    -1.063859712866    -1.160936990165     1.007825032230
         H            2.376293874841    -1.700546712866     0.457343009835     1.007825032230
         H           -1.950924125159     1.563505287134    -0.156019990165     1.007825032230
         H           -1.416763125159     0.722007287134     1.317213009835     1.007825032230
         H           -3.362723125159    -0.207437712866     0.427103009835     1.007825032230

  Basis Set: AUG-CC-PVTZ
    Blend: AUG-CC-PVTZ
  Basis Set: (AUG-CC-PVTZ AUX)
    Blend: AUG-CC-PVTZ-JKFIT
	 Reference Energy          =    -309.1611409593954249 [Eh]
	 Singles Energy            =      -0.0000000000000000 [Eh]
	 Same-Spin Energy          =      -0.3223789689238367 [Eh]
	 Opposite-Spin Energy      =      -1.1091527200095919 [Eh]
	 Correlation Energy        =      -1.4315316889334286 [Eh]
	 Total Energy              =    -310.5926726483288576 [Eh]

	 ================> DF-SCS-MP2 Energies <==================
	-----------------------------------------------------------
	 SCS Same-Spin Scale       =       0.3333333333333333 [-]
	 SCS Opposite-Spin Scale   =       1.2000000000000000 [-]
	 SCS Same-Spin Energy      =      -0.1074596563079455 [Eh]
	 SCS Opposite-Spin Energy  =      -1.3309832640115102 [Eh]
	 SCS Correlation Energy    =      -1.4384429203194558 [Eh]
	 SCS Total Energy          =    -310.5995838797148849 [Eh]
	-----------------------------------------------------------

  Dipole Moment: [D]
     X:    -0.1881      Y:     1.1948      Z:     0.7237     Total:     1.4095

*** Psi4 exiting successfully. Buy a developer a beer!
