                               Psi4 1.4a3.dev225

  ==> Input File <==

--------------------------------------------------------------------------
#psi4
#
memory 32 gb

molecule  {
0 1
  O       -2.5655710    -0.4559810    -0.0273220
  C       -0.3219540     0.2014800    -0.4424590
  C        0.8011690     1.2489480    -0.2099430
  C        0.2481280    -1.1299970     0.0738820
  C        2.0012720     0.4634390     0.3560030
  C        1.7579830    -0.9743980    -0.1079500
  C       -1.6233710     0.5871250     0.2278630
  H       -0.5227930     0.1057830    -1.5165510
  H        0.4809950     2.0448300     0.4733970
  H        1.0672970     1.7363810    -1.1533330
  H       -0.1801860    -1.9933440    -0.4418670
  H        0.0371673    -1.2309667     1.0444826
  H        1.9867890     0.4940190     1.4519300
  H        2.9643500     0.8718720     0.0334030
  H        2.0194460    -1.0766330    -1.1687710
  H        2.3431410    -1.7133200     0.4495090
  H       -1.9840770     1.5507320    -0.1638540
  H       -1.4499160     0.7092340     1.3093790
  H       -3.3958760    -0.2202110     0.4192690
units angstrom
no_reorient  #important for SAPT in psi4, default
symmetry c1  #important for SAPT in psi4, default
}

set PROPERTIES_ORIGIN ["COM"]
properties('MP2/aug-cc-pvtz', properties = ['dipole'])
--------------------------------------------------------------------------

    Molecular point group: c1
  Charge       = 0
  Multiplicity = 1
  Basis Set: AUG-CC-PVTZ
    Blend: AUG-CC-PVTZ
  Basis Set: (AUG-CC-PVTZ AUX)
    Blend: AUG-CC-PVTZ-JKFIT

    Orbital Energies [Eh]
    ---------------------

    Doubly Occupied:

       1A    -20.556302     2A    -11.271414     3A    -11.215782
       4A    -11.214903     5A    -11.213205     6A    -11.209817
       7A    -11.193986     8A     -1.352981     9A     -1.123151
      10A     -0.996903    11A     -0.961082    12A     -0.874721
      13A     -0.783293    14A     -0.757925    15A     -0.687538
      16A     -0.649632    17A     -0.636301    18A     -0.619484
      19A     -0.575267    20A     -0.564014    21A     -0.524891
      22A     -0.473373    23A     -0.471992    24A     -0.462097
      25A     -0.460989    26A     -0.458037    27A     -0.449816
      28A     -0.432085

  @DF-RHF Final Energy:  -309.15633058222346

   => Energetics <=

    Nuclear Repulsion Energy =            325.3957975369808651
    One-Electron Energy =               -1064.7222928092683105
    Two-Electron Energy =                 430.1701646900640412
    Total Energy =                       -309.1563305822234611
  Basis Set: (AUG-CC-PVTZ AUX)
    Blend: AUG-CC-PVTZ-RI
    Molecular point group: c1

    Geometry (in Angstrom), charge = 0, multiplicity = 1:

       Center              X                  Y                   Z               Mass
    ------------   -----------------  -----------------  -----------------  -----------------
         O           -2.532753286079    -0.443533719779    -0.018075207953    15.994914619570
         C           -0.289136286079     0.213927280221    -0.433212207953    12.000000000000
         C            0.833986713921     1.261395280221    -0.200696207953    12.000000000000
         C            0.280945713921    -1.117549719779     0.083128792047    12.000000000000
         C            2.034089713921     0.475886280221     0.365249792047    12.000000000000
         C            1.790800713921    -0.961950719779    -0.098703207953    12.000000000000
         C           -1.590553286079     0.599572280221     0.237109792047    12.000000000000
         H           -0.489975286079     0.118230280221    -1.507304207953     1.007825032230
         H            0.513812713921     2.057277280221     0.482643792047     1.007825032230
         H            1.100114713921     1.748828280221    -1.144086207953     1.007825032230
         H           -0.147368286079    -1.980896719779    -0.432620207953     1.007825032230
         H            0.069985013921    -1.218519419779     1.053729392047     1.007825032230
         H            2.019606713921     0.506466280221     1.461176792047     1.007825032230
         H            2.997167713921     0.884319280221     0.042649792047     1.007825032230
         H            2.052263713921    -1.064185719779    -1.159524207953     1.007825032230
         H            2.375958713921    -1.700872719779     0.458755792047     1.007825032230
         H           -1.951259286079     1.563179280221    -0.154607207953     1.007825032230
         H           -1.417098286079     0.721681280221     1.318625792047     1.007825032230
         H           -3.363058286079    -0.207763719779     0.428515792047     1.007825032230

  Basis Set: AUG-CC-PVTZ
    Blend: AUG-CC-PVTZ
  Basis Set: (AUG-CC-PVTZ AUX)
    Blend: AUG-CC-PVTZ-JKFIT
	 Reference Energy          =    -309.1563305822234611 [Eh]
	 Singles Energy            =      -0.0000000000000000 [Eh]
	 Same-Spin Energy          =      -0.3223217671727299 [Eh]
	 Opposite-Spin Energy      =      -1.1089216784316323 [Eh]
	 Correlation Energy        =      -1.4312434456043621 [Eh]
	 Total Energy              =    -310.5875740278278272 [Eh]

	 ================> DF-SCS-MP2 Energies <==================
	-----------------------------------------------------------
	 SCS Same-Spin Scale       =       0.3333333333333333 [-]
	 SCS Opposite-Spin Scale   =       1.2000000000000000 [-]
	 SCS Same-Spin Energy      =      -0.1074405890575766 [Eh]
	 SCS Opposite-Spin Energy  =      -1.3307060141179587 [Eh]
	 SCS Correlation Energy    =      -1.4381466031755354 [Eh]
	 SCS Total Energy          =    -310.5944771853990005 [Eh]
	-----------------------------------------------------------

  Dipole Moment: [D]
     X:    -0.2146      Y:     1.1563      Z:     0.8050     Total:     1.4252

*** Psi4 exiting successfully. Buy a developer a beer!
