                               Psi4 1.4a3.dev225

  ==> Input File <==

--------------------------------------------------------------------------
#psi4
#
memory 32 gb

molecule  {
0 1
  O       -2.5655710    -0.4559810    -0.0273220
  C       -0.3219540     0.2014800    -0.4424590
  C        0.8011690     1.2489480    -0.2099430
  C        0.2481280    -1.1299970     0.0738820
  C        2.0012720     0.4634390     0.3560030
  C        1.7579830    -0.9743980    -0.1079500
  C       -1.6233710     0.5871250     0.2278630
  H       -0.5227930     0.1057830    -1.5165510
  H        0.4809950     2.0448300     0.4733970
  H        1.0672970     1.7363810    -1.1533330
  H       -0.1801860    -1.9933440    -0.4418670
  H       -0.0262236    -1.2613067     1.3361349
  H        1.9867890     0.4940190     1.4519300
  H        2.9643500     0.8718720     0.0334030
  H        2.0194460    -1.0766330    -1.1687710
  H        2.3431410    -1.7133200     0.4495090
  H       -1.9840770     1.5507320    -0.1638540
  H       -1.4499160     0.7092340     1.3093790
  H       -3.3958760    -0.2202110     0.4192690
units angstrom
no_reorient  #important for SAPT in psi4, default
symmetry c1  #important for SAPT in psi4, default
}

set PROPERTIES_ORIGIN ["COM"]
properties('MP2/aug-cc-pvtz', properties = ['dipole'])
--------------------------------------------------------------------------

    Molecular point group: c1
  Charge       = 0
  Multiplicity = 1
  Basis Set: AUG-CC-PVTZ
    Blend: AUG-CC-PVTZ
  Basis Set: (AUG-CC-PVTZ AUX)
    Blend: AUG-CC-PVTZ-JKFIT

    Orbital Energies [Eh]
    ---------------------

    Doubly Occupied:

       1A    -20.555881     2A    -11.271586     3A    -11.230943
       4A    -11.219817     5A    -11.216422     6A    -11.214273
       7A    -11.213562     8A     -1.352576     9A     -1.121705
      10A     -0.998530    11A     -0.952625    12A     -0.873262
      13A     -0.775217    14A     -0.746872    15A     -0.687928
      16A     -0.651666    17A     -0.634167    18A     -0.620032
      19A     -0.567382    20A     -0.551956    21A     -0.520478
      22A     -0.476616    23A     -0.469526    24A     -0.464017
      25A     -0.461235    26A     -0.455482    27A     -0.438822
      28A     -0.429758

  @DF-RHF Final Energy:  -309.14261167282450

   => Energetics <=

    Nuclear Repulsion Energy =            324.0576655241526396
    One-Electron Energy =               -1062.0558831895780258
    Two-Electron Energy =                 428.8556059926008857
    Total Energy =                       -309.1426116728245006
  Basis Set: (AUG-CC-PVTZ AUX)
    Blend: AUG-CC-PVTZ-RI
    Molecular point group: c1

    Geometry (in Angstrom), charge = 0, multiplicity = 1:

       Center              X                  Y                   Z               Mass
    ------------   -----------------  -----------------  -----------------  -----------------
         O           -2.532114983629    -0.443228216996    -0.021011944577    15.994914619570
         C           -0.288497983629     0.214232783004    -0.436148944577    12.000000000000
         C            0.834625016371     1.261700783004    -0.203632944577    12.000000000000
         C            0.281584016371    -1.117244216996     0.080192055423    12.000000000000
         C            2.034728016371     0.476191783004     0.362313055423    12.000000000000
         C            1.791439016371    -0.961645216996    -0.101639944577    12.000000000000
         C           -1.589914983629     0.599877783004     0.234173055423    12.000000000000
         H           -0.489336983629     0.118535783004    -1.510240944577     1.007825032230
         H            0.514451016371     2.057582783004     0.479707055423     1.007825032230
         H            1.100753016371     1.749133783004    -1.147022944577     1.007825032230
         H           -0.146729983629    -1.980591216996    -0.435556944577     1.007825032230
         H            0.007232416371    -1.248553916996     1.342444955423     1.007825032230
         H            2.020245016371     0.506771783004     1.458240055423     1.007825032230
         H            2.997806016371     0.884624783004     0.039713055423     1.007825032230
         H            2.052902016371    -1.063880216996    -1.162460944577     1.007825032230
         H            2.376597016371    -1.700567216996     0.455819055423     1.007825032230
         H           -1.950620983629     1.563484783004    -0.157543944577     1.007825032230
         H           -1.416459983629     0.721986783004     1.315689055423     1.007825032230
         H           -3.362419983629    -0.207458216996     0.425579055423     1.007825032230

  Basis Set: AUG-CC-PVTZ
    Blend: AUG-CC-PVTZ
  Basis Set: (AUG-CC-PVTZ AUX)
    Blend: AUG-CC-PVTZ-JKFIT
	 Reference Energy          =    -309.1426116728245006 [Eh]
	 Singles Energy            =      -0.0000000000000000 [Eh]
	 Same-Spin Energy          =      -0.3225006627402302 [Eh]
	 Opposite-Spin Energy      =      -1.1110971332858708 [Eh]
	 Correlation Energy        =      -1.4335977960261010 [Eh]
	 Total Energy              =    -310.5762094688506068 [Eh]

	 ================> DF-SCS-MP2 Energies <==================
	-----------------------------------------------------------
	 SCS Same-Spin Scale       =       0.3333333333333333 [-]
	 SCS Opposite-Spin Scale   =       1.2000000000000000 [-]
	 SCS Same-Spin Energy      =      -0.1075002209134101 [Eh]
	 SCS Opposite-Spin Energy  =      -1.3333165599430450 [Eh]
	 SCS Correlation Energy    =      -1.4408167808564551 [Eh]
	 SCS Total Energy          =    -310.5834284536809378 [Eh]
	-----------------------------------------------------------

  Dipole Moment: [D]
     X:    -0.1426      Y:     1.2170      Z:     0.5789     Total:     1.3551

*** Psi4 exiting successfully. Buy a developer a beer!
