                               Psi4 1.4a3.dev225

  ==> Input File <==

--------------------------------------------------------------------------
#psi4
#
memory 32 gb

molecule  {
0 1
  O       -2.5655710    -0.4559810    -0.0273220
  C       -0.3219540     0.2014800    -0.4424590
  C        0.8011690     1.2489480    -0.2099430
  C        0.2481280    -1.1299970     0.0738820
  C        2.0012720     0.4634390     0.3560030
  C        1.7579830    -0.9743980    -0.1079500
  C       -1.6563471     0.5506173     0.2189318
  H       -0.5227930     0.1057830    -1.5165510
  H        0.4809950     2.0448300     0.4733970
  H        1.0672970     1.7363810    -1.1533330
  H       -0.1801860    -1.9933440    -0.4418670
  H        0.0160370    -1.2410800     1.1417000
  H        1.9867890     0.4940190     1.4519300
  H        2.9643500     0.8718720     0.0334030
  H        2.0194460    -1.0766330    -1.1687710
  H        2.3431410    -1.7133200     0.4495090
  H       -1.9840770     1.5507320    -0.1638540
  H       -1.4499160     0.7092340     1.3093790
  H       -3.3958760    -0.2202110     0.4192690
units angstrom
no_reorient  #important for SAPT in psi4, default
symmetry c1  #important for SAPT in psi4, default
}

set PROPERTIES_ORIGIN ["COM"]
properties('MP2/aug-cc-pvtz', properties = ['dipole'])
--------------------------------------------------------------------------

    Molecular point group: c1
  Charge       = 0
  Multiplicity = 1
  Basis Set: AUG-CC-PVTZ
    Blend: AUG-CC-PVTZ
  Basis Set: (AUG-CC-PVTZ AUX)
    Blend: AUG-CC-PVTZ-JKFIT

    Orbital Energies [Eh]
    ---------------------

    Doubly Occupied:

       1A    -20.561950     2A    -11.272729     3A    -11.216277
       4A    -11.214873     5A    -11.212859     6A    -11.210198
       7A    -11.205958     8A     -1.374451     9A     -1.120250
      10A     -0.993336    11A     -0.955799    12A     -0.871841
      13A     -0.777759    14A     -0.752156    15A     -0.700632
      16A     -0.649825    17A     -0.636421    18A     -0.621905
      19A     -0.572354    20A     -0.565378    21A     -0.526458
      22A     -0.473310    23A     -0.468874    24A     -0.463957
      25A     -0.458908    26A     -0.456897    27A     -0.441171
      28A     -0.425805

  @DF-RHF Final Energy:  -309.16024969231478

   => Energetics <=

    Nuclear Repulsion Energy =            325.1351106804921756
    One-Electron Energy =               -1064.1860552384591756
    Two-Electron Energy =                 429.8906948656522218
    Total Energy =                       -309.1602496923147783
  Basis Set: (AUG-CC-PVTZ AUX)
    Blend: AUG-CC-PVTZ-RI
    Molecular point group: c1

    Geometry (in Angstrom), charge = 0, multiplicity = 1:

       Center              X                  Y                   Z               Mass
    ------------   -----------------  -----------------  -----------------  -----------------
         O           -2.528586898004    -0.439054849319    -0.017983326850    15.994914619570
         C           -0.284969898004     0.218406150681    -0.433120326850    12.000000000000
         C            0.838153101996     1.265874150681    -0.200604326850    12.000000000000
         C            0.285112101996    -1.113070849319     0.083220673150    12.000000000000
         C            2.038256101996     0.480365150681     0.365341673150    12.000000000000
         C            1.794967101996    -0.957471849319    -0.098611326850    12.000000000000
         C           -1.619362998004     0.567543450681     0.228270473150    12.000000000000
         H           -0.485808898004     0.122709150681    -1.507212326850     1.007825032230
         H            0.517979101996     2.061756150681     0.482735673150     1.007825032230
         H            1.104281101996     1.753307150681    -1.143994326850     1.007825032230
         H           -0.143201898004    -1.976417849319    -0.432528326850     1.007825032230
         H            0.053021101996    -1.224153849319     1.151038673150     1.007825032230
         H            2.023773101996     0.510945150681     1.461268673150     1.007825032230
         H            3.001334101996     0.888798150681     0.042741673150     1.007825032230
         H            2.056430101996    -1.059706849319    -1.159432326850     1.007825032230
         H            2.380125101996    -1.696393849319     0.458847673150     1.007825032230
         H           -1.947092898004     1.567658150681    -0.154515326850     1.007825032230
         H           -1.412931898004     0.726160150681     1.318717673150     1.007825032230
         H           -3.358891898004    -0.203284849319     0.428607673150     1.007825032230

  Basis Set: AUG-CC-PVTZ
    Blend: AUG-CC-PVTZ
  Basis Set: (AUG-CC-PVTZ AUX)
    Blend: AUG-CC-PVTZ-JKFIT
	 Reference Energy          =    -309.1602496923147783 [Eh]
	 Singles Energy            =      -0.0000000000000000 [Eh]
	 Same-Spin Energy          =      -0.3223238286963246 [Eh]
	 Opposite-Spin Energy      =      -1.1088001866740678 [Eh]
	 Correlation Energy        =      -1.4311240153703924 [Eh]
	 Total Energy              =    -310.5913737076851930 [Eh]

	 ================> DF-SCS-MP2 Energies <==================
	-----------------------------------------------------------
	 SCS Same-Spin Scale       =       0.3333333333333333 [-]
	 SCS Opposite-Spin Scale   =       1.2000000000000000 [-]
	 SCS Same-Spin Energy      =      -0.1074412762321082 [Eh]
	 SCS Opposite-Spin Energy  =      -1.3305602240088812 [Eh]
	 SCS Correlation Energy    =      -1.4380015002409894 [Eh]
	 SCS Total Energy          =    -310.5982511925557787 [Eh]
	-----------------------------------------------------------

  Dipole Moment: [D]
     X:    -0.3570      Y:     1.0411      Z:     0.7174     Total:     1.3138

*** Psi4 exiting successfully. Buy a developer a beer!
