                               Psi4 1.4a3.dev225

  ==> Input File <==

--------------------------------------------------------------------------
#psi4
#
memory 32 gb

molecule  {
0 1
  O       -2.5655710    -0.4559810    -0.0273220
  C       -0.2178689     0.0899951    -0.3861474
  C        0.8011690     1.2489480    -0.2099430
  C        0.2481280    -1.1299970     0.0738820
  C        2.0012720     0.4634390     0.3560030
  C        1.7579830    -0.9743980    -0.1079500
  C       -1.6233710     0.5871250     0.2278630
  H       -0.5227930     0.1057830    -1.5165510
  H        0.4809950     2.0448300     0.4733970
  H        1.0672970     1.7363810    -1.1533330
  H       -0.1801860    -1.9933440    -0.4418670
  H        0.0160370    -1.2410800     1.1417000
  H        1.9867890     0.4940190     1.4519300
  H        2.9643500     0.8718720     0.0334030
  H        2.0194460    -1.0766330    -1.1687710
  H        2.3431410    -1.7133200     0.4495090
  H       -1.9840770     1.5507320    -0.1638540
  H       -1.4499160     0.7092340     1.3093790
  H       -3.3958760    -0.2202110     0.4192690
units angstrom
no_reorient  #important for SAPT in psi4, default
symmetry c1  #important for SAPT in psi4, default
}

set PROPERTIES_ORIGIN ["COM"]
properties('MP2/aug-cc-pvtz', properties = ['dipole'])
--------------------------------------------------------------------------

    Molecular point group: c1
  Charge       = 0
  Multiplicity = 1
  Basis Set: AUG-CC-PVTZ
    Blend: AUG-CC-PVTZ
  Basis Set: (AUG-CC-PVTZ AUX)
    Blend: AUG-CC-PVTZ-JKFIT

    Orbital Energies [Eh]
    ---------------------

    Doubly Occupied:

       1A    -20.554883     2A    -11.274136     3A    -11.221937
       4A    -11.215279     5A    -11.212887     6A    -11.212258
       7A    -11.200717     8A     -1.350483     9A     -1.140961
      10A     -0.987499    11A     -0.966499    12A     -0.874520
      13A     -0.783359    14A     -0.744775    15A     -0.689363
      16A     -0.652167    17A     -0.636698    18A     -0.621165
      19A     -0.571471    20A     -0.555481    21A     -0.532979
      22A     -0.500852    23A     -0.472277    24A     -0.469599
      25A     -0.459803    26A     -0.444943    27A     -0.435088
      28A     -0.410350

  @DF-RHF Final Energy:  -309.13064827903719

   => Energetics <=

    Nuclear Repulsion Energy =            326.0475723805440111
    One-Electron Energy =               -1065.9715879089092141
    Two-Electron Energy =                 430.7933672493280142
    Total Energy =                       -309.1306482790371888
  Basis Set: (AUG-CC-PVTZ AUX)
    Blend: AUG-CC-PVTZ-RI
    Molecular point group: c1

    Geometry (in Angstrom), charge = 0, multiplicity = 1:

       Center              X                  Y                   Z               Mass
    ------------   -----------------  -----------------  -----------------  -----------------
         O           -2.545019647257    -0.430065569149    -0.025805515573    15.994914619570
         C           -0.197317547257     0.115910530851    -0.384630915573    12.000000000000
         C            0.821720352743     1.274863430851    -0.208426515573    12.000000000000
         C            0.268679352743    -1.104081569149     0.075398484427    12.000000000000
         C            2.021823352743     0.489354430851     0.357519484427    12.000000000000
         C            1.778534352743    -0.948482569149    -0.106433515573    12.000000000000
         C           -1.602819647257     0.613040430851     0.229379484427    12.000000000000
         H           -0.502241647257     0.131698430851    -1.515034515573     1.007825032230
         H            0.501546352743     2.070745430851     0.474913484427     1.007825032230
         H            1.087848352743     1.762296430851    -1.151816515573     1.007825032230
         H           -0.159634647257    -1.967428569149    -0.440350515573     1.007825032230
         H            0.036588352743    -1.215164569149     1.143216484427     1.007825032230
         H            2.007340352743     0.519934430851     1.453446484427     1.007825032230
         H            2.984901352743     0.897787430851     0.034919484427     1.007825032230
         H            2.039997352743    -1.050717569149    -1.167254515573     1.007825032230
         H            2.363692352743    -1.687404569149     0.451025484427     1.007825032230
         H           -1.963525647257     1.576647430851    -0.162337515573     1.007825032230
         H           -1.429364647257     0.735149430851     1.310895484427     1.007825032230
         H           -3.375324647257    -0.194295569149     0.420785484427     1.007825032230

  Basis Set: AUG-CC-PVTZ
    Blend: AUG-CC-PVTZ
  Basis Set: (AUG-CC-PVTZ AUX)
    Blend: AUG-CC-PVTZ-JKFIT
	 Reference Energy          =    -309.1306482790371888 [Eh]
	 Singles Energy            =      -0.0000000000000000 [Eh]
	 Same-Spin Energy          =      -0.3241672054173929 [Eh]
	 Opposite-Spin Energy      =      -1.1120740120962573 [Eh]
	 Correlation Energy        =      -1.4362412175136501 [Eh]
	 Total Energy              =    -310.5668894965508571 [Eh]

	 ================> DF-SCS-MP2 Energies <==================
	-----------------------------------------------------------
	 SCS Same-Spin Scale       =       0.3333333333333333 [-]
	 SCS Opposite-Spin Scale   =       1.2000000000000000 [-]
	 SCS Same-Spin Energy      =      -0.1080557351391309 [Eh]
	 SCS Opposite-Spin Energy  =      -1.3344888145155087 [Eh]
	 SCS Correlation Energy    =      -1.4425445496546396 [Eh]
	 SCS Total Energy          =    -310.5731928286918446 [Eh]
	-----------------------------------------------------------

  Dipole Moment: [D]
     X:    -0.1726      Y:     1.1224      Z:     0.7715     Total:     1.3729

*** Psi4 exiting successfully. Buy a developer a beer!
