                               Psi4 1.4a3.dev225

  ==> Input File <==

--------------------------------------------------------------------------
#psi4
#
memory 32 gb

molecule  {
0 1
  O       -2.5655710    -0.4559810    -0.0273220
  C       -0.3219540     0.2014800    -0.4424590
  C        0.8011690     1.2489480    -0.2099430
  C        0.2481280    -1.1299970     0.0738820
  C        2.0012720     0.4634390     0.3560030
  C        1.7579830    -0.9743980    -0.1079500
  C       -1.6233710     0.5871250     0.2278630
  H       -0.5227930     0.1057830    -1.5165510
  H        0.4809950     2.0448300     0.4733970
  H        1.0672970     1.7363810    -1.1533330
  H       -0.1801860    -1.9933440    -0.4418670
  H        0.0160370    -1.2410800     1.1417000
  H        1.9867890     0.4940190     1.4519300
  H        2.9643500     0.8718720     0.0334030
  H        2.0194460    -1.0766330    -1.1687710
  H        2.2362696    -1.5783656     0.3476964
  H       -1.9840770     1.5507320    -0.1638540
  H       -1.4499160     0.7092340     1.3093790
  H       -3.3958760    -0.2202110     0.4192690
units angstrom
no_reorient  #important for SAPT in psi4, default
symmetry c1  #important for SAPT in psi4, default
}

set PROPERTIES_ORIGIN ["COM"]
properties('MP2/aug-cc-pvtz', properties = ['dipole'])
--------------------------------------------------------------------------

    Molecular point group: c1
  Charge       = 0
  Multiplicity = 1
  Basis Set: AUG-CC-PVTZ
    Blend: AUG-CC-PVTZ
  Basis Set: (AUG-CC-PVTZ AUX)
    Blend: AUG-CC-PVTZ-JKFIT

    Orbital Energies [Eh]
    ---------------------

    Doubly Occupied:

       1A    -20.555427     2A    -11.270363     3A    -11.215464
       4A    -11.213928     5A    -11.211866     6A    -11.205405
       7A    -11.185408     8A     -1.352074     9A     -1.123358
      10A     -1.003792    11A     -0.959181    12A     -0.878864
      13A     -0.793491    14A     -0.753142    15A     -0.687630
      16A     -0.654079    17A     -0.647017    18A     -0.618855
      19A     -0.572826    20A     -0.561615    21A     -0.522917
      22A     -0.486012    23A     -0.470272    24A     -0.461809
      25A     -0.458768    26A     -0.456689    27A     -0.447931
      28A     -0.431950

  @DF-RHF Final Energy:  -309.12868170983097

   => Energetics <=

    Nuclear Repulsion Energy =            326.0097791597382297
    One-Electron Energy =               -1065.8766527613663584
    Two-Electron Energy =                 430.7381918917972143
    Total Energy =                       -309.1286817098309712
  Basis Set: (AUG-CC-PVTZ AUX)
    Blend: AUG-CC-PVTZ-RI
    Molecular point group: c1

    Geometry (in Angstrom), charge = 0, multiplicity = 1:

       Center              X                  Y                   Z               Mass
    ------------   -----------------  -----------------  -----------------  -----------------
         O           -2.531464397631    -0.444790783174    -0.018028937473    15.994914619570
         C           -0.287847397631     0.212670216826    -0.433165937473    12.000000000000
         C            0.835275602369     1.260138216826    -0.200649937473    12.000000000000
         C            0.282234602369    -1.118806783174     0.083175062527    12.000000000000
         C            2.035378602369     0.474629216826     0.365296062527    12.000000000000
         C            1.792089602369    -0.963207783174    -0.098656937473    12.000000000000
         C           -1.589264397631     0.598315216826     0.237156062527    12.000000000000
         H           -0.488686397631     0.116973216826    -1.507257937473     1.007825032230
         H            0.515101602369     2.056020216826     0.482690062527     1.007825032230
         H            1.101403602369     1.747571216826    -1.144039937473     1.007825032230
         H           -0.146079397631    -1.982153783174    -0.432573937473     1.007825032230
         H            0.050143602369    -1.229889783174     1.150993062527     1.007825032230
         H            2.020895602369     0.505209216826     1.461223062527     1.007825032230
         H            2.998456602369     0.883062216826     0.042696062527     1.007825032230
         H            2.053552602369    -1.065442783174    -1.159477937473     1.007825032230
         H            2.270376202369    -1.567175383174     0.356989462527     1.007825032230
         H           -1.949970397631     1.561922216826    -0.154560937473     1.007825032230
         H           -1.415809397631     0.720424216826     1.318672062527     1.007825032230
         H           -3.361769397631    -0.209020783174     0.428562062527     1.007825032230

  Basis Set: AUG-CC-PVTZ
    Blend: AUG-CC-PVTZ
  Basis Set: (AUG-CC-PVTZ AUX)
    Blend: AUG-CC-PVTZ-JKFIT
	 Reference Energy          =    -309.1286817098309712 [Eh]
	 Singles Energy            =      -0.0000000000000000 [Eh]
	 Same-Spin Energy          =      -0.3224434412254789 [Eh]
	 Opposite-Spin Energy      =      -1.1088430593566145 [Eh]
	 Correlation Energy        =      -1.4312865005820934 [Eh]
	 Total Energy              =    -310.5599682104130466 [Eh]

	 ================> DF-SCS-MP2 Energies <==================
	-----------------------------------------------------------
	 SCS Same-Spin Scale       =       0.3333333333333333 [-]
	 SCS Opposite-Spin Scale   =       1.2000000000000000 [-]
	 SCS Same-Spin Energy      =      -0.1074811470751596 [Eh]
	 SCS Opposite-Spin Energy  =      -1.3306116712279374 [Eh]
	 SCS Correlation Energy    =      -1.4380928183030970 [Eh]
	 SCS Total Energy          =    -310.5667745281340899 [Eh]
	-----------------------------------------------------------

  Dipole Moment: [D]
     X:    -0.1067      Y:     1.0789      Z:     0.7721     Total:     1.3310

*** Psi4 exiting successfully. Buy a developer a beer!
