                               Psi4 1.4a3.dev225

  ==> Input File <==

--------------------------------------------------------------------------
#psi4
#
memory 32 gb

molecule  {
0 1
  O       -2.5655710    -0.4559810    -0.0273220
  C       -0.3761214     0.2265269    -0.2929807
  C        0.8011690     1.2489480    -0.2099430
  C        0.2481280    -1.1299970     0.0738820
  C        2.0012720     0.4634390     0.3560030
  C        1.7579830    -0.9743980    -0.1079500
  C       -1.6233710     0.5871250     0.2278630
  H       -0.5227930     0.1057830    -1.5165510
  H        0.4809950     2.0448300     0.4733970
  H        1.0672970     1.7363810    -1.1533330
  H       -0.1801860    -1.9933440    -0.4418670
  H        0.0160370    -1.2410800     1.1417000
  H        1.9867890     0.4940190     1.4519300
  H        2.9643500     0.8718720     0.0334030
  H        2.0194460    -1.0766330    -1.1687710
  H        2.3431410    -1.7133200     0.4495090
  H       -1.9840770     1.5507320    -0.1638540
  H       -1.4499160     0.7092340     1.3093790
  H       -3.3958760    -0.2202110     0.4192690
units angstrom
no_reorient  #important for SAPT in psi4, default
symmetry c1  #important for SAPT in psi4, default
}

set PROPERTIES_ORIGIN ["COM"]
properties('MP2/aug-cc-pvtz', properties = ['dipole'])
--------------------------------------------------------------------------

    Molecular point group: c1
  Charge       = 0
  Multiplicity = 1
  Basis Set: AUG-CC-PVTZ
    Blend: AUG-CC-PVTZ
  Basis Set: (AUG-CC-PVTZ AUX)
    Blend: AUG-CC-PVTZ-JKFIT

    Orbital Energies [Eh]
    ---------------------

    Doubly Occupied:

       1A    -20.558793     2A    -11.269072     3A    -11.224407
       4A    -11.219769     5A    -11.215475     6A    -11.213104
       7A    -11.209742     8A     -1.356994     9A     -1.126214
      10A     -1.017719    11A     -0.958423    12A     -0.880032
      13A     -0.781287    14A     -0.740677    15A     -0.694687
      16A     -0.653562    17A     -0.639717    18A     -0.627359
      19A     -0.568088    20A     -0.557906    21A     -0.524915
      22A     -0.490347    23A     -0.474857    24A     -0.469604
      25A     -0.465286    26A     -0.456059    27A     -0.446673
      28A     -0.399035

  @DF-RHF Final Energy:  -309.13311224159372

   => Energetics <=

    Nuclear Repulsion Energy =            325.8782993817713418
    One-Electron Energy =               -1065.5432143128439293
    Two-Electron Energy =                 430.5318026894789227
    Total Energy =                       -309.1331122415937216
  Basis Set: (AUG-CC-PVTZ AUX)
    Blend: AUG-CC-PVTZ-RI
    Molecular point group: c1

    Geometry (in Angstrom), charge = 0, multiplicity = 1:

       Center              X                  Y                   Z               Mass
    ------------   -----------------  -----------------  -----------------  -----------------
         O           -2.526046198526    -0.446434846774    -0.036975598863    15.994914619570
         C           -0.336596598526     0.236073053226    -0.302634298863    12.000000000000
         C            0.840693801474     1.258494153226    -0.219596598863    12.000000000000
         C            0.287652801474    -1.120450846774     0.064228401137    12.000000000000
         C            2.040796801474     0.472985153226     0.346349401137    12.000000000000
         C            1.797507801474    -0.964851846774    -0.117603598863    12.000000000000
         C           -1.583846198526     0.596671153226     0.218209401137    12.000000000000
         H           -0.483268198526     0.115329153226    -1.526204598863     1.007825032230
         H            0.520519801474     2.054376153226     0.463743401137     1.007825032230
         H            1.106821801474     1.745927153226    -1.162986598863     1.007825032230
         H           -0.140661198526    -1.983797846774    -0.451520598863     1.007825032230
         H            0.055561801474    -1.231533846774     1.132046401137     1.007825032230
         H            2.026313801474     0.503565153226     1.442276401137     1.007825032230
         H            3.003874801474     0.881418153226     0.023749401137     1.007825032230
         H            2.058970801474    -1.067086846774    -1.178424598863     1.007825032230
         H            2.382665801474    -1.703773846774     0.439855401137     1.007825032230
         H           -1.944552198526     1.560278153226    -0.173507598863     1.007825032230
         H           -1.410391198526     0.718780153226     1.299725401137     1.007825032230
         H           -3.356351198526    -0.210664846774     0.409615401137     1.007825032230

  Basis Set: AUG-CC-PVTZ
    Blend: AUG-CC-PVTZ
  Basis Set: (AUG-CC-PVTZ AUX)
    Blend: AUG-CC-PVTZ-JKFIT
	 Reference Energy          =    -309.1331122415937216 [Eh]
	 Singles Energy            =      -0.0000000000000000 [Eh]
	 Same-Spin Energy          =      -0.3239081447545361 [Eh]
	 Opposite-Spin Energy      =      -1.1119374053307511 [Eh]
	 Correlation Energy        =      -1.4358455500852871 [Eh]
	 Total Energy              =    -310.5689577916789972 [Eh]

	 ================> DF-SCS-MP2 Energies <==================
	-----------------------------------------------------------
	 SCS Same-Spin Scale       =       0.3333333333333333 [-]
	 SCS Opposite-Spin Scale   =       1.2000000000000000 [-]
	 SCS Same-Spin Energy      =      -0.1079693815848453 [Eh]
	 SCS Opposite-Spin Energy  =      -1.3343248863969013 [Eh]
	 SCS Correlation Energy    =      -1.4422942679817465 [Eh]
	 SCS Total Energy          =    -310.5754065095754868 [Eh]
	-----------------------------------------------------------

  Dipole Moment: [D]
     X:    -0.1172      Y:     1.1986      Z:     0.8430     Total:     1.4701

*** Psi4 exiting successfully. Buy a developer a beer!
