                               Psi4 1.4a3.dev225

  ==> Input File <==

--------------------------------------------------------------------------
#psi4
#
memory 32 gb

molecule  {
0 1
  O       -2.5655710    -0.4559810    -0.0273220
  C       -0.3219540     0.2014800    -0.4424590
  C        0.8011690     1.2489480    -0.2099430
  C        0.1739792    -0.9568160     0.0067232
  C        2.0012720     0.4634390     0.3560030
  C        1.7579830    -0.9743980    -0.1079500
  C       -1.6233710     0.5871250     0.2278630
  H       -0.5227930     0.1057830    -1.5165510
  H        0.4809950     2.0448300     0.4733970
  H        1.0672970     1.7363810    -1.1533330
  H       -0.1801860    -1.9933440    -0.4418670
  H        0.0160370    -1.2410800     1.1417000
  H        1.9867890     0.4940190     1.4519300
  H        2.9643500     0.8718720     0.0334030
  H        2.0194460    -1.0766330    -1.1687710
  H        2.3431410    -1.7133200     0.4495090
  H       -1.9840770     1.5507320    -0.1638540
  H       -1.4499160     0.7092340     1.3093790
  H       -3.3958760    -0.2202110     0.4192690
units angstrom
no_reorient  #important for SAPT in psi4, default
symmetry c1  #important for SAPT in psi4, default
}

set PROPERTIES_ORIGIN ["COM"]
properties('MP2/aug-cc-pvtz', properties = ['dipole'])
--------------------------------------------------------------------------

    Molecular point group: c1
  Charge       = 0
  Multiplicity = 1
  Basis Set: AUG-CC-PVTZ
    Blend: AUG-CC-PVTZ
  Basis Set: (AUG-CC-PVTZ AUX)
    Blend: AUG-CC-PVTZ-JKFIT

    Orbital Energies [Eh]
    ---------------------

    Doubly Occupied:

       1A    -20.557319     2A    -11.273729     3A    -11.217502
       4A    -11.215758     5A    -11.214065     6A    -11.212479
       7A    -11.207694     8A     -1.354694     9A     -1.146017
      10A     -1.008210    11A     -0.950631    12A     -0.884108
      13A     -0.782359    14A     -0.748244    15A     -0.692044
      16A     -0.651520    17A     -0.641176    18A     -0.622275
      19A     -0.566959    20A     -0.559892    21A     -0.538385
      22A     -0.499297    23A     -0.472023    24A     -0.469212
      25A     -0.457447    26A     -0.442928    27A     -0.423823
      28A     -0.417526

  @DF-RHF Final Energy:  -309.11389821603126

   => Energetics <=

    Nuclear Repulsion Energy =            327.6812424765981859
    One-Electron Energy =               -1069.1356514905305630
    Two-Electron Energy =                 432.3405107979011177
    Total Energy =                       -309.1138982160312594
  Basis Set: (AUG-CC-PVTZ AUX)
    Blend: AUG-CC-PVTZ-RI
    Molecular point group: c1

    Geometry (in Angstrom), charge = 0, multiplicity = 1:

       Center              X                  Y                   Z               Mass
    ------------   -----------------  -----------------  -----------------  -----------------
         O           -2.523650558214    -0.464195164946    -0.011002215125    15.994914619570
         C           -0.280033558214     0.193265835054    -0.426139215125    12.000000000000
         C            0.843089441786     1.240733835054    -0.193623215125    12.000000000000
         C            0.215899641786    -0.965030164946     0.023042984875    12.000000000000
         C            2.043192441786     0.455224835054     0.372322784875    12.000000000000
         C            1.799903441786    -0.982612164946    -0.091630215125    12.000000000000
         C           -1.581450558214     0.578910835054     0.244182784875    12.000000000000
         H           -0.480872558214     0.097568835054    -1.500231215125     1.007825032230
         H            0.522915441786     2.036615835054     0.489716784875     1.007825032230
         H            1.109217441786     1.728166835054    -1.137013215125     1.007825032230
         H           -0.138265558214    -2.001558164946    -0.425547215125     1.007825032230
         H            0.057957441786    -1.249294164946     1.158019784875     1.007825032230
         H            2.028709441786     0.485804835054     1.468249784875     1.007825032230
         H            3.006270441786     0.863657835054     0.049722784875     1.007825032230
         H            2.061366441786    -1.084847164946    -1.152451215125     1.007825032230
         H            2.385061441786    -1.721534164946     0.465828784875     1.007825032230
         H           -1.942156558214     1.542517835054    -0.147534215125     1.007825032230
         H           -1.407995558214     0.701019835054     1.325698784875     1.007825032230
         H           -3.353955558214    -0.228425164946     0.435588784875     1.007825032230

  Basis Set: AUG-CC-PVTZ
    Blend: AUG-CC-PVTZ
  Basis Set: (AUG-CC-PVTZ AUX)
    Blend: AUG-CC-PVTZ-JKFIT
	 Reference Energy          =    -309.1138982160312594 [Eh]
	 Singles Energy            =      -0.0000000000000000 [Eh]
	 Same-Spin Energy          =      -0.3253151369193057 [Eh]
	 Opposite-Spin Energy      =      -1.1133784575018391 [Eh]
	 Correlation Energy        =      -1.4386935944211448 [Eh]
	 Total Energy              =    -310.5525918104523839 [Eh]

	 ================> DF-SCS-MP2 Energies <==================
	-----------------------------------------------------------
	 SCS Same-Spin Scale       =       0.3333333333333333 [-]
	 SCS Opposite-Spin Scale   =       1.2000000000000000 [-]
	 SCS Same-Spin Energy      =      -0.1084383789731019 [Eh]
	 SCS Opposite-Spin Energy  =      -1.3360541490022069 [Eh]
	 SCS Correlation Energy    =      -1.4444925279753087 [Eh]
	 SCS Total Energy          =    -310.5583907440065445 [Eh]
	-----------------------------------------------------------

  Dipole Moment: [D]
     X:    -0.1997      Y:     1.2325      Z:     0.7156     Total:     1.4391

*** Psi4 exiting successfully. Buy a developer a beer!
