                               Psi4 1.4a3.dev225

  ==> Input File <==

--------------------------------------------------------------------------
#psi4
#
memory 32 gb

molecule  {
0 1
  O       -2.5655710    -0.4559810    -0.0273220
  C       -0.3219540     0.2014800    -0.4424590
  C        0.8011690     1.2489480    -0.2099430
  C        0.2481280    -1.1299970     0.0738820
  C        2.0012720     0.4634390     0.3560030
  C        1.7579830    -0.9743980    -0.1079500
  C       -1.6233710     0.5871250     0.2278630
  H       -0.5227930     0.1057830    -1.5165510
  H        0.4809950     2.0448300     0.4733970
  H        1.0672970     1.7363810    -1.1533330
  H       -0.1801860    -1.9933440    -0.4418670
  H       -0.0050933    -1.2511933     1.2389174
  H        1.9867890     0.4940190     1.4519300
  H        2.9643500     0.8718720     0.0334030
  H        2.0194460    -1.0766330    -1.1687710
  H        2.3431410    -1.7133200     0.4495090
  H       -1.9840770     1.5507320    -0.1638540
  H       -1.4499160     0.7092340     1.3093790
  H       -3.3958760    -0.2202110     0.4192690
units angstrom
no_reorient  #important for SAPT in psi4, default
symmetry c1  #important for SAPT in psi4, default
}

set PROPERTIES_ORIGIN ["COM"]
properties('MP2/aug-cc-pvtz', properties = ['dipole'])
--------------------------------------------------------------------------

    Molecular point group: c1
  Charge       = 0
  Multiplicity = 1
  Basis Set: AUG-CC-PVTZ
    Blend: AUG-CC-PVTZ
  Basis Set: (AUG-CC-PVTZ AUX)
    Blend: AUG-CC-PVTZ-JKFIT

    Orbital Energies [Eh]
    ---------------------

    Doubly Occupied:

       1A    -20.556008     2A    -11.271457     3A    -11.219397
       4A    -11.218099     5A    -11.215788     6A    -11.213733
       7A    -11.212072     8A     -1.352691     9A     -1.121496
      10A     -0.997817    11A     -0.953912    12A     -0.873280
      13A     -0.775964    14A     -0.750181    15A     -0.687701
      16A     -0.650833    17A     -0.634415    18A     -0.619729
      19A     -0.567472    20A     -0.556757    21A     -0.522006
      22A     -0.475141    23A     -0.469463    24A     -0.463164
      25A     -0.460204    26A     -0.456012    27A     -0.444634
      28A     -0.431977

  @DF-RHF Final Energy:  -309.15567341105742

   => Energetics <=

    Nuclear Repulsion Energy =            324.4610456048345100
    One-Electron Energy =               -1062.8906320843188951
    Two-Electron Energy =                 429.2739130684270208
    Total Energy =                       -309.1556734110574212
  Basis Set: (AUG-CC-PVTZ AUX)
    Blend: AUG-CC-PVTZ-RI
    Molecular point group: c1

    Geometry (in Angstrom), charge = 0, multiplicity = 1:

       Center              X                  Y                   Z               Mass
    ------------   -----------------  -----------------  -----------------  -----------------
         O           -2.532327751112    -0.443330051928    -0.020033031698    15.994914619570
         C           -0.288710751112     0.214130948072    -0.435170031698    12.000000000000
         C            0.834412248888     1.261598948072    -0.202654031698    12.000000000000
         C            0.281371248888    -1.117346051928     0.081170968302    12.000000000000
         C            2.034515248888     0.476089948072     0.363291968302    12.000000000000
         C            1.791226248888    -0.961747051928    -0.100661031698    12.000000000000
         C           -1.590127751112     0.599775948072     0.235151968302    12.000000000000
         H           -0.489549751112     0.118433948072    -1.509262031698     1.007825032230
         H            0.514238248888     2.057480948072     0.480685968302     1.007825032230
         H            1.100540248888     1.749031948072    -1.146044031698     1.007825032230
         H           -0.146942751112    -1.980693051928    -0.434578031698     1.007825032230
         H            0.028149948888    -1.238542351928     1.246206368302     1.007825032230
         H            2.020032248888     0.506669948072     1.459218968302     1.007825032230
         H            2.997593248888     0.884522948072     0.040691968302     1.007825032230
         H            2.052689248888    -1.063982051928    -1.161482031698     1.007825032230
         H            2.376384248888    -1.700669051928     0.456797968302     1.007825032230
         H           -1.950833751112     1.563382948072    -0.156565031698     1.007825032230
         H           -1.416672751112     0.721884948072     1.316667968302     1.007825032230
         H           -3.362632751112    -0.207560051928     0.426557968302     1.007825032230

  Basis Set: AUG-CC-PVTZ
    Blend: AUG-CC-PVTZ
  Basis Set: (AUG-CC-PVTZ AUX)
    Blend: AUG-CC-PVTZ-JKFIT
	 Reference Energy          =    -309.1556734110574212 [Eh]
	 Singles Energy            =      -0.0000000000000000 [Eh]
	 Same-Spin Energy          =      -0.3224421116373879 [Eh]
	 Opposite-Spin Energy      =      -1.1102255635885760 [Eh]
	 Correlation Energy        =      -1.4326676752259639 [Eh]
	 Total Energy              =    -310.5883410862833784 [Eh]

	 ================> DF-SCS-MP2 Energies <==================
	-----------------------------------------------------------
	 SCS Same-Spin Scale       =       0.3333333333333333 [-]
	 SCS Opposite-Spin Scale   =       1.2000000000000000 [-]
	 SCS Same-Spin Energy      =      -0.1074807038791293 [Eh]
	 SCS Opposite-Spin Energy  =      -1.3322706763062913 [Eh]
	 SCS Correlation Energy    =      -1.4397513801854205 [Eh]
	 SCS Total Energy          =    -310.5954247912428627 [Eh]
	-----------------------------------------------------------

  Dipole Moment: [D]
     X:    -0.1714      Y:     1.1913      Z:     0.6708     Total:     1.3779

*** Psi4 exiting successfully. Buy a developer a beer!
