                               Psi4 1.4a3.dev225

  ==> Input File <==

--------------------------------------------------------------------------
#psi4
#
memory 32 gb

molecule  {
0 1
  O       -2.5655710    -0.4559810    -0.0273220
  C       -0.3219540     0.2014800    -0.4424590
  C        0.8011690     1.2489480    -0.2099430
  C        0.2481280    -1.1299970     0.0738820
  C        2.0012720     0.4634390     0.3560030
  C        1.7579830    -0.9743980    -0.1079500
  C       -1.6233710     0.5871250     0.2278630
  H       -0.5227930     0.1057830    -1.5165510
  H        0.4809950     2.0448300     0.4733970
  H        1.0672970     1.7363810    -1.1533330
  H       -0.1801860    -1.9933440    -0.4418670
  H        0.0160370    -1.2410800     1.1417000
  H        1.9867890     0.4940190     1.4519300
  H        2.9643500     0.8718720     0.0334030
  H        2.0194460    -1.0766330    -1.1687710
  H        2.3164231    -1.6795814     0.4240559
  H       -1.9840770     1.5507320    -0.1638540
  H       -1.4499160     0.7092340     1.3093790
  H       -3.3958760    -0.2202110     0.4192690
units angstrom
no_reorient  #important for SAPT in psi4, default
symmetry c1  #important for SAPT in psi4, default
}

set PROPERTIES_ORIGIN ["COM"]
properties('MP2/aug-cc-pvtz', properties = ['dipole'])
--------------------------------------------------------------------------

    Molecular point group: c1
  Charge       = 0
  Multiplicity = 1
  Basis Set: AUG-CC-PVTZ
    Blend: AUG-CC-PVTZ
  Basis Set: (AUG-CC-PVTZ AUX)
    Blend: AUG-CC-PVTZ-JKFIT

    Orbital Energies [Eh]
    ---------------------

    Doubly Occupied:

       1A    -20.555925     2A    -11.271081     3A    -11.216390
       4A    -11.214857     5A    -11.212902     6A    -11.206490
       7A    -11.204447     8A     -1.352593     9A     -1.121968
      10A     -0.998242    11A     -0.956970    12A     -0.874584
      13A     -0.781345    14A     -0.753846    15A     -0.687466
      16A     -0.650018    17A     -0.638853    18A     -0.619351
      19A     -0.570112    20A     -0.561823    21A     -0.523308
      22A     -0.476536    23A     -0.470879    24A     -0.462380
      25A     -0.459463    26A     -0.457331    27A     -0.448387
      28A     -0.432137

  @DF-RHF Final Energy:  -309.16114381783530

   => Energetics <=

    Nuclear Repulsion Energy =            325.1535051167988968
    One-Electron Energy =               -1064.2699331795338367
    Two-Electron Energy =                 429.9552842448996444
    Total Energy =                       -309.1611438178352955
  Basis Set: (AUG-CC-PVTZ AUX)
    Blend: AUG-CC-PVTZ-RI
    Molecular point group: c1

    Geometry (in Angstrom), charge = 0, multiplicity = 1:

       Center              X                  Y                   Z               Mass
    ------------   -----------------  -----------------  -----------------  -----------------
         O           -2.532271487851    -0.443771610184    -0.018797824741    15.994914619570
         C           -0.288654487851     0.213689389816    -0.433934824741    12.000000000000
         C            0.834468512149     1.261157389816    -0.201418824741    12.000000000000
         C            0.281427512149    -1.117787610184     0.082406175259    12.000000000000
         C            2.034571512149     0.475648389816     0.364527175259    12.000000000000
         C            1.791282512149    -0.962188610184    -0.099425824741    12.000000000000
         C           -1.590071487851     0.599334389816     0.236387175259    12.000000000000
         H           -0.489493487851     0.117992389816    -1.508026824741     1.007825032230
         H            0.514294512149     2.057039389816     0.481921175259     1.007825032230
         H            1.100596512149     1.748590389816    -1.144808824741     1.007825032230
         H           -0.146886487851    -1.981134610184    -0.433342824741     1.007825032230
         H            0.049336512149    -1.228870610184     1.150224175259     1.007825032230
         H            2.020088512149     0.506228389816     1.460454175259     1.007825032230
         H            2.997649512149     0.884081389816     0.041927175259     1.007825032230
         H            2.052745512149    -1.064423610184    -1.160246824741     1.007825032230
         H            2.349722612149    -1.667372010184     0.432580075259     1.007825032230
         H           -1.950777487851     1.562941389816    -0.155329824741     1.007825032230
         H           -1.416616487851     0.721443389816     1.317903175259     1.007825032230
         H           -3.362576487851    -0.208001610184     0.427793175259     1.007825032230

  Basis Set: AUG-CC-PVTZ
    Blend: AUG-CC-PVTZ
  Basis Set: (AUG-CC-PVTZ AUX)
    Blend: AUG-CC-PVTZ-JKFIT
	 Reference Energy          =    -309.1611438178352955 [Eh]
	 Singles Energy            =      -0.0000000000000000 [Eh]
	 Same-Spin Energy          =      -0.3223745308923437 [Eh]
	 Opposite-Spin Energy      =      -1.1091875449252859 [Eh]
	 Correlation Energy        =      -1.4315620758176297 [Eh]
	 Total Energy              =    -310.5927058936529193 [Eh]

	 ================> DF-SCS-MP2 Energies <==================
	-----------------------------------------------------------
	 SCS Same-Spin Scale       =       0.3333333333333333 [-]
	 SCS Opposite-Spin Scale   =       1.2000000000000000 [-]
	 SCS Same-Spin Energy      =      -0.1074581769641146 [Eh]
	 SCS Opposite-Spin Energy  =      -1.3310250539103430 [Eh]
	 SCS Correlation Energy    =      -1.4384832308744575 [Eh]
	 SCS Total Energy          =    -310.5996270487097490 [Eh]
	-----------------------------------------------------------

  Dipole Moment: [D]
     X:    -0.1677      Y:     1.1418      Z:     0.7558     Total:     1.3795

*** Psi4 exiting successfully. Buy a developer a beer!
