                               Psi4 1.4a3.dev225

  ==> Input File <==

--------------------------------------------------------------------------
#psi4
#
memory 32 gb

molecule  {
0 1
  O       -2.5655710    -0.4559810    -0.0273220
  C       -0.3219540     0.2014800    -0.4424590
  C        0.8011690     1.2489480    -0.2099430
  C        0.2481280    -1.1299970     0.0738820
  C        2.0012720     0.4634390     0.3560030
  C        1.7579830    -0.9743980    -0.1079500
  C       -1.5574188     0.6601404     0.2457255
  H       -0.5227930     0.1057830    -1.5165510
  H        0.4809950     2.0448300     0.4733970
  H        1.0672970     1.7363810    -1.1533330
  H       -0.1801860    -1.9933440    -0.4418670
  H        0.0160370    -1.2410800     1.1417000
  H        1.9867890     0.4940190     1.4519300
  H        2.9643500     0.8718720     0.0334030
  H        2.0194460    -1.0766330    -1.1687710
  H        2.3431410    -1.7133200     0.4495090
  H       -1.9840770     1.5507320    -0.1638540
  H       -1.4499160     0.7092340     1.3093790
  H       -3.3958760    -0.2202110     0.4192690
units angstrom
no_reorient  #important for SAPT in psi4, default
symmetry c1  #important for SAPT in psi4, default
}

set PROPERTIES_ORIGIN ["COM"]
properties('MP2/aug-cc-pvtz', properties = ['dipole'])
--------------------------------------------------------------------------

    Molecular point group: c1
  Charge       = 0
  Multiplicity = 1
  Basis Set: AUG-CC-PVTZ
    Blend: AUG-CC-PVTZ
  Basis Set: (AUG-CC-PVTZ AUX)
    Blend: AUG-CC-PVTZ-JKFIT

    Orbital Energies [Eh]
    ---------------------

    Doubly Occupied:

       1A    -20.544091     2A    -11.271810     3A    -11.218556
       4A    -11.216620     5A    -11.214759     6A    -11.212237
       7A    -11.208971     8A     -1.316468     9A     -1.125725
      10A     -1.005311    11A     -0.958325    12A     -0.878386
      13A     -0.779773    14A     -0.758726    15A     -0.669848
      16A     -0.650707    17A     -0.635221    18A     -0.616642
      19A     -0.570203    20A     -0.555678    21A     -0.511753
      22A     -0.476404    23A     -0.472043    24A     -0.464042
      25A     -0.459767    26A     -0.456763    27A     -0.455133
      28A     -0.440112

  @DF-RHF Final Energy:  -309.15270603036424

   => Energetics <=

    Nuclear Repulsion Energy =            324.5127068028034500
    One-Electron Energy =               -1063.0426716985743951
    Two-Electron Energy =                 429.3772588654067022
    Total Energy =                       -309.1527060303642429
  Basis Set: (AUG-CC-PVTZ AUX)
    Blend: AUG-CC-PVTZ-RI
    Molecular point group: c1

    Geometry (in Angstrom), charge = 0, multiplicity = 1:

       Center              X                  Y                   Z               Mass
    ------------   -----------------  -----------------  -----------------  -----------------
         O           -2.540447759779    -0.452185958923    -0.021195717765    15.994914619570
         C           -0.296830759779     0.205275041077    -0.436332717765    12.000000000000
         C            0.826292240221     1.252743041077    -0.203816717765    12.000000000000
         C            0.273251240221    -1.126201958923     0.080008282235    12.000000000000
         C            2.026395240221     0.467234041077     0.362129282235    12.000000000000
         C            1.783106240221    -0.970602958923    -0.101823717765    12.000000000000
         C           -1.532295559779     0.663935441077     0.251851782235    12.000000000000
         H           -0.497669759779     0.109578041077    -1.510424717765     1.007825032230
         H            0.506118240221     2.048625041077     0.479523282235     1.007825032230
         H            1.092420240221     1.740176041077    -1.147206717765     1.007825032230
         H           -0.155062759779    -1.989548958923    -0.435740717765     1.007825032230
         H            0.041160240221    -1.237284958923     1.147826282235     1.007825032230
         H            2.011912240221     0.497814041077     1.458056282235     1.007825032230
         H            2.989473240221     0.875667041077     0.039529282235     1.007825032230
         H            2.044569240221    -1.072837958923    -1.162644717765     1.007825032230
         H            2.368264240221    -1.709524958923     0.455635282235     1.007825032230
         H           -1.958953759779     1.554527041077    -0.157727717765     1.007825032230
         H           -1.424792759779     0.713029041077     1.315505282235     1.007825032230
         H           -3.370752759779    -0.216415958923     0.425395282235     1.007825032230

  Basis Set: AUG-CC-PVTZ
    Blend: AUG-CC-PVTZ
  Basis Set: (AUG-CC-PVTZ AUX)
    Blend: AUG-CC-PVTZ-JKFIT
	 Reference Energy          =    -309.1527060303642429 [Eh]
	 Singles Energy            =      -0.0000000000000000 [Eh]
	 Same-Spin Energy          =      -0.3229288815346849 [Eh]
	 Opposite-Spin Energy      =      -1.1115623491761180 [Eh]
	 Correlation Energy        =      -1.4344912307108029 [Eh]
	 Total Energy              =    -310.5871972610750618 [Eh]

	 ================> DF-SCS-MP2 Energies <==================
	-----------------------------------------------------------
	 SCS Same-Spin Scale       =       0.3333333333333333 [-]
	 SCS Opposite-Spin Scale   =       1.2000000000000000 [-]
	 SCS Same-Spin Energy      =      -0.1076429605115616 [Eh]
	 SCS Opposite-Spin Energy  =      -1.3338748190113414 [Eh]
	 SCS Correlation Energy    =      -1.4415177795229031 [Eh]
	 SCS Total Energy          =    -310.5942238098871258 [Eh]
	-----------------------------------------------------------

  Dipole Moment: [D]
     X:     0.1226      Y:     1.3936      Z:     0.7879     Total:     1.6056

*** Psi4 exiting successfully. Buy a developer a beer!
