                               Psi4 1.4a3.dev225

  ==> Input File <==

--------------------------------------------------------------------------
#psi4
#
memory 32 gb

molecule  {
0 1
  O       -2.5655710    -0.4559810    -0.0273220
  C       -0.3407346     0.2114667    -0.3931817
  C        0.8011690     1.2489480    -0.2099430
  C        0.2481280    -1.1299970     0.0738820
  C        2.0012720     0.4634390     0.3560030
  C        1.7579830    -0.9743980    -0.1079500
  C       -1.6233710     0.5871250     0.2278630
  H       -0.5227930     0.1057830    -1.5165510
  H        0.4809950     2.0448300     0.4733970
  H        1.0672970     1.7363810    -1.1533330
  H       -0.1801860    -1.9933440    -0.4418670
  H        0.0160370    -1.2410800     1.1417000
  H        1.9867890     0.4940190     1.4519300
  H        2.9643500     0.8718720     0.0334030
  H        2.0194460    -1.0766330    -1.1687710
  H        2.3431410    -1.7133200     0.4495090
  H       -1.9840770     1.5507320    -0.1638540
  H       -1.4499160     0.7092340     1.3093790
  H       -3.3958760    -0.2202110     0.4192690
units angstrom
no_reorient  #important for SAPT in psi4, default
symmetry c1  #important for SAPT in psi4, default
}

set PROPERTIES_ORIGIN ["COM"]
properties('MP2/aug-cc-pvtz', properties = ['dipole'])
--------------------------------------------------------------------------

    Molecular point group: c1
  Charge       = 0
  Multiplicity = 1
  Basis Set: AUG-CC-PVTZ
    Blend: AUG-CC-PVTZ
  Basis Set: (AUG-CC-PVTZ AUX)
    Blend: AUG-CC-PVTZ-JKFIT

    Orbital Energies [Eh]
    ---------------------

    Doubly Occupied:

       1A    -20.557012     2A    -11.270544     3A    -11.218734
       4A    -11.216312     5A    -11.213998     6A    -11.211462
       7A    -11.207447     8A     -1.354164     9A     -1.123055
      10A     -1.003397    11A     -0.957051    12A     -0.875755
      13A     -0.779112    14A     -0.748899    15A     -0.689740
      16A     -0.650727    17A     -0.636517    18A     -0.622149
      19A     -0.568306    20A     -0.560507    21A     -0.524066
      22A     -0.474130    23A     -0.472777    24A     -0.466587
      25A     -0.461531    26A     -0.457405    27A     -0.448569
      28A     -0.424976

  @DF-RHF Final Energy:  -309.15845521995311

   => Energetics <=

    Nuclear Repulsion Energy =            325.2411752819880348
    One-Electron Energy =               -1064.4094066898580877
    Two-Electron Energy =                 430.0097761879169411
    Total Energy =                       -309.1584552199531117
  Basis Set: (AUG-CC-PVTZ AUX)
    Blend: AUG-CC-PVTZ-RI
    Molecular point group: c1

    Geometry (in Angstrom), charge = 0, multiplicity = 1:

       Center              X                  Y                   Z               Mass
    ------------   -----------------  -----------------  -----------------  -----------------
         O           -2.530288846418    -0.444629226435    -0.024962148609    15.994914619570
         C           -0.305452446418     0.222818473565    -0.390821848609    12.000000000000
         C            0.836451153582     1.260299773565    -0.207583148609    12.000000000000
         C            0.283410153582    -1.118645226435     0.076241851391    12.000000000000
         C            2.036554153582     0.474790773565     0.358362851391    12.000000000000
         C            1.793265153582    -0.963046226435    -0.105590148609    12.000000000000
         C           -1.588088846418     0.598476773565     0.230222851391    12.000000000000
         H           -0.487510846418     0.117134773565    -1.514191148609     1.007825032230
         H            0.516277153582     2.056181773565     0.475756851391     1.007825032230
         H            1.102579153582     1.747732773565    -1.150973148609     1.007825032230
         H           -0.144903846418    -1.981992226435    -0.439507148609     1.007825032230
         H            0.051319153582    -1.229728226435     1.144059851391     1.007825032230
         H            2.022071153582     0.505370773565     1.454289851391     1.007825032230
         H            2.999632153582     0.883223773565     0.035762851391     1.007825032230
         H            2.054728153582    -1.065281226435    -1.166411148609     1.007825032230
         H            2.378423153582    -1.701968226435     0.451868851391     1.007825032230
         H           -1.948794846418     1.562083773565    -0.161494148609     1.007825032230
         H           -1.414633846418     0.720585773565     1.311738851391     1.007825032230
         H           -3.360593846418    -0.208859226435     0.421628851391     1.007825032230

  Basis Set: AUG-CC-PVTZ
    Blend: AUG-CC-PVTZ
  Basis Set: (AUG-CC-PVTZ AUX)
    Blend: AUG-CC-PVTZ-JKFIT
	 Reference Energy          =    -309.1584552199531117 [Eh]
	 Singles Energy            =      -0.0000000000000000 [Eh]
	 Same-Spin Energy          =      -0.3227104926227422 [Eh]
	 Opposite-Spin Energy      =      -1.1099323005691903 [Eh]
	 Correlation Energy        =      -1.4326427931919326 [Eh]
	 Total Energy              =    -310.5910980131450287 [Eh]

	 ================> DF-SCS-MP2 Energies <==================
	-----------------------------------------------------------
	 SCS Same-Spin Scale       =       0.3333333333333333 [-]
	 SCS Opposite-Spin Scale   =       1.2000000000000000 [-]
	 SCS Same-Spin Energy      =      -0.1075701642075807 [Eh]
	 SCS Opposite-Spin Energy  =      -1.3319187606830283 [Eh]
	 SCS Correlation Energy    =      -1.4394889248906091 [Eh]
	 SCS Total Energy          =    -310.5979441448437228 [Eh]
	-----------------------------------------------------------

  Dipole Moment: [D]
     X:    -0.1735      Y:     1.1802      Z:     0.7718     Total:     1.4208

*** Psi4 exiting successfully. Buy a developer a beer!
