                               Psi4 1.4a3.dev225

  ==> Input File <==

--------------------------------------------------------------------------
#psi4
#
memory 32 gb

molecule  {
0 1
  O       -2.5655710    -0.4559810    -0.0273220
  C       -0.3219540     0.2014800    -0.4424590
  C        0.8011690     1.2489480    -0.2099430
  C        0.2481280    -1.1299970     0.0738820
  C        1.8456102     0.5653251     0.2825958
  C        1.7579830    -0.9743980    -0.1079500
  C       -1.6233710     0.5871250     0.2278630
  H       -0.5227930     0.1057830    -1.5165510
  H        0.4809950     2.0448300     0.4733970
  H        1.0672970     1.7363810    -1.1533330
  H       -0.1801860    -1.9933440    -0.4418670
  H        0.0160370    -1.2410800     1.1417000
  H        1.9867890     0.4940190     1.4519300
  H        2.9643500     0.8718720     0.0334030
  H        2.0194460    -1.0766330    -1.1687710
  H        2.3431410    -1.7133200     0.4495090
  H       -1.9840770     1.5507320    -0.1638540
  H       -1.4499160     0.7092340     1.3093790
  H       -3.3958760    -0.2202110     0.4192690
units angstrom
no_reorient  #important for SAPT in psi4, default
symmetry c1  #important for SAPT in psi4, default
}

set PROPERTIES_ORIGIN ["COM"]
properties('MP2/aug-cc-pvtz', properties = ['dipole'])
--------------------------------------------------------------------------

    Molecular point group: c1
  Charge       = 0
  Multiplicity = 1
  Basis Set: AUG-CC-PVTZ
    Blend: AUG-CC-PVTZ
  Basis Set: (AUG-CC-PVTZ AUX)
    Blend: AUG-CC-PVTZ-JKFIT

    Orbital Energies [Eh]
    ---------------------

    Doubly Occupied:

       1A    -20.557004     2A    -11.272697     3A    -11.222719
       4A    -11.219111     5A    -11.214062     6A    -11.206722
       7A    -11.206230     8A     -1.353716     9A     -1.143070
      10A     -0.996887    11A     -0.980277    12A     -0.866495
      13A     -0.773723    14A     -0.751657    15A     -0.691841
      16A     -0.651058    17A     -0.646523    18A     -0.618428
      19A     -0.577786    20A     -0.558304    21A     -0.527385
      22A     -0.518939    23A     -0.472701    24A     -0.466275
      25A     -0.452624    26A     -0.437369    27A     -0.423960
      28A     -0.417196

  @DF-RHF Final Energy:  -309.11463124985488

   => Energetics <=

    Nuclear Repulsion Energy =            327.2311489934493807
    One-Electron Energy =               -1068.2420463000064501
    Two-Electron Energy =                 431.8962660567022454
    Total Energy =                       -309.1146312498548809
  Basis Set: (AUG-CC-PVTZ AUX)
    Blend: AUG-CC-PVTZ-RI
    Molecular point group: c1

    Geometry (in Angstrom), charge = 0, multiplicity = 1:

       Center              X                  Y                   Z               Mass
    ------------   -----------------  -----------------  -----------------  -----------------
         O           -2.513877677999    -0.455647368672    -0.010253072476    15.994914619570
         C           -0.270260677999     0.201813631328    -0.425390072476    12.000000000000
         C            0.852862322001     1.249281631328    -0.192874072476    12.000000000000
         C            0.299821322001    -1.129663368672     0.090950927524    12.000000000000
         C            1.897303522001     0.565658731328     0.299664727524    12.000000000000
         C            1.809676322001    -0.974064368672    -0.090881072476    12.000000000000
         C           -1.571677677999     0.587458631328     0.244931927524    12.000000000000
         H           -0.471099677999     0.106116631328    -1.499482072476     1.007825032230
         H            0.532688322001     2.045163631328     0.490465927524     1.007825032230
         H            1.118990322001     1.736714631328    -1.136264072476     1.007825032230
         H           -0.128492677999    -1.993010368672    -0.424798072476     1.007825032230
         H            0.067730322001    -1.240746368672     1.158768927524     1.007825032230
         H            2.038482322001     0.494352631328     1.468998927524     1.007825032230
         H            3.016043322001     0.872205631328     0.050471927524     1.007825032230
         H            2.071139322001    -1.076299368672    -1.151702072476     1.007825032230
         H            2.394834322001    -1.712986368672     0.466577927524     1.007825032230
         H           -1.932383677999     1.551065631328    -0.146785072476     1.007825032230
         H           -1.398222677999     0.709567631328     1.326447927524     1.007825032230
         H           -3.344182677999    -0.219877368672     0.436337927524     1.007825032230

  Basis Set: AUG-CC-PVTZ
    Blend: AUG-CC-PVTZ
  Basis Set: (AUG-CC-PVTZ AUX)
    Blend: AUG-CC-PVTZ-JKFIT
	 Reference Energy          =    -309.1146312498548809 [Eh]
	 Singles Energy            =      -0.0000000000000000 [Eh]
	 Same-Spin Energy          =      -0.3249488550947494 [Eh]
	 Opposite-Spin Energy      =      -1.1128941398236050 [Eh]
	 Correlation Energy        =      -1.4378429949183542 [Eh]
	 Total Energy              =    -310.5524742447732365 [Eh]

	 ================> DF-SCS-MP2 Energies <==================
	-----------------------------------------------------------
	 SCS Same-Spin Scale       =       0.3333333333333333 [-]
	 SCS Opposite-Spin Scale   =       1.2000000000000000 [-]
	 SCS Same-Spin Energy      =      -0.1083162850315831 [Eh]
	 SCS Opposite-Spin Energy  =      -1.3354729677883259 [Eh]
	 SCS Correlation Energy    =      -1.4437892528199090 [Eh]
	 SCS Total Energy          =    -310.5584205026747782 [Eh]
	-----------------------------------------------------------

  Dipole Moment: [D]
     X:    -0.3219      Y:     1.1655      Z:     0.6953     Total:     1.3948

*** Psi4 exiting successfully. Buy a developer a beer!
