                               Psi4 1.4a3.dev225

  ==> Input File <==

--------------------------------------------------------------------------
#psi4
#
memory 32 gb

molecule  {
0 1
  O       -2.5655710    -0.4559810    -0.0273220
  C       -0.3219540     0.2014800    -0.4424590
  C        0.8011690     1.2489480    -0.2099430
  C        0.2481280    -1.1299970     0.0738820
  C        2.0012720     0.4634390     0.3560030
  C        1.7579830    -0.9743980    -0.1079500
  C       -1.6233710     0.5871250     0.2278630
  H       -0.5227930     0.1057830    -1.5165510
  H        0.4809950     2.0448300     0.4733970
  H        1.0672970     1.7363810    -1.1533330
  H       -0.1801860    -1.9933440    -0.4418670
  H        0.0582976    -1.2208533     0.9472651
  H        1.9867890     0.4940190     1.4519300
  H        2.9643500     0.8718720     0.0334030
  H        2.0194460    -1.0766330    -1.1687710
  H        2.3431410    -1.7133200     0.4495090
  H       -1.9840770     1.5507320    -0.1638540
  H       -1.4499160     0.7092340     1.3093790
  H       -3.3958760    -0.2202110     0.4192690
units angstrom
no_reorient  #important for SAPT in psi4, default
symmetry c1  #important for SAPT in psi4, default
}

set PROPERTIES_ORIGIN ["COM"]
properties('MP2/aug-cc-pvtz', properties = ['dipole'])
--------------------------------------------------------------------------

    Molecular point group: c1
  Charge       = 0
  Multiplicity = 1
  Basis Set: AUG-CC-PVTZ
    Blend: AUG-CC-PVTZ
  Basis Set: (AUG-CC-PVTZ AUX)
    Blend: AUG-CC-PVTZ-JKFIT

    Orbital Energies [Eh]
    ---------------------

    Doubly Occupied:

       1A    -20.556434     2A    -11.271472     3A    -11.215114
       4A    -11.214552     5A    -11.213090     6A    -11.209109
       7A    -11.181100     8A     -1.353120     9A     -1.125398
      10A     -0.996654    11A     -0.968043    12A     -0.876336
      13A     -0.791386    14A     -0.760572    15A     -0.687556
      16A     -0.649234    17A     -0.637980    18A     -0.619513
      19A     -0.583233    20A     -0.564515    21A     -0.526007
      22A     -0.475015    23A     -0.472392    24A     -0.462437
      25A     -0.461518    26A     -0.457840    27A     -0.450151
      28A     -0.432012

  @DF-RHF Final Energy:  -309.12938892561647

   => Energetics <=

    Nuclear Repulsion Energy =            325.9531630966960734
    One-Electron Energy =               -1065.7415362823255691
    Two-Electron Energy =                 430.6589842600130851
    Total Energy =                       -309.1293889256164675
  Basis Set: (AUG-CC-PVTZ AUX)
    Blend: AUG-CC-PVTZ-RI
    Molecular point group: c1

    Geometry (in Angstrom), charge = 0, multiplicity = 1:

       Center              X                  Y                   Z               Mass
    ------------   -----------------  -----------------  -----------------  -----------------
         O           -2.532966053562    -0.443635554711    -0.017096295074    15.994914619570
         C           -0.289349053562     0.213825445289    -0.432233295074    12.000000000000
         C            0.833773946438     1.261293445289    -0.199717295074    12.000000000000
         C            0.280732946438    -1.117651554711     0.084107704926    12.000000000000
         C            2.033876946438     0.475784445289     0.366228704926    12.000000000000
         C            1.790587946438    -0.962052554711    -0.097724295074    12.000000000000
         C           -1.590766053562     0.599470445289     0.238088704926    12.000000000000
         H           -0.490188053562     0.118128445289    -1.506325295074     1.007825032230
         H            0.513599946438     2.057175445289     0.483622704926     1.007825032230
         H            1.099901946438     1.748726445289    -1.143107295074     1.007825032230
         H           -0.147581053562    -1.980998554711    -0.431641295074     1.007825032230
         H            0.090902546438    -1.208507854711     0.957490804926     1.007825032230
         H            2.019393946438     0.506364445289     1.462155704926     1.007825032230
         H            2.996954946438     0.884217445289     0.043628704926     1.007825032230
         H            2.052050946438    -1.064287554711    -1.158545295074     1.007825032230
         H            2.375745946438    -1.700974554711     0.459734704926     1.007825032230
         H           -1.951472053562     1.563077445289    -0.153628295074     1.007825032230
         H           -1.417311053562     0.721579445289     1.319604704926     1.007825032230
         H           -3.363271053562    -0.207865554711     0.429494704926     1.007825032230

  Basis Set: AUG-CC-PVTZ
    Blend: AUG-CC-PVTZ
  Basis Set: (AUG-CC-PVTZ AUX)
    Blend: AUG-CC-PVTZ-JKFIT
	 Reference Energy          =    -309.1293889256164675 [Eh]
	 Singles Energy            =      -0.0000000000000000 [Eh]
	 Same-Spin Energy          =      -0.3223209325311878 [Eh]
	 Opposite-Spin Energy      =      -1.1087198424458757 [Eh]
	 Correlation Energy        =      -1.4310407749770635 [Eh]
	 Total Energy              =    -310.5604297005935450 [Eh]

	 ================> DF-SCS-MP2 Energies <==================
	-----------------------------------------------------------
	 SCS Same-Spin Scale       =       0.3333333333333333 [-]
	 SCS Opposite-Spin Scale   =       1.2000000000000000 [-]
	 SCS Same-Spin Energy      =      -0.1074403108437293 [Eh]
	 SCS Opposite-Spin Energy  =      -1.3304638109350508 [Eh]
	 SCS Correlation Energy    =      -1.4379041217787800 [Eh]
	 SCS Total Energy          =    -310.5672930473952533 [Eh]
	-----------------------------------------------------------

  Dipole Moment: [D]
     X:    -0.2283      Y:     1.1467      Z:     0.8460     Total:     1.4432

*** Psi4 exiting successfully. Buy a developer a beer!
