                               Psi4 1.4a3.dev225

  ==> Input File <==

--------------------------------------------------------------------------
#psi4
#
memory 32 gb

molecule  {
0 1
  O       -2.5655710    -0.4559810    -0.0273220
  C       -0.3219540     0.2014800    -0.4424590
  C        0.8011690     1.2489480    -0.2099430
  C        0.2481280    -1.1299970     0.0738820
  C        2.0012720     0.4634390     0.3560030
  C        1.7579830    -0.9743980    -0.1079500
  C       -1.6233710     0.5871250     0.2278630
  H       -0.5227930     0.1057830    -1.5165510
  H        0.4809950     2.0448300     0.4733970
  H        1.0672970     1.7363810    -1.1533330
  H       -0.1801860    -1.9933440    -0.4418670
  H        0.0160370    -1.2410800     1.1417000
  H        1.9867890     0.4940190     1.4519300
  H        2.9643500     0.8718720     0.0334030
  H        2.0194460    -1.0766330    -1.1687710
  H        2.3431410    -1.7133200     0.4495090
  H       -1.9840770     1.5507320    -0.1638540
  H       -1.4499160     0.7092340     1.3093790
  H       -3.3104380    -0.2444716     0.3733150
units angstrom
no_reorient  #important for SAPT in psi4, default
symmetry c1  #important for SAPT in psi4, default
}

set PROPERTIES_ORIGIN ["COM"]
properties('MP2/aug-cc-pvtz', properties = ['dipole'])
--------------------------------------------------------------------------

    Molecular point group: c1
  Charge       = 0
  Multiplicity = 1
  Basis Set: AUG-CC-PVTZ
    Blend: AUG-CC-PVTZ
  Basis Set: (AUG-CC-PVTZ AUX)
    Blend: AUG-CC-PVTZ-JKFIT

    Orbital Energies [Eh]
    ---------------------

    Doubly Occupied:

       1A    -20.545996     2A    -11.272603     3A    -11.217345
       4A    -11.215570     5A    -11.213683     6A    -11.211135
       7A    -11.207293     8A     -1.378773     9A     -1.123072
      10A     -1.001757    11A     -0.956993    12A     -0.879179
      13A     -0.779185    14A     -0.754923    15A     -0.707069
      16A     -0.652265    17A     -0.636245    18A     -0.621553
      19A     -0.570093    20A     -0.563463    21A     -0.527127
      22A     -0.474372    23A     -0.471824    24A     -0.463696
      25A     -0.460667    26A     -0.458294    27A     -0.450082
      28A     -0.433743

  @DF-RHF Final Energy:  -309.15700491906597

   => Energetics <=

    Nuclear Repulsion Energy =            325.5736967464448526
    One-Electron Energy =               -1064.9654079745755553
    Two-Electron Energy =                 430.2347063090647339
    Total Energy =                       -309.1570049190659688
  Basis Set: (AUG-CC-PVTZ AUX)
    Blend: AUG-CC-PVTZ-RI
    Molecular point group: c1

    Geometry (in Angstrom), charge = 0, multiplicity = 1:

       Center              X                  Y                   Z               Mass
    ------------   -----------------  -----------------  -----------------  -----------------
         O           -2.533400820070    -0.443187598418    -0.018591394879    15.994914619570
         C           -0.289783820070     0.214273401582    -0.433728394879    12.000000000000
         C            0.833339179930     1.261741401582    -0.201212394879    12.000000000000
         C            0.280298179930    -1.117203598418     0.082612605121    12.000000000000
         C            2.033442179930     0.476232401582     0.364733605121    12.000000000000
         C            1.790153179930    -0.961604598418    -0.099219394879    12.000000000000
         C           -1.591200820070     0.599918401582     0.236593605121    12.000000000000
         H           -0.490622820070     0.118576401582    -1.507820394879     1.007825032230
         H            0.513165179930     2.057623401582     0.482127605121     1.007825032230
         H            1.099467179930     1.749174401582    -1.144602394879     1.007825032230
         H           -0.148015820070    -1.980550598418    -0.433136394879     1.007825032230
         H            0.048207179930    -1.228286598418     1.150430605121     1.007825032230
         H            2.018959179930     0.506812401582     1.460660605121     1.007825032230
         H            2.996520179930     0.884665401582     0.042133605121     1.007825032230
         H            2.051616179930    -1.063839598418    -1.160040394879     1.007825032230
         H            2.375311179930    -1.700526598418     0.458239605121     1.007825032230
         H           -1.951906820070     1.563525401582    -0.155123394879     1.007825032230
         H           -1.417745820070     0.722027401582     1.318109605121     1.007825032230
         H           -3.278267820070    -0.231678198418     0.382045605121     1.007825032230

  Basis Set: AUG-CC-PVTZ
    Blend: AUG-CC-PVTZ
  Basis Set: (AUG-CC-PVTZ AUX)
    Blend: AUG-CC-PVTZ-JKFIT
	 Reference Energy          =    -309.1570049190659688 [Eh]
	 Singles Energy            =      -0.0000000000000000 [Eh]
	 Same-Spin Energy          =      -0.3212049431665890 [Eh]
	 Opposite-Spin Energy      =      -1.1064735628806290 [Eh]
	 Correlation Energy        =      -1.4276785060472181 [Eh]
	 Total Energy              =    -310.5846834251132123 [Eh]

	 ================> DF-SCS-MP2 Energies <==================
	-----------------------------------------------------------
	 SCS Same-Spin Scale       =       0.3333333333333333 [-]
	 SCS Opposite-Spin Scale   =       1.2000000000000000 [-]
	 SCS Same-Spin Energy      =      -0.1070683143888630 [Eh]
	 SCS Opposite-Spin Energy  =      -1.3277682754567548 [Eh]
	 SCS Correlation Energy    =      -1.4348365898456177 [Eh]
	 SCS Total Energy          =    -310.5918415089116138 [Eh]
	-----------------------------------------------------------

  Dipole Moment: [D]
     X:    -0.1158      Y:     1.1687      Z:     0.7149     Total:     1.3749

*** Psi4 exiting successfully. Buy a developer a beer!
