                               Psi4 1.4a3.dev225

  ==> Input File <==

--------------------------------------------------------------------------
#psi4
#
memory 32 gb

molecule  {
0 1
  O       -2.5655710    -0.4559810    -0.0273220
  C       -0.3314326     0.2066769    -0.4178952
  C        0.8011690     1.2489480    -0.2099430
  C        0.2481280    -1.1299970     0.0738820
  C        2.0012720     0.4634390     0.3560030
  C        1.7579830    -0.9743980    -0.1079500
  C       -1.6233710     0.5871250     0.2278630
  H       -0.5227930     0.1057830    -1.5165510
  H        0.4809950     2.0448300     0.4733970
  H        1.0672970     1.7363810    -1.1533330
  H       -0.1801860    -1.9933440    -0.4418670
  H        0.0160370    -1.2410800     1.1417000
  H        1.9867890     0.4940190     1.4519300
  H        2.9643500     0.8718720     0.0334030
  H        2.0194460    -1.0766330    -1.1687710
  H        2.3431410    -1.7133200     0.4495090
  H       -1.9840770     1.5507320    -0.1638540
  H       -1.4499160     0.7092340     1.3093790
  H       -3.3958760    -0.2202110     0.4192690
units angstrom
no_reorient  #important for SAPT in psi4, default
symmetry c1  #important for SAPT in psi4, default
}

set PROPERTIES_ORIGIN ["COM"]
properties('MP2/aug-cc-pvtz', properties = ['dipole'])
--------------------------------------------------------------------------

    Molecular point group: c1
  Charge       = 0
  Multiplicity = 1
  Basis Set: AUG-CC-PVTZ
    Blend: AUG-CC-PVTZ
  Basis Set: (AUG-CC-PVTZ AUX)
    Blend: AUG-CC-PVTZ-JKFIT

    Orbital Energies [Eh]
    ---------------------

    Doubly Occupied:

       1A    -20.556581     2A    -11.270970     3A    -11.217700
       4A    -11.215743     5A    -11.213691     6A    -11.211130
       7A    -11.207125     8A     -1.353492     9A     -1.122457
      10A     -1.000242    11A     -0.956794    12A     -0.874732
      13A     -0.778680    14A     -0.751443    15A     -0.688635
      16A     -0.650374    17A     -0.635795    18A     -0.620836
      19A     -0.568724    20A     -0.561170    21A     -0.523810
      22A     -0.474008    23A     -0.470831    24A     -0.464444
      25A     -0.460436    26A     -0.457699    27A     -0.448989
      28A     -0.429307

  @DF-RHF Final Energy:  -309.16103972148579

   => Energetics <=

    Nuclear Repulsion Energy =            325.0736333406455856
    One-Electron Energy =               -1064.0976701723736824
    Two-Electron Energy =                 429.8629971102423610
    Total Energy =                       -309.1610397214857926
  Basis Set: (AUG-CC-PVTZ AUX)
    Blend: AUG-CC-PVTZ-RI
    Molecular point group: c1

    Geometry (in Angstrom), charge = 0, multiplicity = 1:

       Center              X                  Y                   Z               Mass
    ------------   -----------------  -----------------  -----------------  -----------------
         O           -2.531404095909    -0.444054960470    -0.021999160188    15.994914619570
         C           -0.297265695909     0.218602939530    -0.412572360188    12.000000000000
         C            0.835335904091     1.260874039530    -0.204620160188    12.000000000000
         C            0.282294904091    -1.118070960470     0.079204839812    12.000000000000
         C            2.035438904091     0.475365039530     0.361325839812    12.000000000000
         C            1.792149904091    -0.962471960470    -0.102627160188    12.000000000000
         C           -1.589204095909     0.599051039530     0.233185839812    12.000000000000
         H           -0.488626095909     0.117709039530    -1.511228160188     1.007825032230
         H            0.515161904091     2.056756039530     0.478719839812     1.007825032230
         H            1.101463904091     1.748307039530    -1.148010160188     1.007825032230
         H           -0.146019095909    -1.981417960470    -0.436544160188     1.007825032230
         H            0.050203904091    -1.229153960470     1.147022839812     1.007825032230
         H            2.020955904091     0.505945039530     1.457252839812     1.007825032230
         H            2.998516904091     0.883798039530     0.038725839812     1.007825032230
         H            2.053612904091    -1.064706960470    -1.163448160188     1.007825032230
         H            2.377307904091    -1.701393960470     0.454831839812     1.007825032230
         H           -1.949910095909     1.562658039530    -0.158531160188     1.007825032230
         H           -1.415749095909     0.721160039530     1.314701839812     1.007825032230
         H           -3.361709095909    -0.208284960470     0.424591839812     1.007825032230

  Basis Set: AUG-CC-PVTZ
    Blend: AUG-CC-PVTZ
  Basis Set: (AUG-CC-PVTZ AUX)
    Blend: AUG-CC-PVTZ-JKFIT
	 Reference Energy          =    -309.1610397214857926 [Eh]
	 Singles Energy            =      -0.0000000000000000 [Eh]
	 Same-Spin Energy          =      -0.3225199924259704 [Eh]
	 Opposite-Spin Energy      =      -1.1096520901402225 [Eh]
	 Correlation Energy        =      -1.4321720825661930 [Eh]
	 Total Energy              =    -310.5932118040519754 [Eh]

	 ================> DF-SCS-MP2 Energies <==================
	-----------------------------------------------------------
	 SCS Same-Spin Scale       =       0.3333333333333333 [-]
	 SCS Opposite-Spin Scale   =       1.2000000000000000 [-]
	 SCS Same-Spin Energy      =      -0.1075066641419901 [Eh]
	 SCS Opposite-Spin Energy  =      -1.3315825081682668 [Eh]
	 SCS Correlation Energy    =      -1.4390891723102570 [Eh]
	 SCS Total Energy          =    -310.6001288937960680 [Eh]
	-----------------------------------------------------------

  Dipole Moment: [D]
     X:    -0.1851      Y:     1.1757      Z:     0.7584     Total:     1.4112

*** Psi4 exiting successfully. Buy a developer a beer!
