                               Psi4 1.4a3.dev225

  ==> Input File <==

--------------------------------------------------------------------------
#psi4
#
memory 32 gb

molecule  {
0 1
  O       -2.5655710    -0.4559810    -0.0273220
  C       -0.3219540     0.2014800    -0.4424590
  C        0.8011690     1.2489480    -0.2099430
  C        0.2481280    -1.1299970     0.0738820
  C        2.0012720     0.4634390     0.3560030
  C        1.7579830    -0.9743980    -0.1079500
  C       -1.6233710     0.5871250     0.2278630
  H       -0.5227930     0.1057830    -1.5165510
  H        0.4809950     2.0448300     0.4733970
  H        1.0672970     1.7363810    -1.1533330
  H       -0.1997781    -2.0328356    -0.4654586
  H        0.0160370    -1.2410800     1.1417000
  H        1.9867890     0.4940190     1.4519300
  H        2.9643500     0.8718720     0.0334030
  H        2.0194460    -1.0766330    -1.1687710
  H        2.3431410    -1.7133200     0.4495090
  H       -1.9840770     1.5507320    -0.1638540
  H       -1.4499160     0.7092340     1.3093790
  H       -3.3958760    -0.2202110     0.4192690
units angstrom
no_reorient  #important for SAPT in psi4, default
symmetry c1  #important for SAPT in psi4, default
}

set PROPERTIES_ORIGIN ["COM"]
properties('MP2/aug-cc-pvtz', properties = ['dipole'])
--------------------------------------------------------------------------

    Molecular point group: c1
  Charge       = 0
  Multiplicity = 1
  Basis Set: AUG-CC-PVTZ
    Blend: AUG-CC-PVTZ
  Basis Set: (AUG-CC-PVTZ AUX)
    Blend: AUG-CC-PVTZ-JKFIT

    Orbital Energies [Eh]
    ---------------------

    Doubly Occupied:

       1A    -20.556079     2A    -11.271576     3A    -11.217312
       4A    -11.215722     5A    -11.213855     6A    -11.212990
       7A    -11.211242     8A     -1.352777     9A     -1.121929
      10A     -0.997612    11A     -0.954772    12A     -0.873269
      13A     -0.777676    14A     -0.753259    15A     -0.687082
      16A     -0.646931    17A     -0.635428    18A     -0.619208
      19A     -0.568742    20A     -0.561694    21A     -0.523277
      22A     -0.472749    23A     -0.470160    24A     -0.462274
      25A     -0.458648    26A     -0.457587    27A     -0.447687
      28A     -0.432384

  @DF-RHF Final Energy:  -309.15984224637134

   => Energetics <=

    Nuclear Repulsion Energy =            324.6656260938166838
    One-Electron Energy =               -1063.3030929779574763
    Two-Electron Energy =                 429.4776246377695088
    Total Energy =                       -309.1598422463713405
  Basis Set: (AUG-CC-PVTZ AUX)
    Blend: AUG-CC-PVTZ-RI
    Molecular point group: c1

    Geometry (in Angstrom), charge = 0, multiplicity = 1:

       Center              X                  Y                   Z               Mass
    ------------   -----------------  -----------------  -----------------  -----------------
         O           -2.532343239721    -0.443034232799    -0.018816568756    15.994914619570
         C           -0.288726239721     0.214426767201    -0.433953568756    12.000000000000
         C            0.834396760279     1.261894767201    -0.201437568756    12.000000000000
         C            0.281355760279    -1.117050232799     0.082387431244    12.000000000000
         C            2.034499760279     0.476385767201     0.364508431244    12.000000000000
         C            1.791210760279    -0.961451232799    -0.099444568756    12.000000000000
         C           -1.590143239721     0.600071767201     0.236368431244    12.000000000000
         H           -0.489565239721     0.118729767201    -1.508045568756     1.007825032230
         H            0.514222760279     2.057776767201     0.481902431244     1.007825032230
         H            1.100524760279     1.749327767201    -1.144827568756     1.007825032230
         H           -0.166550339721    -2.019888832799    -0.456953168756     1.007825032230
         H            0.049264760279    -1.228133232799     1.150205431244     1.007825032230
         H            2.020016760279     0.506965767201     1.460435431244     1.007825032230
         H            2.997577760279     0.884818767201     0.041908431244     1.007825032230
         H            2.052673760279    -1.063686232799    -1.160265568756     1.007825032230
         H            2.376368760279    -1.700373232799     0.458014431244     1.007825032230
         H           -1.950849239721     1.563678767201    -0.155348568756     1.007825032230
         H           -1.416688239721     0.722180767201     1.317884431244     1.007825032230
         H           -3.362648239721    -0.207264232799     0.427774431244     1.007825032230

  Basis Set: AUG-CC-PVTZ
    Blend: AUG-CC-PVTZ
  Basis Set: (AUG-CC-PVTZ AUX)
    Blend: AUG-CC-PVTZ-JKFIT
	 Reference Energy          =    -309.1598422463713405 [Eh]
	 Singles Energy            =      -0.0000000000000000 [Eh]
	 Same-Spin Energy          =      -0.3224026814962610 [Eh]
	 Opposite-Spin Energy      =      -1.1098429855390688 [Eh]
	 Correlation Energy        =      -1.4322456670353299 [Eh]
	 Total Energy              =    -310.5920879134066581 [Eh]

	 ================> DF-SCS-MP2 Energies <==================
	-----------------------------------------------------------
	 SCS Same-Spin Scale       =       0.3333333333333333 [-]
	 SCS Opposite-Spin Scale   =       1.2000000000000000 [-]
	 SCS Same-Spin Energy      =      -0.1074675604987537 [Eh]
	 SCS Opposite-Spin Energy  =      -1.3318115826468826 [Eh]
	 SCS Correlation Energy    =      -1.4392791431456362 [Eh]
	 SCS Total Energy          =    -310.5991213895169949 [Eh]
	-----------------------------------------------------------

  Dipole Moment: [D]
     X:    -0.1821      Y:     1.2018      Z:     0.7535     Total:     1.4301

*** Psi4 exiting successfully. Buy a developer a beer!
