                               Psi4 1.4a3.dev225

  ==> Input File <==

--------------------------------------------------------------------------
#psi4
#
memory 32 gb

molecule  {
0 1
  O       -2.5655710    -0.4559810    -0.0273220
  C       -0.3219540     0.2014800    -0.4424590
  C        0.8011690     1.2489480    -0.2099430
  C        0.2295908    -1.0867018     0.0570923
  C        2.0012720     0.4634390     0.3560030
  C        1.7579830    -0.9743980    -0.1079500
  C       -1.6233710     0.5871250     0.2278630
  H       -0.5227930     0.1057830    -1.5165510
  H        0.4809950     2.0448300     0.4733970
  H        1.0672970     1.7363810    -1.1533330
  H       -0.1801860    -1.9933440    -0.4418670
  H        0.0160370    -1.2410800     1.1417000
  H        1.9867890     0.4940190     1.4519300
  H        2.9643500     0.8718720     0.0334030
  H        2.0194460    -1.0766330    -1.1687710
  H        2.3431410    -1.7133200     0.4495090
  H       -1.9840770     1.5507320    -0.1638540
  H       -1.4499160     0.7092340     1.3093790
  H       -3.3958760    -0.2202110     0.4192690
units angstrom
no_reorient  #important for SAPT in psi4, default
symmetry c1  #important for SAPT in psi4, default
}

set PROPERTIES_ORIGIN ["COM"]
properties('MP2/aug-cc-pvtz', properties = ['dipole'])
--------------------------------------------------------------------------

    Molecular point group: c1
  Charge       = 0
  Multiplicity = 1
  Basis Set: AUG-CC-PVTZ
    Blend: AUG-CC-PVTZ
  Basis Set: (AUG-CC-PVTZ AUX)
    Blend: AUG-CC-PVTZ-JKFIT

    Orbital Energies [Eh]
    ---------------------

    Doubly Occupied:

       1A    -20.556409     2A    -11.271805     3A    -11.215722
       4A    -11.214829     5A    -11.213105     6A    -11.211271
       7A    -11.208322     8A     -1.353229     9A     -1.126390
      10A     -0.999135    11A     -0.955165    12A     -0.875776
      13A     -0.778482    14A     -0.753469    15A     -0.688543
      16A     -0.650175    17A     -0.636541    18A     -0.620005
      19A     -0.567123    20A     -0.561533    21A     -0.525523
      22A     -0.476147    23A     -0.472005    24A     -0.464743
      25A     -0.457221    26A     -0.453643    27A     -0.444197
      28A     -0.436230

  @DF-RHF Final Energy:  -309.15915718564065

   => Energetics <=

    Nuclear Repulsion Energy =            325.5678389246047004
    One-Electron Energy =               -1065.0805132278046585
    Two-Electron Energy =                 430.3535171175592495
    Total Energy =                       -309.1591571856406517
  Basis Set: (AUG-CC-PVTZ AUX)
    Blend: AUG-CC-PVTZ-RI
    Molecular point group: c1

    Geometry (in Angstrom), charge = 0, multiplicity = 1:

       Center              X                  Y                   Z               Mass
    ------------   -----------------  -----------------  -----------------  -----------------
         O           -2.530318028500    -0.448622699632    -0.017041143650    15.994914619570
         C           -0.286701028500     0.208838300368    -0.432178143650    12.000000000000
         C            0.836421971500     1.256306300368    -0.199662143650    12.000000000000
         C            0.264843771500    -1.079343499632     0.067373156350    12.000000000000
         C            2.036524971500     0.470797300368     0.366283856350    12.000000000000
         C            1.793235971500    -0.967039699632    -0.097669143650    12.000000000000
         C           -1.588118028500     0.594483300368     0.238143856350    12.000000000000
         H           -0.487540028500     0.113141300368    -1.506270143650     1.007825032230
         H            0.516247971500     2.052188300368     0.483677856350     1.007825032230
         H            1.102549971500     1.743739300368    -1.143052143650     1.007825032230
         H           -0.144933028500    -1.985985699632    -0.431586143650     1.007825032230
         H            0.051289971500    -1.233721699632     1.151980856350     1.007825032230
         H            2.022041971500     0.501377300368     1.462210856350     1.007825032230
         H            2.999602971500     0.879230300368     0.043683856350     1.007825032230
         H            2.054698971500    -1.069274699632    -1.158490143650     1.007825032230
         H            2.378393971500    -1.705961699632     0.459789856350     1.007825032230
         H           -1.948824028500     1.558090300368    -0.153573143650     1.007825032230
         H           -1.414663028500     0.716592300368     1.319659856350     1.007825032230
         H           -3.360623028500    -0.212852699632     0.429549856350     1.007825032230

  Basis Set: AUG-CC-PVTZ
    Blend: AUG-CC-PVTZ
  Basis Set: (AUG-CC-PVTZ AUX)
    Blend: AUG-CC-PVTZ-JKFIT
	 Reference Energy          =    -309.1591571856406517 [Eh]
	 Singles Energy            =      -0.0000000000000000 [Eh]
	 Same-Spin Energy          =      -0.3227404886479757 [Eh]
	 Opposite-Spin Energy      =      -1.1098428189087690 [Eh]
	 Correlation Energy        =      -1.4325833075567447 [Eh]
	 Total Energy              =    -310.5917404931973920 [Eh]

	 ================> DF-SCS-MP2 Energies <==================
	-----------------------------------------------------------
	 SCS Same-Spin Scale       =       0.3333333333333333 [-]
	 SCS Opposite-Spin Scale   =       1.2000000000000000 [-]
	 SCS Same-Spin Energy      =      -0.1075801628826586 [Eh]
	 SCS Opposite-Spin Energy  =      -1.3318113826905227 [Eh]
	 SCS Correlation Energy    =      -1.4393915455731812 [Eh]
	 SCS Total Energy          =    -310.5985487312138389 [Eh]
	-----------------------------------------------------------

  Dipole Moment: [D]
     X:    -0.1968      Y:     1.1751      Z:     0.7428     Total:     1.4041

*** Psi4 exiting successfully. Buy a developer a beer!
