                               Psi4 1.4a3.dev225

  ==> Input File <==

--------------------------------------------------------------------------
#psi4
#
memory 32 gb

molecule  {
0 1
  O       -2.5655710    -0.4559810    -0.0273220
  C       -0.3219540     0.2014800    -0.4424590
  C        0.8011690     1.2489480    -0.2099430
  C        0.2481280    -1.1299970     0.0738820
  C        1.9674128     0.4339298     0.4529146
  C        1.7579830    -0.9743980    -0.1079500
  C       -1.6233710     0.5871250     0.2278630
  H       -0.5227930     0.1057830    -1.5165510
  H        0.4809950     2.0448300     0.4733970
  H        1.0672970     1.7363810    -1.1533330
  H       -0.1801860    -1.9933440    -0.4418670
  H        0.0160370    -1.2410800     1.1417000
  H        1.9867890     0.4940190     1.4519300
  H        2.9643500     0.8718720     0.0334030
  H        2.0194460    -1.0766330    -1.1687710
  H        2.3431410    -1.7133200     0.4495090
  H       -1.9840770     1.5507320    -0.1638540
  H       -1.4499160     0.7092340     1.3093790
  H       -3.3958760    -0.2202110     0.4192690
units angstrom
no_reorient  #important for SAPT in psi4, default
symmetry c1  #important for SAPT in psi4, default
}

set PROPERTIES_ORIGIN ["COM"]
properties('MP2/aug-cc-pvtz', properties = ['dipole'])
--------------------------------------------------------------------------

    Molecular point group: c1
  Charge       = 0
  Multiplicity = 1
  Basis Set: AUG-CC-PVTZ
    Blend: AUG-CC-PVTZ
  Basis Set: (AUG-CC-PVTZ AUX)
    Blend: AUG-CC-PVTZ-JKFIT

    Orbital Energies [Eh]
    ---------------------

    Doubly Occupied:

       1A    -20.555808     2A    -11.271131     3A    -11.216934
       4A    -11.215850     5A    -11.213462     6A    -11.211529
       7A    -11.206429     8A     -1.352525     9A     -1.121551
      10A     -0.997649    11A     -0.953674    12A     -0.874232
      13A     -0.786546    14A     -0.753013    15A     -0.687350
      16A     -0.646861    17A     -0.638364    18A     -0.614758
      19A     -0.572746    20A     -0.567883    21A     -0.523973
      22A     -0.480442    23A     -0.470415    24A     -0.465623
      25A     -0.453240    26A     -0.449062    27A     -0.444320
      28A     -0.432777

  @DF-RHF Final Energy:  -309.14848292334005

   => Energetics <=

    Nuclear Repulsion Energy =            324.9548572456592410
    One-Electron Energy =               -1063.8503880748498887
    Two-Electron Energy =                 429.7470479058505930
    Total Energy =                       -309.1484829233400546
  Basis Set: (AUG-CC-PVTZ AUX)
    Blend: AUG-CC-PVTZ-RI
    Molecular point group: c1

    Geometry (in Angstrom), charge = 0, multiplicity = 1:

       Center              X                  Y                   Z               Mass
    ------------   -----------------  -----------------  -----------------  -----------------
         O           -2.528481020040    -0.439893924095    -0.030673192346    15.994914619570
         C           -0.284864020040     0.217567075905    -0.445810192346    12.000000000000
         C            0.838258979960     1.265035075905    -0.213294192346    12.000000000000
         C            0.285217979960    -1.113909924095     0.070530807654    12.000000000000
         C            2.004502779960     0.450016875905     0.449563407654    12.000000000000
         C            1.795072979960    -0.958310924095    -0.111301192346    12.000000000000
         C           -1.586281020040     0.603212075905     0.224511807654    12.000000000000
         H           -0.485703020040     0.121870075905    -1.519902192346     1.007825032230
         H            0.518084979960     2.060917075905     0.470045807654     1.007825032230
         H            1.104386979960     1.752468075905    -1.156684192346     1.007825032230
         H           -0.143096020040    -1.977256924095    -0.445218192346     1.007825032230
         H            0.053126979960    -1.224992924095     1.138348807654     1.007825032230
         H            2.023878979960     0.510106075905     1.448578807654     1.007825032230
         H            3.001439979960     0.887959075905     0.030051807654     1.007825032230
         H            2.056535979960    -1.060545924095    -1.172122192346     1.007825032230
         H            2.380230979960    -1.697232924095     0.446157807654     1.007825032230
         H           -1.946987020040     1.566819075905    -0.167205192346     1.007825032230
         H           -1.412826020040     0.725321075905     1.306027807654     1.007825032230
         H           -3.358786020040    -0.204123924095     0.415917807654     1.007825032230

  Basis Set: AUG-CC-PVTZ
    Blend: AUG-CC-PVTZ
  Basis Set: (AUG-CC-PVTZ AUX)
    Blend: AUG-CC-PVTZ-JKFIT
	 Reference Energy          =    -309.1484829233400546 [Eh]
	 Singles Energy            =      -0.0000000000000000 [Eh]
	 Same-Spin Energy          =      -0.3225570000655690 [Eh]
	 Opposite-Spin Energy      =      -1.1100360743184152 [Eh]
	 Correlation Energy        =      -1.4325930743839841 [Eh]
	 Total Energy              =    -310.5810759977240423 [Eh]

	 ================> DF-SCS-MP2 Energies <==================
	-----------------------------------------------------------
	 SCS Same-Spin Scale       =       0.3333333333333333 [-]
	 SCS Opposite-Spin Scale   =       1.2000000000000000 [-]
	 SCS Same-Spin Energy      =      -0.1075190000218563 [Eh]
	 SCS Opposite-Spin Energy  =      -1.3320432891820981 [Eh]
	 SCS Correlation Energy    =      -1.4395622892039543 [Eh]
	 SCS Total Energy          =    -310.5880452125439888 [Eh]
	-----------------------------------------------------------

  Dipole Moment: [D]
     X:    -0.2204      Y:     1.1508      Z:     0.7867     Total:     1.4113

*** Psi4 exiting successfully. Buy a developer a beer!
