                               Psi4 1.4a3.dev225

  ==> Input File <==

--------------------------------------------------------------------------
#psi4
#
memory 32 gb

molecule  {
0 1
  O       -2.5655710    -0.4559810    -0.0273220
  C       -0.3219540     0.2014800    -0.4424590
  C        0.8011690     1.2489480    -0.2099430
  C        0.2481280    -1.1299970     0.0738820
  C        2.0012720     0.4634390     0.3560030
  C        1.7579830    -0.9743980    -0.1079500
  C       -1.6233710     0.5871250     0.2278630
  H       -0.5227930     0.1057830    -1.5165510
  H        0.4809950     2.0448300     0.4733970
  H        1.0672970     1.7363810    -1.1533330
  H       -0.1801860    -1.9933440    -0.4418670
  H        0.0160370    -1.2410800     1.1417000
  H        1.9867890     0.4940190     1.4519300
  H        2.9643500     0.8718720     0.0334030
  H        2.0194460    -1.0766330    -1.1687710
  H        2.2897053    -1.6458428     0.3986027
  H       -1.9840770     1.5507320    -0.1638540
  H       -1.4499160     0.7092340     1.3093790
  H       -3.3958760    -0.2202110     0.4192690
units angstrom
no_reorient  #important for SAPT in psi4, default
symmetry c1  #important for SAPT in psi4, default
}

set PROPERTIES_ORIGIN ["COM"]
properties('MP2/aug-cc-pvtz', properties = ['dipole'])
--------------------------------------------------------------------------

    Molecular point group: c1
  Charge       = 0
  Multiplicity = 1
  Basis Set: AUG-CC-PVTZ
    Blend: AUG-CC-PVTZ
  Basis Set: (AUG-CC-PVTZ AUX)
    Blend: AUG-CC-PVTZ-JKFIT

    Orbital Energies [Eh]
    ---------------------

    Doubly Occupied:

       1A    -20.555728     2A    -11.270800     3A    -11.216020
       4A    -11.214486     5A    -11.212484     6A    -11.206037
       7A    -11.198064     8A     -1.352387     9A     -1.122203
      10A     -0.999592    11A     -0.957543    12A     -0.875704
      13A     -0.784916    14A     -0.753563    15A     -0.687433
      16A     -0.650202    17A     -0.642612    18A     -0.619158
      19A     -0.571019    20A     -0.561768    21A     -0.523128
      22A     -0.479796    23A     -0.470755    24A     -0.462184
      25A     -0.459156    26A     -0.457077    27A     -0.448217
      28A     -0.432073

  @DF-RHF Final Energy:  -309.15621200802195

   => Energetics <=

    Nuclear Repulsion Energy =            325.4196322767159586
    One-Electron Energy =               -1064.7834749822409321
    Two-Electron Energy =                 430.2076306975030775
    Total Energy =                       -309.1562120080219529
  Basis Set: (AUG-CC-PVTZ AUX)
    Blend: AUG-CC-PVTZ-RI
    Molecular point group: c1

    Geometry (in Angstrom), charge = 0, multiplicity = 1:

       Center              X                  Y                   Z               Mass
    ------------   -----------------  -----------------  -----------------  -----------------
         O           -2.532002458113    -0.444111334514    -0.018541528649    15.994914619570
         C           -0.288385458113     0.213349665486    -0.433678528649    12.000000000000
         C            0.834737541887     1.260817665486    -0.201162528649    12.000000000000
         C            0.281696541887    -1.118127334514     0.082662471351    12.000000000000
         C            2.034840541887     0.475308665486     0.364783471351    12.000000000000
         C            1.791551541887    -0.962528334514    -0.099169528649    12.000000000000
         C           -1.589802458113     0.598994665486     0.236643471351    12.000000000000
         H           -0.489224458113     0.117652665486    -1.507770528649     1.007825032230
         H            0.514563541887     2.056699665486     0.482177471351     1.007825032230
         H            1.100865541887     1.748250665486    -1.144552528649     1.007825032230
         H           -0.146617458113    -1.981474334514    -0.433086528649     1.007825032230
         H            0.049605541887    -1.229210334514     1.150480471351     1.007825032230
         H            2.020357541887     0.505888665486     1.460710471351     1.007825032230
         H            2.997918541887     0.883741665486     0.042183471351     1.007825032230
         H            2.053014541887    -1.064763334514    -1.159990528649     1.007825032230
         H            2.323273841887    -1.633973134514     0.407383171351     1.007825032230
         H           -1.950508458113     1.562601665486    -0.155073528649     1.007825032230
         H           -1.416347458113     0.721103665486     1.318159471351     1.007825032230
         H           -3.362307458113    -0.208341334514     0.428049471351     1.007825032230

  Basis Set: AUG-CC-PVTZ
    Blend: AUG-CC-PVTZ
  Basis Set: (AUG-CC-PVTZ AUX)
    Blend: AUG-CC-PVTZ-JKFIT
	 Reference Energy          =    -309.1562120080219529 [Eh]
	 Singles Energy            =      -0.0000000000000000 [Eh]
	 Same-Spin Energy          =      -0.3223835928411924 [Eh]
	 Opposite-Spin Energy      =      -1.1089790984050170 [Eh]
	 Correlation Energy        =      -1.4313626912462094 [Eh]
	 Total Energy              =    -310.5875746992681457 [Eh]

	 ================> DF-SCS-MP2 Energies <==================
	-----------------------------------------------------------
	 SCS Same-Spin Scale       =       0.3333333333333333 [-]
	 SCS Opposite-Spin Scale   =       1.2000000000000000 [-]
	 SCS Same-Spin Energy      =      -0.1074611976137308 [Eh]
	 SCS Opposite-Spin Energy  =      -1.3307749180860202 [Eh]
	 SCS Correlation Energy    =      -1.4382361156997510 [Eh]
	 SCS Total Energy          =    -310.5944481237216905 [Eh]
	-----------------------------------------------------------

  Dipole Moment: [D]
     X:    -0.1436      Y:     1.1166      Z:     0.7631     Total:     1.3601

*** Psi4 exiting successfully. Buy a developer a beer!
