                               Psi4 1.4a3.dev225

  ==> Input File <==

--------------------------------------------------------------------------
#psi4
#
memory 32 gb

molecule  {
0 1
  O       -2.5655710    -0.4559810    -0.0273220
  C       -0.3219540     0.2014800    -0.4424590
  C        0.8011690     1.2489480    -0.2099430
  C        0.2481280    -1.1299970     0.0738820
  C        2.0012720     0.4634390     0.3560030
  C        1.7579830    -0.9743980    -0.1079500
  C       -1.6233710     0.5871250     0.2278630
  H       -0.5227930     0.1057830    -1.5165510
  H        0.4809950     2.0448300     0.4733970
  H        1.0794521     1.7586440    -1.1964214
  H       -0.1801860    -1.9933440    -0.4418670
  H        0.0160370    -1.2410800     1.1417000
  H        1.9867890     0.4940190     1.4519300
  H        2.9643500     0.8718720     0.0334030
  H        2.0194460    -1.0766330    -1.1687710
  H        2.3431410    -1.7133200     0.4495090
  H       -1.9840770     1.5507320    -0.1638540
  H       -1.4499160     0.7092340     1.3093790
  H       -3.3958760    -0.2202110     0.4192690
units angstrom
no_reorient  #important for SAPT in psi4, default
symmetry c1  #important for SAPT in psi4, default
}

set PROPERTIES_ORIGIN ["COM"]
properties('MP2/aug-cc-pvtz', properties = ['dipole'])
--------------------------------------------------------------------------

    Molecular point group: c1
  Charge       = 0
  Multiplicity = 1
  Basis Set: AUG-CC-PVTZ
    Blend: AUG-CC-PVTZ
  Basis Set: (AUG-CC-PVTZ AUX)
    Blend: AUG-CC-PVTZ-JKFIT

    Orbital Energies [Eh]
    ---------------------

    Doubly Occupied:

       1A    -20.556415     2A    -11.271696     3A    -11.221568
       4A    -11.217248     5A    -11.214016     6A    -11.211083
       7A    -11.207234     8A     -1.353082     9A     -1.121778
      10A     -0.997633    11A     -0.954781    12A     -0.873016
      13A     -0.777570    14A     -0.753297    15A     -0.686425
      16A     -0.649608    17A     -0.635393    18A     -0.619559
      19A     -0.566128    20A     -0.561964    21A     -0.523335
      22A     -0.474158    23A     -0.470580    24A     -0.462638
      25A     -0.459947    26A     -0.457077    27A     -0.447111
      28A     -0.431639

  @DF-RHF Final Energy:  -309.15992833627098

   => Energetics <=

    Nuclear Repulsion Energy =            324.6650189024803126
    One-Electron Energy =               -1063.2979362913761179
    Two-Electron Energy =                 429.4729890526247686
    Total Energy =                       -309.1599283362709798
  Basis Set: (AUG-CC-PVTZ AUX)
    Blend: AUG-CC-PVTZ-RI
    Molecular point group: c1

    Geometry (in Angstrom), charge = 0, multiplicity = 1:

       Center              X                  Y                   Z               Mass
    ------------   -----------------  -----------------  -----------------  -----------------
         O           -2.532662912032    -0.443656058841    -0.018620249486    15.994914619570
         C           -0.289045912032     0.213804941159    -0.433757249486    12.000000000000
         C            0.834077087968     1.261272941159    -0.201241249486    12.000000000000
         C            0.281036087968    -1.117672058841     0.082583750514    12.000000000000
         C            2.034180087968     0.475763941159     0.364704750514    12.000000000000
         C            1.790891087968    -0.962073058841    -0.099248249486    12.000000000000
         C           -1.590462912032     0.599449941159     0.236564750514    12.000000000000
         H           -0.489884912032     0.118107941159    -1.507849249486     1.007825032230
         H            0.513903087968     2.057154941159     0.482098750514     1.007825032230
         H            1.112360187968     1.770968941159    -1.187719649486     1.007825032230
         H           -0.147277912032    -1.981019058841    -0.433165249486     1.007825032230
         H            0.048945087968    -1.228755058841     1.150401750514     1.007825032230
         H            2.019697087968     0.506343941159     1.460631750514     1.007825032230
         H            2.997258087968     0.884196941159     0.042104750514     1.007825032230
         H            2.052354087968    -1.064308058841    -1.160069249486     1.007825032230
         H            2.376049087968    -1.700995058841     0.458210750514     1.007825032230
         H           -1.951168912032     1.563056941159    -0.155152249486     1.007825032230
         H           -1.417007912032     0.721558941159     1.318080750514     1.007825032230
         H           -3.362967912032    -0.207886058841     0.427970750514     1.007825032230

  Basis Set: AUG-CC-PVTZ
    Blend: AUG-CC-PVTZ
  Basis Set: (AUG-CC-PVTZ AUX)
    Blend: AUG-CC-PVTZ-JKFIT
	 Reference Energy          =    -309.1599283362709798 [Eh]
	 Singles Energy            =      -0.0000000000000000 [Eh]
	 Same-Spin Energy          =      -0.3223719560921662 [Eh]
	 Opposite-Spin Energy      =      -1.1098313162137927 [Eh]
	 Correlation Energy        =      -1.4322032723059590 [Eh]
	 Total Energy              =    -310.5921316085769490 [Eh]

	 ================> DF-SCS-MP2 Energies <==================
	-----------------------------------------------------------
	 SCS Same-Spin Scale       =       0.3333333333333333 [-]
	 SCS Opposite-Spin Scale   =       1.2000000000000000 [-]
	 SCS Same-Spin Energy      =      -0.1074573186973887 [Eh]
	 SCS Opposite-Spin Energy  =      -1.3317975794565513 [Eh]
	 SCS Correlation Energy    =      -1.4392548981539399 [Eh]
	 SCS Total Energy          =    -310.5991832344249133 [Eh]
	-----------------------------------------------------------

  Dipole Moment: [D]
     X:    -0.2044      Y:     1.1440      Z:     0.7734     Total:     1.3960

*** Psi4 exiting successfully. Buy a developer a beer!
