                               Psi4 1.4a3.dev225

  ==> Input File <==

--------------------------------------------------------------------------
#psi4
#
memory 32 gb

molecule  {
0 1
  O       -2.5655710    -0.4559810    -0.0273220
  C       -0.3219540     0.2014800    -0.4424590
  C        0.8011690     1.2489480    -0.2099430
  C        0.2481280    -1.1299970     0.0738820
  C        2.0012720     0.4634390     0.3560030
  C        1.7579830    -0.9743980    -0.1079500
  C       -1.6233710     0.5871250     0.2278630
  H       -0.5227930     0.1057830    -1.5165510
  H        0.4809950     2.0448300     0.4733970
  H        1.0672970     1.7363810    -1.1533330
  H       -0.1801860    -1.9933440    -0.4418670
  H        0.0160370    -1.2410800     1.1417000
  H        1.9867890     0.4940190     1.4519300
  H        2.9643500     0.8718720     0.0334030
  H        2.0194460    -1.0766330    -1.1687710
  H        2.3324539    -1.6998246     0.4393277
  H       -1.9840770     1.5507320    -0.1638540
  H       -1.4499160     0.7092340     1.3093790
  H       -3.3958760    -0.2202110     0.4192690
units angstrom
no_reorient  #important for SAPT in psi4, default
symmetry c1  #important for SAPT in psi4, default
}

set PROPERTIES_ORIGIN ["COM"]
properties('MP2/aug-cc-pvtz', properties = ['dipole'])
--------------------------------------------------------------------------

    Molecular point group: c1
  Charge       = 0
  Multiplicity = 1
  Basis Set: AUG-CC-PVTZ
    Blend: AUG-CC-PVTZ
  Basis Set: (AUG-CC-PVTZ AUX)
    Blend: AUG-CC-PVTZ-JKFIT

    Orbital Energies [Eh]
    ---------------------

    Doubly Occupied:

       1A    -20.556059     2A    -11.271270     3A    -11.216642
       4A    -11.215111     5A    -11.213191     6A    -11.208362
       7A    -11.206668     8A     -1.352732     9A     -1.121921
      10A     -0.997624    11A     -0.956710    12A     -0.874043
      13A     -0.779460    14A     -0.754039    15A     -0.687525
      16A     -0.650080    17A     -0.636581    18A     -0.619472
      19A     -0.569594    20A     -0.561831    21A     -0.523441
      22A     -0.474827    23A     -0.470684    24A     -0.462474
      25A     -0.459674    26A     -0.457486    27A     -0.448484
      28A     -0.432165

  @DF-RHF Final Energy:  -309.16209964178944

   => Energetics <=

    Nuclear Repulsion Energy =            325.0017221290539737
    One-Electron Energy =               -1063.9713493446520260
    Two-Electron Energy =                 429.8075275738086134
    Total Energy =                       -309.1620996417894389
  Basis Set: (AUG-CC-PVTZ AUX)
    Blend: AUG-CC-PVTZ-RI
    Molecular point group: c1

    Geometry (in Angstrom), charge = 0, multiplicity = 1:

       Center              X                  Y                   Z               Mass
    ------------   -----------------  -----------------  -----------------  -----------------
         O           -2.532432906902    -0.443567775183    -0.018951601187    15.994914619570
         C           -0.288815906902     0.213893224817    -0.434088601187    12.000000000000
         C            0.834307093098     1.261361224817    -0.201572601187    12.000000000000
         C            0.281266093098    -1.117583775183     0.082252398813    12.000000000000
         C            2.034410093098     0.475852224817     0.364373398813    12.000000000000
         C            1.791121093098    -0.961984775183    -0.099579601187    12.000000000000
         C           -1.590232906902     0.599538224817     0.236233398813    12.000000000000
         H           -0.489654906902     0.118196224817    -1.508180601187     1.007825032230
         H            0.514133093098     2.057243224817     0.481767398813     1.007825032230
         H            1.100435093098     1.748794224817    -1.144962601187     1.007825032230
         H           -0.147047906902    -1.980930775183    -0.433496601187     1.007825032230
         H            0.049175093098    -1.228666775183     1.150070398813     1.007825032230
         H            2.019927093098     0.506432224817     1.460300398813     1.007825032230
         H            2.997488093098     0.884285224817     0.041773398813     1.007825032230
         H            2.052584093098    -1.064219775183    -1.160400601187     1.007825032230
         H            2.365591993098    -1.687411375183     0.447698098813     1.007825032230
         H           -1.950938906902     1.563145224817    -0.155483601187     1.007825032230
         H           -1.416777906902     0.721647224817     1.317749398813     1.007825032230
         H           -3.362737906902    -0.207797775183     0.427639398813     1.007825032230

  Basis Set: AUG-CC-PVTZ
    Blend: AUG-CC-PVTZ
  Basis Set: (AUG-CC-PVTZ AUX)
    Blend: AUG-CC-PVTZ-JKFIT
	 Reference Energy          =    -309.1620996417894389 [Eh]
	 Singles Energy            =      -0.0000000000000000 [Eh]
	 Same-Spin Energy          =      -0.3223734502303687 [Eh]
	 Opposite-Spin Energy      =      -1.1093484652558114 [Eh]
	 Correlation Energy        =      -1.4317219154861802 [Eh]
	 Total Energy              =    -310.5938215572756462 [Eh]

	 ================> DF-SCS-MP2 Energies <==================
	-----------------------------------------------------------
	 SCS Same-Spin Scale       =       0.3333333333333333 [-]
	 SCS Opposite-Spin Scale   =       1.2000000000000000 [-]
	 SCS Same-Spin Energy      =      -0.1074578167434562 [Eh]
	 SCS Opposite-Spin Energy  =      -1.3312181583069738 [Eh]
	 SCS Correlation Energy    =      -1.4386759750504301 [Eh]
	 SCS Total Energy          =    -310.6007756168398828 [Eh]
	-----------------------------------------------------------

  Dipole Moment: [D]
     X:    -0.1840      Y:     1.1588      Z:     0.7505     Total:     1.3928

*** Psi4 exiting successfully. Buy a developer a beer!
