                               Psi4 1.4a3.dev225

  ==> Input File <==

--------------------------------------------------------------------------
#psi4
#
memory 32 gb

molecule  {
0 1
  O       -2.5655710    -0.4559810    -0.0273220
  C       -0.3219540     0.2014800    -0.4424590
  C        0.8011690     1.2489480    -0.2099430
  C        0.2481280    -1.1299970     0.0738820
  C        2.0012720     0.4634390     0.3560030
  C        1.7579830    -0.9743980    -0.1079500
  C       -1.6233710     0.5871250     0.2278630
  H       -0.5227930     0.1057830    -1.5165510
  H        0.4809950     2.0448300     0.4733970
  H        1.0672970     1.7363810    -1.1533330
  H       -0.1801860    -1.9933440    -0.4418670
  H        0.0160370    -1.2410800     1.1417000
  H        1.9867890     0.4940190     1.4519300
  H        2.9643500     0.8718720     0.0334030
  H        2.0194460    -1.0766330    -1.1687710
  H        2.3431410    -1.7133200     0.4495090
  H       -1.9840770     1.5507320    -0.1638540
  H       -1.4499160     0.7092340     1.3093790
  H       -3.3787884    -0.2250631     0.4100782
units angstrom
no_reorient  #important for SAPT in psi4, default
symmetry c1  #important for SAPT in psi4, default
}

set PROPERTIES_ORIGIN ["COM"]
properties('MP2/aug-cc-pvtz', properties = ['dipole'])
--------------------------------------------------------------------------

    Molecular point group: c1
  Charge       = 0
  Multiplicity = 1
  Basis Set: AUG-CC-PVTZ
    Blend: AUG-CC-PVTZ
  Basis Set: (AUG-CC-PVTZ AUX)
    Blend: AUG-CC-PVTZ-JKFIT

    Orbital Energies [Eh]
    ---------------------

    Doubly Occupied:

       1A    -20.554267     2A    -11.271628     3A    -11.216909
       4A    -11.215337     5A    -11.213456     6A    -11.210884
       7A    -11.206973     8A     -1.357353     9A     -1.122131
      10A     -0.998080    11A     -0.956644    12A     -0.874717
      13A     -0.778459    14A     -0.754314    15A     -0.691375
      16A     -0.650663    17A     -0.635342    18A     -0.619963
      19A     -0.569406    20A     -0.562137    21A     -0.524268
      22A     -0.474075    23A     -0.470546    24A     -0.462737
      25A     -0.459966    26A     -0.457729    27A     -0.448860
      28A     -0.432467

  @DF-RHF Final Energy:  -309.16293814802259

   => Energetics <=

    Nuclear Repulsion Energy =            325.0287316372717328
    One-Electron Energy =               -1064.0019674711863900
    Two-Electron Energy =                 429.8102976858921238
    Total Energy =                       -309.1629381480225902
  Basis Set: (AUG-CC-PVTZ AUX)
    Blend: AUG-CC-PVTZ-RI
    Molecular point group: c1

    Geometry (in Angstrom), charge = 0, multiplicity = 1:

       Center              X                  Y                   Z               Mass
    ------------   -----------------  -----------------  -----------------  -----------------
         O           -2.532712578890    -0.443383028568    -0.018961574836    15.994914619570
         C           -0.289095578890     0.214077971432    -0.434098574836    12.000000000000
         C            0.834027421110     1.261545971432    -0.201582574836    12.000000000000
         C            0.280986421110    -1.117399028568     0.082242425164    12.000000000000
         C            2.034130421110     0.476036971432     0.364363425164    12.000000000000
         C            1.790841421110    -0.961800028568    -0.099589574836    12.000000000000
         C           -1.590512578890     0.599722971432     0.236223425164    12.000000000000
         H           -0.489934578890     0.118380971432    -1.508190574836     1.007825032230
         H            0.513853421110     2.057427971432     0.481757425164     1.007825032230
         H            1.100155421110     1.748978971432    -1.144972574836     1.007825032230
         H           -0.147327578890    -1.980746028568    -0.433506574836     1.007825032230
         H            0.048895421110    -1.228482028568     1.150060425164     1.007825032230
         H            2.019647421110     0.506616971432     1.460290425164     1.007825032230
         H            2.997208421110     0.884469971432     0.041763425164     1.007825032230
         H            2.052304421110    -1.064035028568    -1.160410574836     1.007825032230
         H            2.375999421110    -1.700722028568     0.457869425164     1.007825032230
         H           -1.951218578890     1.563329971432    -0.155493574836     1.007825032230
         H           -1.417057578890     0.721831971432     1.317739425164     1.007825032230
         H           -3.345929978890    -0.212465128568     0.418438625164     1.007825032230

  Basis Set: AUG-CC-PVTZ
    Blend: AUG-CC-PVTZ
  Basis Set: (AUG-CC-PVTZ AUX)
    Blend: AUG-CC-PVTZ-JKFIT
	 Reference Energy          =    -309.1629381480225902 [Eh]
	 Singles Energy            =      -0.0000000000000000 [Eh]
	 Same-Spin Energy          =      -0.3221422807796859 [Eh]
	 Opposite-Spin Energy      =      -1.1088444357152909 [Eh]
	 Correlation Energy        =      -1.4309867164949768 [Eh]
	 Total Energy              =    -310.5939248645175894 [Eh]

	 ================> DF-SCS-MP2 Energies <==================
	-----------------------------------------------------------
	 SCS Same-Spin Scale       =       0.3333333333333333 [-]
	 SCS Opposite-Spin Scale   =       1.2000000000000000 [-]
	 SCS Same-Spin Energy      =      -0.1073807602598953 [Eh]
	 SCS Opposite-Spin Energy  =      -1.3306133228583490 [Eh]
	 SCS Correlation Energy    =      -1.4379940831182443 [Eh]
	 SCS Total Energy          =    -310.6009322311408596 [Eh]
	-----------------------------------------------------------

  Dipole Moment: [D]
     X:    -0.1810      Y:     1.1702      Z:     0.7404     Total:     1.3965

*** Psi4 exiting successfully. Buy a developer a beer!
