                               Psi4 1.4a3.dev225

  ==> Input File <==

--------------------------------------------------------------------------
#psi4
#
memory 32 gb

molecule  {
0 1
  O       -2.5655710    -0.4559810    -0.0273220
  C       -0.3219540     0.2014800    -0.4424590
  C        0.8011690     1.2489480    -0.2099430
  C        0.2110536    -1.0434065     0.0403026
  C        2.0012720     0.4634390     0.3560030
  C        1.7579830    -0.9743980    -0.1079500
  C       -1.6233710     0.5871250     0.2278630
  H       -0.5227930     0.1057830    -1.5165510
  H        0.4809950     2.0448300     0.4733970
  H        1.0672970     1.7363810    -1.1533330
  H       -0.1801860    -1.9933440    -0.4418670
  H        0.0160370    -1.2410800     1.1417000
  H        1.9867890     0.4940190     1.4519300
  H        2.9643500     0.8718720     0.0334030
  H        2.0194460    -1.0766330    -1.1687710
  H        2.3431410    -1.7133200     0.4495090
  H       -1.9840770     1.5507320    -0.1638540
  H       -1.4499160     0.7092340     1.3093790
  H       -3.3958760    -0.2202110     0.4192690
units angstrom
no_reorient  #important for SAPT in psi4, default
symmetry c1  #important for SAPT in psi4, default
}

set PROPERTIES_ORIGIN ["COM"]
properties('MP2/aug-cc-pvtz', properties = ['dipole'])
--------------------------------------------------------------------------

    Molecular point group: c1
  Charge       = 0
  Multiplicity = 1
  Basis Set: AUG-CC-PVTZ
    Blend: AUG-CC-PVTZ
  Basis Set: (AUG-CC-PVTZ AUX)
    Blend: AUG-CC-PVTZ-JKFIT

    Orbital Energies [Eh]
    ---------------------

    Doubly Occupied:

       1A    -20.556679     2A    -11.272302     3A    -11.216081
       4A    -11.212913     5A    -11.212825     6A    -11.211937
       7A    -11.210235     8A     -1.353660     9A     -1.131763
      10A     -1.001568    11A     -0.953674    12A     -0.878201
      13A     -0.779271    14A     -0.752200    15A     -0.689611
      16A     -0.650401    17A     -0.638047    18A     -0.620570
      19A     -0.566133    20A     -0.560839    21A     -0.528621
      22A     -0.484870    23A     -0.471254    24A     -0.466430
      25A     -0.456829    26A     -0.445176    27A     -0.440703
      28A     -0.435093

  @DF-RHF Final Energy:  -309.15080579300252

   => Energetics <=

    Nuclear Repulsion Energy =            326.2486550362216917
    One-Electron Energy =               -1066.4031463813573737
    Two-Electron Energy =                 431.0036855521332200
    Total Energy =                       -309.1508057930025188
  Basis Set: (AUG-CC-PVTZ AUX)
    Blend: AUG-CC-PVTZ-RI
    Molecular point group: c1

    Geometry (in Angstrom), charge = 0, multiplicity = 1:

       Center              X                  Y                   Z               Mass
    ------------   -----------------  -----------------  -----------------  -----------------
         O           -2.528095538405    -0.453813525400    -0.015028167475    15.994914619570
         C           -0.284478538405     0.203647474600    -0.430165167475    12.000000000000
         C            0.838644461595     1.251115474600    -0.197649167475    12.000000000000
         C            0.248529061595    -1.041239025400     0.052596432525    12.000000000000
         C            2.038747461595     0.465606474600     0.368296832525    12.000000000000
         C            1.795458461595    -0.972230525400    -0.095656167475    12.000000000000
         C           -1.585895538405     0.589292474600     0.240156832525    12.000000000000
         H           -0.485317538405     0.107950474600    -1.504257167475     1.007825032230
         H            0.518470461595     2.046997474600     0.485690832525     1.007825032230
         H            1.104772461595     1.738548474600    -1.141039167475     1.007825032230
         H           -0.142710538405    -1.991176525400    -0.429573167475     1.007825032230
         H            0.053512461595    -1.238912525400     1.153993832525     1.007825032230
         H            2.024264461595     0.496186474600     1.464223832525     1.007825032230
         H            3.001825461595     0.874039474600     0.045696832525     1.007825032230
         H            2.056921461595    -1.074465525400    -1.156477167475     1.007825032230
         H            2.380616461595    -1.711152525400     0.461802832525     1.007825032230
         H           -1.946601538405     1.552899474600    -0.151560167475     1.007825032230
         H           -1.412440538405     0.711401474600     1.321672832525     1.007825032230
         H           -3.358400538405    -0.218043525400     0.431562832525     1.007825032230

  Basis Set: AUG-CC-PVTZ
    Blend: AUG-CC-PVTZ
  Basis Set: (AUG-CC-PVTZ AUX)
    Blend: AUG-CC-PVTZ-JKFIT
	 Reference Energy          =    -309.1508057930025188 [Eh]
	 Singles Energy            =      -0.0000000000000000 [Eh]
	 Same-Spin Energy          =      -0.3233395434086697 [Eh]
	 Opposite-Spin Energy      =      -1.1106027565563727 [Eh]
	 Correlation Energy        =      -1.4339422999650424 [Eh]
	 Total Energy              =    -310.5847480929675726 [Eh]

	 ================> DF-SCS-MP2 Energies <==================
	-----------------------------------------------------------
	 SCS Same-Spin Scale       =       0.3333333333333333 [-]
	 SCS Opposite-Spin Scale   =       1.2000000000000000 [-]
	 SCS Same-Spin Energy      =      -0.1077798478028899 [Eh]
	 SCS Opposite-Spin Energy  =      -1.3327233078676473 [Eh]
	 SCS Correlation Energy    =      -1.4405031556705372 [Eh]
	 SCS Total Energy          =    -310.5913089486730314 [Eh]
	-----------------------------------------------------------

  Dipole Moment: [D]
     X:    -0.1975      Y:     1.1857      Z:     0.7367     Total:     1.4099

*** Psi4 exiting successfully. Buy a developer a beer!
