                               Psi4 1.4a3.dev225

  ==> Input File <==

--------------------------------------------------------------------------
#psi4
#
memory 32 gb

molecule  {
0 1
  O       -2.5655710    -0.4559810    -0.0273220
  C       -0.3219540     0.2014800    -0.4424590
  C        0.8011690     1.2489480    -0.2099430
  C        0.2481280    -1.1299970     0.0738820
  C        2.0012720     0.4634390     0.3560030
  C        1.7579830    -0.9743980    -0.1079500
  C       -1.6233710     0.5871250     0.2278630
  H       -0.5227930     0.1057830    -1.5165510
  H        0.4809950     2.0448300     0.4733970
  H        1.0672970     1.7363810    -1.1533330
  H       -0.1801860    -1.9933440    -0.4418670
  H        0.0160370    -1.2410800     1.1417000
  H        1.9867890     0.4940190     1.4519300
  H        2.9643500     0.8718720     0.0334030
  H        2.0194460    -1.0766330    -1.1687710
  H        2.3431410    -1.7133200     0.4495090
  H       -1.9840770     1.5507320    -0.1638540
  H       -1.4499160     0.7092340     1.3093790
  H       -3.4813140    -0.1959504     0.4652230
units angstrom
no_reorient  #important for SAPT in psi4, default
symmetry c1  #important for SAPT in psi4, default
}

set PROPERTIES_ORIGIN ["COM"]
properties('MP2/aug-cc-pvtz', properties = ['dipole'])
--------------------------------------------------------------------------

    Molecular point group: c1
  Charge       = 0
  Multiplicity = 1
  Basis Set: AUG-CC-PVTZ
    Blend: AUG-CC-PVTZ
  Basis Set: (AUG-CC-PVTZ AUX)
    Blend: AUG-CC-PVTZ-JKFIT

    Orbital Energies [Eh]
    ---------------------

    Doubly Occupied:

       1A    -20.564612     2A    -11.270423     3A    -11.216543
       4A    -11.215171     5A    -11.213247     6A    -11.210631
       7A    -11.206647     8A     -1.334396     9A     -1.121080
      10A     -0.993966    11A     -0.956291    12A     -0.869584
      13A     -0.777745    14A     -0.753615    15A     -0.671098
      16A     -0.646379    17A     -0.633828    18A     -0.617231
      19A     -0.568739    20A     -0.560377    21A     -0.519784
      22A     -0.473788    23A     -0.469030    24A     -0.461483
      25A     -0.459289    26A     -0.456812    27A     -0.446757
      28A     -0.430930

  @DF-RHF Final Energy:  -309.14859169766390

   => Energetics <=

    Nuclear Repulsion Energy =            324.3324395548935968
    One-Electron Energy =               -1062.7231143370695463
    Two-Electron Energy =                 429.2420830845119895
    Total Energy =                       -309.1485916976639032
  Basis Set: (AUG-CC-PVTZ AUX)
    Blend: AUG-CC-PVTZ-RI
    Molecular point group: c1

    Geometry (in Angstrom), charge = 0, multiplicity = 1:

       Center              X                  Y                   Z               Mass
    ------------   -----------------  -----------------  -----------------  -----------------
         O           -2.531680217121    -0.443676173289    -0.019516844772    15.994914619570
         C           -0.288063217121     0.213784826711    -0.434653844772    12.000000000000
         C            0.835059782879     1.261252826711    -0.202137844772    12.000000000000
         C            0.282018782879    -1.117692173289     0.081687155228    12.000000000000
         C            2.035162782879     0.475743826711     0.363808155228    12.000000000000
         C            1.791873782879    -0.962093173289    -0.100144844772    12.000000000000
         C           -1.589480217121     0.599429826711     0.235668155228    12.000000000000
         H           -0.488902217121     0.118087826711    -1.508745844772     1.007825032230
         H            0.514885782879     2.057134826711     0.481202155228     1.007825032230
         H            1.101187782879     1.748685826711    -1.145527844772     1.007825032230
         H           -0.146295217121    -1.981039173289    -0.434061844772     1.007825032230
         H            0.049927782879    -1.228775173289     1.149505155228     1.007825032230
         H            2.020679782879     0.506323826711     1.459735155228     1.007825032230
         H            2.998240782879     0.884176826711     0.041208155228     1.007825032230
         H            2.053336782879    -1.064328173289    -1.160965844772     1.007825032230
         H            2.377031782879    -1.701015173289     0.457314155228     1.007825032230
         H           -1.950186217121     1.563036826711    -0.156048844772     1.007825032230
         H           -1.416025217121     0.721538826711     1.317184155228     1.007825032230
         H           -3.447423217121    -0.183645573289     0.473028155228     1.007825032230

  Basis Set: AUG-CC-PVTZ
    Blend: AUG-CC-PVTZ
  Basis Set: (AUG-CC-PVTZ AUX)
    Blend: AUG-CC-PVTZ-JKFIT
	 Reference Energy          =    -309.1485916976639032 [Eh]
	 Singles Energy            =      -0.0000000000000000 [Eh]
	 Same-Spin Energy          =      -0.3234848029476664 [Eh]
	 Opposite-Spin Energy      =      -1.1127453511211491 [Eh]
	 Correlation Energy        =      -1.4362301540688156 [Eh]
	 Total Energy              =    -310.5848218517327268 [Eh]

	 ================> DF-SCS-MP2 Energies <==================
	-----------------------------------------------------------
	 SCS Same-Spin Scale       =       0.3333333333333333 [-]
	 SCS Opposite-Spin Scale   =       1.2000000000000000 [-]
	 SCS Same-Spin Energy      =      -0.1078282676492221 [Eh]
	 SCS Opposite-Spin Energy  =      -1.3352944213453790 [Eh]
	 SCS Correlation Energy    =      -1.4431226889946012 [Eh]
	 SCS Total Energy          =    -310.5917143866585093 [Eh]
	-----------------------------------------------------------

  Dipole Moment: [D]
     X:    -0.2570      Y:     1.1778      Z:     0.7757     Total:     1.4335

*** Psi4 exiting successfully. Buy a developer a beer!
