                               Psi4 1.4a3.dev225

  ==> Input File <==

--------------------------------------------------------------------------
#psi4
#
memory 32 gb

molecule  {
0 1
  O       -2.5655710    -0.4559810    -0.0273220
  C       -0.3219540     0.2014800    -0.4424590
  C        0.8011690     1.2489480    -0.2099430
  C        0.2481280    -1.1299970     0.0738820
  C        2.0012720     0.4634390     0.3560030
  C        1.7579830    -0.9743980    -0.1079500
  C       -1.6233710     0.5871250     0.2278630
  H       -0.5227930     0.1057830    -1.5165510
  H        0.4809950     2.0448300     0.4733970
  H        1.0672970     1.7363810    -1.1533330
  H       -0.1801860    -1.9933440    -0.4418670
  H        0.0118109    -1.2431027     1.1611435
  H        1.9867890     0.4940190     1.4519300
  H        2.9643500     0.8718720     0.0334030
  H        2.0194460    -1.0766330    -1.1687710
  H        2.3431410    -1.7133200     0.4495090
  H       -1.9840770     1.5507320    -0.1638540
  H       -1.4499160     0.7092340     1.3093790
  H       -3.3958760    -0.2202110     0.4192690
units angstrom
no_reorient  #important for SAPT in psi4, default
symmetry c1  #important for SAPT in psi4, default
}

set PROPERTIES_ORIGIN ["COM"]
properties('MP2/aug-cc-pvtz', properties = ['dipole'])
--------------------------------------------------------------------------

    Molecular point group: c1
  Charge       = 0
  Multiplicity = 1
  Basis Set: AUG-CC-PVTZ
    Blend: AUG-CC-PVTZ
  Basis Set: (AUG-CC-PVTZ AUX)
    Blend: AUG-CC-PVTZ-JKFIT

    Orbital Energies [Eh]
    ---------------------

    Doubly Occupied:

       1A    -20.556125     2A    -11.271409     3A    -11.217072
       4A    -11.215382     5A    -11.213463     6A    -11.211097
       7A    -11.209399     8A     -1.352802     9A     -1.121782
      10A     -0.997376    11A     -0.955908    12A     -0.873603
      13A     -0.777665    14A     -0.753363    15A     -0.687596
      16A     -0.650283    17A     -0.634935    18A     -0.619577
      19A     -0.568621    20A     -0.560960    21A     -0.523243
      22A     -0.474210    23A     -0.470016    24A     -0.462627
      25A     -0.459792    26A     -0.457264    27A     -0.448026
      28A     -0.432178

  @DF-RHF Final Energy:  -309.16152517229938

   => Energetics <=

    Nuclear Repulsion Energy =            324.8114759432103256
    One-Electron Energy =               -1063.5944530123022105
    Two-Electron Energy =                 429.6214518967925073
    Total Energy =                       -309.1615251722993776
  Basis Set: (AUG-CC-PVTZ AUX)
    Blend: AUG-CC-PVTZ-RI
    Molecular point group: c1

    Geometry (in Angstrom), charge = 0, multiplicity = 1:

       Center              X                  Y                   Z               Mass
    ------------   -----------------  -----------------  -----------------  -----------------
         O           -2.532497964696    -0.443411518666    -0.019249902401    15.994914619570
         C           -0.288880964696     0.214049481334    -0.434386902401    12.000000000000
         C            0.834242035304     1.261517481334    -0.201870902401    12.000000000000
         C            0.281201035304    -1.117427518666     0.081954097599    12.000000000000
         C            2.034345035304     0.476008481334     0.364075097599    12.000000000000
         C            1.791056035304    -0.961828518666    -0.099877902401    12.000000000000
         C           -1.590297964696     0.599694481334     0.235935097599    12.000000000000
         H           -0.489719964696     0.118352481334    -1.508478902401     1.007825032230
         H            0.514068035304     2.057399481334     0.481469097599     1.007825032230
         H            1.100370035304     1.748950481334    -1.145260902401     1.007825032230
         H           -0.147112964696    -1.980774518666    -0.433794902401     1.007825032230
         H            0.044883935304    -1.230533218666     1.169215597599     1.007825032230
         H            2.019862035304     0.506588481334     1.460002097599     1.007825032230
         H            2.997423035304     0.884441481334     0.041475097599     1.007825032230
         H            2.052519035304    -1.064063518666    -1.160698902401     1.007825032230
         H            2.376214035304    -1.700750518666     0.457581097599     1.007825032230
         H           -1.951003964696     1.563301481334    -0.155781902401     1.007825032230
         H           -1.416842964696     0.721803481334     1.317451097599     1.007825032230
         H           -3.362802964696    -0.207641518666     0.427341097599     1.007825032230

  Basis Set: AUG-CC-PVTZ
    Blend: AUG-CC-PVTZ
  Basis Set: (AUG-CC-PVTZ AUX)
    Blend: AUG-CC-PVTZ-JKFIT
	 Reference Energy          =    -309.1615251722993776 [Eh]
	 Singles Energy            =      -0.0000000000000000 [Eh]
	 Same-Spin Energy          =      -0.3223873690014956 [Eh]
	 Opposite-Spin Energy      =      -1.1096071422399216 [Eh]
	 Correlation Energy        =      -1.4319945112414172 [Eh]
	 Total Energy              =    -310.5935196835408192 [Eh]

	 ================> DF-SCS-MP2 Energies <==================
	-----------------------------------------------------------
	 SCS Same-Spin Scale       =       0.3333333333333333 [-]
	 SCS Opposite-Spin Scale   =       1.2000000000000000 [-]
	 SCS Same-Spin Energy      =      -0.1074624563338318 [Eh]
	 SCS Opposite-Spin Energy  =      -1.3315285706879059 [Eh]
	 SCS Correlation Energy    =      -1.4389910270217376 [Eh]
	 SCS Total Energy          =    -310.6005161993211345 [Eh]
	-----------------------------------------------------------

  Dipole Moment: [D]
     X:    -0.1912      Y:     1.1747      Z:     0.7328     Total:     1.3976

*** Psi4 exiting successfully. Buy a developer a beer!
