                               Psi4 1.4a3.dev225

  ==> Input File <==

--------------------------------------------------------------------------
#psi4
#
memory 32 gb

molecule  {
0 1
  O       -2.5655710    -0.4559810    -0.0273220
  C       -0.3219540     0.2014800    -0.4424590
  C        0.8011690     1.2489480    -0.2099430
  C        0.2481280    -1.1299970     0.0738820
  C        2.0012720     0.4634390     0.3560030
  C        1.7579830    -0.9743980    -0.1079500
  C       -1.6233710     0.5871250     0.2278630
  H       -0.5227930     0.1057830    -1.5165510
  H        0.4809950     2.0448300     0.4733970
  H        1.0672970     1.7363810    -1.1533330
  H       -0.1801860    -1.9933440    -0.4418670
  H        0.0160370    -1.2410800     1.1417000
  H        1.9861285     0.4954135     1.5019062
  H        2.9643500     0.8718720     0.0334030
  H        2.0194460    -1.0766330    -1.1687710
  H        2.3431410    -1.7133200     0.4495090
  H       -1.9840770     1.5507320    -0.1638540
  H       -1.4499160     0.7092340     1.3093790
  H       -3.3958760    -0.2202110     0.4192690
units angstrom
no_reorient  #important for SAPT in psi4, default
symmetry c1  #important for SAPT in psi4, default
}

set PROPERTIES_ORIGIN ["COM"]
properties('MP2/aug-cc-pvtz', properties = ['dipole'])
--------------------------------------------------------------------------

    Molecular point group: c1
  Charge       = 0
  Multiplicity = 1
  Basis Set: AUG-CC-PVTZ
    Blend: AUG-CC-PVTZ
  Basis Set: (AUG-CC-PVTZ AUX)
    Blend: AUG-CC-PVTZ-JKFIT

    Orbital Energies [Eh]
    ---------------------

    Doubly Occupied:

       1A    -20.556243     2A    -11.271506     3A    -11.219771
       4A    -11.217072     5A    -11.215808     6A    -11.211470
       7A    -11.207051     8A     -1.352921     9A     -1.121687
      10A     -0.996643    11A     -0.956165    12A     -0.873268
      13A     -0.775189    14A     -0.754137    15A     -0.687575
      16A     -0.650451    17A     -0.633658    18A     -0.619560
      19A     -0.569409    20A     -0.559155    21A     -0.523138
      22A     -0.474402    23A     -0.470731    24A     -0.463006
      25A     -0.460246    26A     -0.454760    27A     -0.447767
      28A     -0.431956

  @DF-RHF Final Energy:  -309.15999287644075

   => Energetics <=

    Nuclear Repulsion Energy =            324.6808422709382285
    One-Electron Energy =               -1063.3321767920206184
    Two-Electron Energy =                 429.4913416446416363
    Total Energy =                       -309.1599928764407537
  Basis Set: (AUG-CC-PVTZ AUX)
    Blend: AUG-CC-PVTZ-RI
    Molecular point group: c1

    Geometry (in Angstrom), charge = 0, multiplicity = 1:

       Center              X                  Y                   Z               Mass
    ------------   -----------------  -----------------  -----------------  -----------------
         O           -2.532533867818    -0.443445927503    -0.019557345539    15.994914619570
         C           -0.288916867818     0.214015072497    -0.434694345539    12.000000000000
         C            0.834206132182     1.261483072497    -0.202178345539    12.000000000000
         C            0.281165132182    -1.117461927503     0.081646654461    12.000000000000
         C            2.034309132182     0.475974072497     0.363767654461    12.000000000000
         C            1.791020132182    -0.961862927503    -0.100185345539    12.000000000000
         C           -1.590333867818     0.599660072497     0.235627654461    12.000000000000
         H           -0.489755867818     0.118318072497    -1.508786345539     1.007825032230
         H            0.514032132182     2.057365072497     0.481161654461     1.007825032230
         H            1.100334132182     1.748916072497    -1.145568345539     1.007825032230
         H           -0.147148867818    -1.980808927503    -0.434102345539     1.007825032230
         H            0.049074132182    -1.228544927503     1.149464654461     1.007825032230
         H            2.019165632182     0.507948572497     1.509670854461     1.007825032230
         H            2.997387132182     0.884407072497     0.041167654461     1.007825032230
         H            2.052483132182    -1.064097927503    -1.161006345539     1.007825032230
         H            2.376178132182    -1.700784927503     0.457273654461     1.007825032230
         H           -1.951039867818     1.563267072497    -0.156089345539     1.007825032230
         H           -1.416878867818     0.721769072497     1.317143654461     1.007825032230
         H           -3.362838867818    -0.207675927503     0.427033654461     1.007825032230

  Basis Set: AUG-CC-PVTZ
    Blend: AUG-CC-PVTZ
  Basis Set: (AUG-CC-PVTZ AUX)
    Blend: AUG-CC-PVTZ-JKFIT
	 Reference Energy          =    -309.1599928764407537 [Eh]
	 Singles Energy            =      -0.0000000000000000 [Eh]
	 Same-Spin Energy          =      -0.3223684733684342 [Eh]
	 Opposite-Spin Energy      =      -1.1097980094275586 [Eh]
	 Correlation Energy        =      -1.4321664827959928 [Eh]
	 Total Energy              =    -310.5921593592367458 [Eh]

	 ================> DF-SCS-MP2 Energies <==================
	-----------------------------------------------------------
	 SCS Same-Spin Scale       =       0.3333333333333333 [-]
	 SCS Opposite-Spin Scale   =       1.2000000000000000 [-]
	 SCS Same-Spin Energy      =      -0.1074561577894780 [Eh]
	 SCS Opposite-Spin Energy  =      -1.3317576113130702 [Eh]
	 SCS Correlation Energy    =      -1.4392137691025484 [Eh]
	 SCS Total Energy          =    -310.5992066455432905 [Eh]
	-----------------------------------------------------------

  Dipole Moment: [D]
     X:    -0.2047      Y:     1.1669      Z:     0.7082     Total:     1.3802

*** Psi4 exiting successfully. Buy a developer a beer!
