                               Psi4 1.4a3.dev225

  ==> Input File <==

--------------------------------------------------------------------------
#psi4
#
memory 32 gb

molecule  {
0 1
  O       -2.5655710    -0.4559810    -0.0273220
  C       -0.3219540     0.2014800    -0.4424590
  C        0.8156304     1.2624352    -0.2069491
  C        0.2481280    -1.1299970     0.0738820
  C        2.0012720     0.4634390     0.3560030
  C        1.7579830    -0.9743980    -0.1079500
  C       -1.6233710     0.5871250     0.2278630
  H       -0.5227930     0.1057830    -1.5165510
  H        0.4809950     2.0448300     0.4733970
  H        1.0672970     1.7363810    -1.1533330
  H       -0.1801860    -1.9933440    -0.4418670
  H        0.0160370    -1.2410800     1.1417000
  H        1.9867890     0.4940190     1.4519300
  H        2.9643500     0.8718720     0.0334030
  H        2.0194460    -1.0766330    -1.1687710
  H        2.3431410    -1.7133200     0.4495090
  H       -1.9840770     1.5507320    -0.1638540
  H       -1.4499160     0.7092340     1.3093790
  H       -3.3958760    -0.2202110     0.4192690
units angstrom
no_reorient  #important for SAPT in psi4, default
symmetry c1  #important for SAPT in psi4, default
}

set PROPERTIES_ORIGIN ["COM"]
properties('MP2/aug-cc-pvtz', properties = ['dipole'])
--------------------------------------------------------------------------

    Molecular point group: c1
  Charge       = 0
  Multiplicity = 1
  Basis Set: AUG-CC-PVTZ
    Blend: AUG-CC-PVTZ
  Basis Set: (AUG-CC-PVTZ AUX)
    Blend: AUG-CC-PVTZ-JKFIT

    Orbital Energies [Eh]
    ---------------------

    Doubly Occupied:

       1A    -20.556063     2A    -11.271243     3A    -11.217515
       4A    -11.214843     5A    -11.213219     6A    -11.210959
       7A    -11.206807     8A     -1.352717     9A     -1.120393
      10A     -0.996459    11A     -0.957579    12A     -0.873086
      13A     -0.778135    14A     -0.754552    15A     -0.687360
      16A     -0.649581    17A     -0.635081    18A     -0.619366
      19A     -0.570550    20A     -0.562061    21A     -0.523586
      22A     -0.475729    23A     -0.469991    24A     -0.461039
      25A     -0.458980    26A     -0.455968    27A     -0.449473
      28A     -0.432345

  @DF-RHF Final Energy:  -309.16186760156495

   => Energetics <=

    Nuclear Repulsion Energy =            324.6477960272190444
    One-Electron Energy =               -1063.2699698534468098
    Two-Electron Energy =                 429.4603062246627587
    Total Energy =                       -309.1618676015649498
  Basis Set: (AUG-CC-PVTZ AUX)
    Blend: AUG-CC-PVTZ-RI
    Molecular point group: c1

    Geometry (in Angstrom), charge = 0, multiplicity = 1:

       Center              X                  Y                   Z               Mass
    ------------   -----------------  -----------------  -----------------  -----------------
         O           -2.534274346696    -0.445048913690    -0.019413069025    15.994914619570
         C           -0.290657346696     0.212412086310    -0.434550069025    12.000000000000
         C            0.846927053304     1.273367286310    -0.199040169025    12.000000000000
         C            0.279424653304    -1.119064913690     0.081790930975    12.000000000000
         C            2.032568653304     0.474371086310     0.363911930975    12.000000000000
         C            1.789279653304    -0.963465913690    -0.100041069025    12.000000000000
         C           -1.592074346696     0.598057086310     0.235771930975    12.000000000000
         H           -0.491496346696     0.116715086310    -1.508642069025     1.007825032230
         H            0.512291653304     2.055762086310     0.481305930975     1.007825032230
         H            1.098593653304     1.747313086310    -1.145424069025     1.007825032230
         H           -0.148889346696    -1.982411913690    -0.433958069025     1.007825032230
         H            0.047333653304    -1.230147913690     1.149608930975     1.007825032230
         H            2.018085653304     0.504951086310     1.459838930975     1.007825032230
         H            2.995646653304     0.882804086310     0.041311930975     1.007825032230
         H            2.050742653304    -1.065700913690    -1.160862069025     1.007825032230
         H            2.374437653304    -1.702387913690     0.457417930975     1.007825032230
         H           -1.952780346696     1.561664086310    -0.155945069025     1.007825032230
         H           -1.418619346696     0.720166086310     1.317287930975     1.007825032230
         H           -3.364579346696    -0.209278913690     0.427177930975     1.007825032230

  Basis Set: AUG-CC-PVTZ
    Blend: AUG-CC-PVTZ
  Basis Set: (AUG-CC-PVTZ AUX)
    Blend: AUG-CC-PVTZ-JKFIT
	 Reference Energy          =    -309.1618676015649498 [Eh]
	 Singles Energy            =      -0.0000000000000000 [Eh]
	 Same-Spin Energy          =      -0.3222995903444584 [Eh]
	 Opposite-Spin Energy      =      -1.1094130280367240 [Eh]
	 Correlation Energy        =      -1.4317126183811824 [Eh]
	 Total Energy              =    -310.5935802199461477 [Eh]

	 ================> DF-SCS-MP2 Energies <==================
	-----------------------------------------------------------
	 SCS Same-Spin Scale       =       0.3333333333333333 [-]
	 SCS Opposite-Spin Scale   =       1.2000000000000000 [-]
	 SCS Same-Spin Energy      =      -0.1074331967814861 [Eh]
	 SCS Opposite-Spin Energy  =      -1.3312956336440689 [Eh]
	 SCS Correlation Energy    =      -1.4387288304255550 [Eh]
	 SCS Total Energy          =    -310.6005964319904820 [Eh]
	-----------------------------------------------------------

  Dipole Moment: [D]
     X:    -0.1944      Y:     1.1740      Z:     0.7464     Total:     1.4047

*** Psi4 exiting successfully. Buy a developer a beer!
