                               Psi4 1.4a3.dev225

  ==> Input File <==

--------------------------------------------------------------------------
#psi4
#
memory 32 gb

molecule  {
0 1
  O       -2.5655710    -0.4559810    -0.0273220
  C       -0.3219540     0.2014800    -0.4424590
  C        0.8011690     1.2489480    -0.2099430
  C        0.2481280    -1.1299970     0.0738820
  C        2.0012720     0.4634390     0.3560030
  C        1.7579830    -0.9743980    -0.1079500
  C       -1.6233710     0.5871250     0.2278630
  H       -0.5227930     0.1057830    -1.5165510
  H        0.4809950     2.0448300     0.4733970
  H        1.0672970     1.7363810    -1.1533330
  H       -0.1018175    -1.8353777    -0.3475006
  H        0.0160370    -1.2410800     1.1417000
  H        1.9867890     0.4940190     1.4519300
  H        2.9643500     0.8718720     0.0334030
  H        2.0194460    -1.0766330    -1.1687710
  H        2.3431410    -1.7133200     0.4495090
  H       -1.9840770     1.5507320    -0.1638540
  H       -1.4499160     0.7092340     1.3093790
  H       -3.3958760    -0.2202110     0.4192690
units angstrom
no_reorient  #important for SAPT in psi4, default
symmetry c1  #important for SAPT in psi4, default
}

set PROPERTIES_ORIGIN ["COM"]
properties('MP2/aug-cc-pvtz', properties = ['dipole'])
--------------------------------------------------------------------------

    Molecular point group: c1
  Charge       = 0
  Multiplicity = 1
  Basis Set: AUG-CC-PVTZ
    Blend: AUG-CC-PVTZ
  Basis Set: (AUG-CC-PVTZ AUX)
    Blend: AUG-CC-PVTZ-JKFIT

    Orbital Energies [Eh]
    ---------------------

    Doubly Occupied:

       1A    -20.556468     2A    -11.270974     3A    -11.215545
       4A    -11.214133     5A    -11.212230     6A    -11.209520
       7A    -11.182177     8A     -1.353081     9A     -1.123865
      10A     -0.996416    11A     -0.969717    12A     -0.877217
      13A     -0.785275    14A     -0.759087    15A     -0.691291
      16A     -0.664697    17A     -0.634240    18A     -0.620520
      19A     -0.571997    20A     -0.562183    21A     -0.524979
      22A     -0.485209    23A     -0.469839    24A     -0.463997
      25A     -0.460514    26A     -0.456599    27A     -0.449195
      28A     -0.431580

  @DF-RHF Final Energy:  -309.12834939219323

   => Energetics <=

    Nuclear Repulsion Energy =            326.0138537516592123
    One-Electron Energy =               -1065.8593135874905329
    Two-Electron Energy =                 430.7171104436380915
    Total Energy =                       -309.1283493921932291
  Basis Set: (AUG-CC-PVTZ AUX)
    Blend: AUG-CC-PVTZ-RI
    Molecular point group: c1

    Geometry (in Angstrom), charge = 0, multiplicity = 1:

       Center              X                  Y                   Z               Mass
    ------------   -----------------  -----------------  -----------------  -----------------
         O           -2.533329635102    -0.445022497066    -0.020004324103    15.994914619570
         C           -0.289712635102     0.212438502934    -0.435141324103    12.000000000000
         C            0.833410364898     1.259906502934    -0.202625324103    12.000000000000
         C            0.280369364898    -1.119038497066     0.081199675897    12.000000000000
         C            2.033513364898     0.474397502934     0.363320675897    12.000000000000
         C            1.790224364898    -0.963439497066    -0.100632324103    12.000000000000
         C           -1.591129635102     0.598083502934     0.235180675897    12.000000000000
         H           -0.490551635102     0.116741502934    -1.509233324103     1.007825032230
         H            0.513236364898     2.055788502934     0.480714675897     1.007825032230
         H            1.099538364898     1.747339502934    -1.146015324103     1.007825032230
         H           -0.069576135102    -1.824419197066    -0.340182924103     1.007825032230
         H            0.048278364898    -1.230121497066     1.149017675897     1.007825032230
         H            2.019030364898     0.504977502934     1.459247675897     1.007825032230
         H            2.996591364898     0.882830502934     0.040720675897     1.007825032230
         H            2.051687364898    -1.065674497066    -1.161453324103     1.007825032230
         H            2.375382364898    -1.702361497066     0.456826675897     1.007825032230
         H           -1.951835635102     1.561690502934    -0.156536324103     1.007825032230
         H           -1.417674635102     0.720192502934     1.316696675897     1.007825032230
         H           -3.363634635102    -0.209252497066     0.426586675897     1.007825032230

  Basis Set: AUG-CC-PVTZ
    Blend: AUG-CC-PVTZ
  Basis Set: (AUG-CC-PVTZ AUX)
    Blend: AUG-CC-PVTZ-JKFIT
	 Reference Energy          =    -309.1283493921932291 [Eh]
	 Singles Energy            =      -0.0000000000000000 [Eh]
	 Same-Spin Energy          =      -0.3223561834729564 [Eh]
	 Opposite-Spin Energy      =      -1.1087204012488108 [Eh]
	 Correlation Energy        =      -1.4310765847217670 [Eh]
	 Total Energy              =    -310.5594259769150085 [Eh]

	 ================> DF-SCS-MP2 Energies <==================
	-----------------------------------------------------------
	 SCS Same-Spin Scale       =       0.3333333333333333 [-]
	 SCS Opposite-Spin Scale   =       1.2000000000000000 [-]
	 SCS Same-Spin Energy      =      -0.1074520611576521 [Eh]
	 SCS Opposite-Spin Energy  =      -1.3304644814985729 [Eh]
	 SCS Correlation Energy    =      -1.4379165426562250 [Eh]
	 SCS Total Energy          =    -310.5662659348494685 [Eh]
	-----------------------------------------------------------

  Dipole Moment: [D]
     X:    -0.2309      Y:     1.0913      Z:     0.7342     Total:     1.3354

*** Psi4 exiting successfully. Buy a developer a beer!
