                               Psi4 1.4a3.dev225

  ==> Input File <==

--------------------------------------------------------------------------
#psi4
#
memory 32 gb

molecule  {
0 1
  O       -2.5655710    -0.4559810    -0.0273220
  C       -0.4137339     0.3244412    -0.4962231
  C        0.8011690     1.2489480    -0.2099430
  C        0.2481280    -1.1299970     0.0738820
  C        2.0012720     0.4634390     0.3560030
  C        1.7579830    -0.9743980    -0.1079500
  C       -1.6233710     0.5871250     0.2278630
  H       -0.5227930     0.1057830    -1.5165510
  H        0.4809950     2.0448300     0.4733970
  H        1.0672970     1.7363810    -1.1533330
  H       -0.1801860    -1.9933440    -0.4418670
  H        0.0160370    -1.2410800     1.1417000
  H        1.9867890     0.4940190     1.4519300
  H        2.9643500     0.8718720     0.0334030
  H        2.0194460    -1.0766330    -1.1687710
  H        2.3431410    -1.7133200     0.4495090
  H       -1.9840770     1.5507320    -0.1638540
  H       -1.4499160     0.7092340     1.3093790
  H       -3.3958760    -0.2202110     0.4192690
units angstrom
no_reorient  #important for SAPT in psi4, default
symmetry c1  #important for SAPT in psi4, default
}

set PROPERTIES_ORIGIN ["COM"]
properties('MP2/aug-cc-pvtz', properties = ['dipole'])
--------------------------------------------------------------------------

    Molecular point group: c1
  Charge       = 0
  Multiplicity = 1
  Basis Set: AUG-CC-PVTZ
    Blend: AUG-CC-PVTZ
  Basis Set: (AUG-CC-PVTZ AUX)
    Blend: AUG-CC-PVTZ-JKFIT

    Orbital Energies [Eh]
    ---------------------

    Doubly Occupied:

       1A    -20.557535     2A    -11.269241     3A    -11.218151
       4A    -11.217142     5A    -11.215147     6A    -11.210893
       7A    -11.210203     8A     -1.354896     9A     -1.112511
      10A     -1.012352    11A     -0.949513    12A     -0.873018
      13A     -0.775377    14A     -0.762140    15A     -0.687807
      16A     -0.649521    17A     -0.635760    18A     -0.616387
      19A     -0.579040    20A     -0.563214    21A     -0.521413
      22A     -0.482070    23A     -0.472618    24A     -0.468836
      25A     -0.464189    26A     -0.457159    27A     -0.451983
      28A     -0.393611

  @DF-RHF Final Energy:  -309.13975792653065

   => Energetics <=

    Nuclear Repulsion Energy =            323.8913503943809360
    One-Electron Energy =               -1061.6987598803118544
    Two-Electron Energy =                 428.6676515594003263
    Total Energy =                       -309.1397579265306490
  Basis Set: (AUG-CC-PVTZ AUX)
    Blend: AUG-CC-PVTZ-RI
    Molecular point group: c1

    Geometry (in Angstrom), charge = 0, multiplicity = 1:

       Center              X                  Y                   Z               Mass
    ------------   -----------------  -----------------  -----------------  -----------------
         O           -2.521536703635    -0.458174136523    -0.012608152812    15.994914619570
         C           -0.369699603635     0.322248063477    -0.481509252812    12.000000000000
         C            0.845203296365     1.246754863477    -0.195229152812    12.000000000000
         C            0.292162296365    -1.132190136523     0.088595847188    12.000000000000
         C            2.045306296365     0.461245863477     0.370716847188    12.000000000000
         C            1.802017296365    -0.976591136523    -0.093236152812    12.000000000000
         C           -1.579336703635     0.584931863477     0.242576847188    12.000000000000
         H           -0.478758703635     0.103589863477    -1.501837152812     1.007825032230
         H            0.525029296365     2.042636863477     0.488110847188     1.007825032230
         H            1.111331296365     1.734187863477    -1.138619152812     1.007825032230
         H           -0.136151703635    -1.995537136523    -0.427153152812     1.007825032230
         H            0.060071296365    -1.243273136523     1.156413847188     1.007825032230
         H            2.030823296365     0.491825863477     1.466643847188     1.007825032230
         H            3.008384296365     0.869678863477     0.048116847188     1.007825032230
         H            2.063480296365    -1.078826136523    -1.154057152812     1.007825032230
         H            2.387175296365    -1.715513136523     0.464222847188     1.007825032230
         H           -1.940042703635     1.548538863477    -0.149140152812     1.007825032230
         H           -1.405881703635     0.707040863477     1.324092847188     1.007825032230
         H           -3.351841703635    -0.222404136523     0.433982847188     1.007825032230

  Basis Set: AUG-CC-PVTZ
    Blend: AUG-CC-PVTZ
  Basis Set: (AUG-CC-PVTZ AUX)
    Blend: AUG-CC-PVTZ-JKFIT
	 Reference Energy          =    -309.1397579265306490 [Eh]
	 Singles Energy            =      -0.0000000000000000 [Eh]
	 Same-Spin Energy          =      -0.3230603878670949 [Eh]
	 Opposite-Spin Energy      =      -1.1111404331135828 [Eh]
	 Correlation Energy        =      -1.4342008209806778 [Eh]
	 Total Energy              =    -310.5739587475113126 [Eh]

	 ================> DF-SCS-MP2 Energies <==================
	-----------------------------------------------------------
	 SCS Same-Spin Scale       =       0.3333333333333333 [-]
	 SCS Opposite-Spin Scale   =       1.2000000000000000 [-]
	 SCS Same-Spin Energy      =      -0.1076867959556983 [Eh]
	 SCS Opposite-Spin Energy  =      -1.3333685197362992 [Eh]
	 SCS Correlation Energy    =      -1.4410553156919974 [Eh]
	 SCS Total Energy          =    -310.5808132422226322 [Eh]
	-----------------------------------------------------------

  Dipole Moment: [D]
     X:    -0.1709      Y:     1.1914      Z:     0.7392     Total:     1.4124

*** Psi4 exiting successfully. Buy a developer a beer!
