                               Psi4 1.4a3.dev225

  ==> Input File <==

--------------------------------------------------------------------------
#psi4
#
memory 32 gb

molecule  {
0 1
  O       -2.5655710    -0.4559810    -0.0273220
  C       -0.3219540     0.2014800    -0.4424590
  C        0.8011690     1.2489480    -0.2099430
  C        0.2514092    -1.1084841     0.1229445
  C        2.0012720     0.4634390     0.3560030
  C        1.7579830    -0.9743980    -0.1079500
  C       -1.6233710     0.5871250     0.2278630
  H       -0.5227930     0.1057830    -1.5165510
  H        0.4809950     2.0448300     0.4733970
  H        1.0672970     1.7363810    -1.1533330
  H       -0.1801860    -1.9933440    -0.4418670
  H        0.0160370    -1.2410800     1.1417000
  H        1.9867890     0.4940190     1.4519300
  H        2.9643500     0.8718720     0.0334030
  H        2.0194460    -1.0766330    -1.1687710
  H        2.3431410    -1.7133200     0.4495090
  H       -1.9840770     1.5507320    -0.1638540
  H       -1.4499160     0.7092340     1.3093790
  H       -3.3958760    -0.2202110     0.4192690
units angstrom
no_reorient  #important for SAPT in psi4, default
symmetry c1  #important for SAPT in psi4, default
}

set PROPERTIES_ORIGIN ["COM"]
properties('MP2/aug-cc-pvtz', properties = ['dipole'])
--------------------------------------------------------------------------

    Molecular point group: c1
  Charge       = 0
  Multiplicity = 1
  Basis Set: AUG-CC-PVTZ
    Blend: AUG-CC-PVTZ
  Basis Set: (AUG-CC-PVTZ AUX)
    Blend: AUG-CC-PVTZ-JKFIT

    Orbital Energies [Eh]
    ---------------------

    Doubly Occupied:

       1A    -20.556089     2A    -11.271231     3A    -11.216974
       4A    -11.214826     5A    -11.212932     6A    -11.210875
       7A    -11.206641     8A     -1.352813     9A     -1.122850
      10A     -0.997589    11A     -0.955645    12A     -0.873199
      13A     -0.780077    14A     -0.755522    15A     -0.687132
      16A     -0.646380    17A     -0.636004    18A     -0.619952
      19A     -0.571327    20A     -0.563624    21A     -0.524676
      22A     -0.474633    23A     -0.470644    24A     -0.462105
      25A     -0.459819    26A     -0.453412    27A     -0.447929
      28A     -0.432643

  @DF-RHF Final Energy:  -309.15859569936470

   => Energetics <=

    Nuclear Repulsion Energy =            325.0887137742050754
    One-Electron Energy =               -1064.1395334375326911
    Two-Electron Energy =                 429.8922239639629197
    Total Energy =                       -309.1585956993646960
  Basis Set: (AUG-CC-PVTZ AUX)
    Blend: AUG-CC-PVTZ-RI
    Molecular point group: c1

    Geometry (in Angstrom), charge = 0, multiplicity = 1:

       Center              X                  Y                   Z               Mass
    ------------   -----------------  -----------------  -----------------  -----------------
         O           -2.532933913202    -0.446011143086    -0.024936395482    15.994914619570
         C           -0.289316913202     0.211449856914    -0.440073395482    12.000000000000
         C            0.833806086798     1.258917856914    -0.207557395482    12.000000000000
         C            0.284046286798    -1.098514243086     0.125330104518    12.000000000000
         C            2.033909086798     0.473408856914     0.358388604518    12.000000000000
         C            1.790620086798    -0.964428143086    -0.105564395482    12.000000000000
         C           -1.590733913202     0.597094856914     0.230248604518    12.000000000000
         H           -0.490155913202     0.115752856914    -1.514165395482     1.007825032230
         H            0.513632086798     2.054799856914     0.475782604518     1.007825032230
         H            1.099934086798     1.746350856914    -1.150947395482     1.007825032230
         H           -0.147548913202    -1.983374143086    -0.439481395482     1.007825032230
         H            0.048674086798    -1.231110143086     1.144085604518     1.007825032230
         H            2.019426086798     0.503988856914     1.454315604518     1.007825032230
         H            2.996987086798     0.881841856914     0.035788604518     1.007825032230
         H            2.052083086798    -1.066663143086    -1.166385395482     1.007825032230
         H            2.375778086798    -1.703350143086     0.451894604518     1.007825032230
         H           -1.951439913202     1.560701856914    -0.161468395482     1.007825032230
         H           -1.417278913202     0.719203856914     1.311764604518     1.007825032230
         H           -3.363238913202    -0.210241143086     0.421654604518     1.007825032230

  Basis Set: AUG-CC-PVTZ
    Blend: AUG-CC-PVTZ
  Basis Set: (AUG-CC-PVTZ AUX)
    Blend: AUG-CC-PVTZ-JKFIT
	 Reference Energy          =    -309.1585956993646960 [Eh]
	 Singles Energy            =      -0.0000000000000000 [Eh]
	 Same-Spin Energy          =      -0.3224791671699230 [Eh]
	 Opposite-Spin Energy      =      -1.1096689511553455 [Eh]
	 Correlation Energy        =      -1.4321481183252684 [Eh]
	 Total Energy              =    -310.5907438176899404 [Eh]

	 ================> DF-SCS-MP2 Energies <==================
	-----------------------------------------------------------
	 SCS Same-Spin Scale       =       0.3333333333333333 [-]
	 SCS Opposite-Spin Scale   =       1.2000000000000000 [-]
	 SCS Same-Spin Energy      =      -0.1074930557233077 [Eh]
	 SCS Opposite-Spin Energy  =      -1.3316027413864144 [Eh]
	 SCS Correlation Energy    =      -1.4390957971097220 [Eh]
	 SCS Total Energy          =    -310.5976914964743969 [Eh]
	-----------------------------------------------------------

  Dipole Moment: [D]
     X:    -0.1931      Y:     1.1744      Z:     0.7743     Total:     1.4199

*** Psi4 exiting successfully. Buy a developer a beer!
