                               Psi4 1.4a3.dev225

  ==> Input File <==

--------------------------------------------------------------------------
#psi4
#
memory 32 gb

molecule  {
0 1
  O       -2.5655710    -0.4559810    -0.0273220
  C       -0.3218296     0.1138215    -0.3834582
  C        0.8011690     1.2489480    -0.2099430
  C        0.2481280    -1.1299970     0.0738820
  C        2.0012720     0.4634390     0.3560030
  C        1.7579830    -0.9743980    -0.1079500
  C       -1.6233710     0.5871250     0.2278630
  H       -0.5227930     0.1057830    -1.5165510
  H        0.4809950     2.0448300     0.4733970
  H        1.0672970     1.7363810    -1.1533330
  H       -0.1801860    -1.9933440    -0.4418670
  H        0.0160370    -1.2410800     1.1417000
  H        1.9867890     0.4940190     1.4519300
  H        2.9643500     0.8718720     0.0334030
  H        2.0194460    -1.0766330    -1.1687710
  H        2.3431410    -1.7133200     0.4495090
  H       -1.9840770     1.5507320    -0.1638540
  H       -1.4499160     0.7092340     1.3093790
  H       -3.3958760    -0.2202110     0.4192690
units angstrom
no_reorient  #important for SAPT in psi4, default
symmetry c1  #important for SAPT in psi4, default
}

set PROPERTIES_ORIGIN ["COM"]
properties('MP2/aug-cc-pvtz', properties = ['dipole'])
--------------------------------------------------------------------------

    Molecular point group: c1
  Charge       = 0
  Multiplicity = 1
  Basis Set: AUG-CC-PVTZ
    Blend: AUG-CC-PVTZ
  Basis Set: (AUG-CC-PVTZ AUX)
    Blend: AUG-CC-PVTZ-JKFIT

    Orbital Energies [Eh]
    ---------------------

    Doubly Occupied:

       1A    -20.555359     2A    -11.272347     3A    -11.219647
       4A    -11.216680     5A    -11.212945     6A    -11.212191
       7A    -11.203711     8A     -1.353128     9A     -1.127984
      10A     -0.997281    11A     -0.960492    12A     -0.875825
      13A     -0.780302    14A     -0.748124    15A     -0.689488
      16A     -0.651173    17A     -0.635190    18A     -0.623177
      19A     -0.568296    20A     -0.558087    21A     -0.528128
      22A     -0.487187    23A     -0.471387    24A     -0.466958
      25A     -0.459015    26A     -0.448703    27A     -0.441273
      28A     -0.425999

  @DF-RHF Final Energy:  -309.14992857911875

   => Energetics <=

    Nuclear Repulsion Energy =            325.5899202551411804
    One-Electron Energy =               -1065.0995432035222166
    Two-Electron Energy =                 430.3596943692623427
    Total Energy =                       -309.1499285791187503
  Basis Set: (AUG-CC-PVTZ AUX)
    Blend: AUG-CC-PVTZ-RI
    Molecular point group: c1

    Geometry (in Angstrom), charge = 0, multiplicity = 1:

       Center              X                  Y                   Z               Mass
    ------------   -----------------  -----------------  -----------------  -----------------
         O           -2.532555433349    -0.432922200032    -0.026127933218    15.994914619570
         C           -0.288814033349     0.136880299968    -0.382264133218    12.000000000000
         C            0.834184566651     1.272006799968    -0.208748933218    12.000000000000
         C            0.281143566651    -1.106938200032     0.075076066782    12.000000000000
         C            2.034287566651     0.486497799968     0.357197066782    12.000000000000
         C            1.790998566651    -0.951339200032    -0.106755933218    12.000000000000
         C           -1.590355433349     0.610183799968     0.229057066782    12.000000000000
         H           -0.489777433349     0.128841799968    -1.515356933218     1.007825032230
         H            0.514010566651     2.067888799968     0.474591066782     1.007825032230
         H            1.100312566651     1.759439799968    -1.152138933218     1.007825032230
         H           -0.147170433349    -1.970285200032    -0.440672933218     1.007825032230
         H            0.049052566651    -1.218021200032     1.142894066782     1.007825032230
         H            2.019804566651     0.517077799968     1.453124066782     1.007825032230
         H            2.997365566651     0.894930799968     0.034597066782     1.007825032230
         H            2.052461566651    -1.053574200032    -1.167576933218     1.007825032230
         H            2.376156566651    -1.690261200032     0.450703066782     1.007825032230
         H           -1.951061433349     1.573790799968    -0.162659933218     1.007825032230
         H           -1.416900433349     0.732292799968     1.310573066782     1.007825032230
         H           -3.362860433349    -0.197152200032     0.420463066782     1.007825032230

  Basis Set: AUG-CC-PVTZ
    Blend: AUG-CC-PVTZ
  Basis Set: (AUG-CC-PVTZ AUX)
    Blend: AUG-CC-PVTZ-JKFIT
	 Reference Energy          =    -309.1499285791187503 [Eh]
	 Singles Energy            =      -0.0000000000000000 [Eh]
	 Same-Spin Energy          =      -0.3232250267149279 [Eh]
	 Opposite-Spin Energy      =      -1.1106802622037739 [Eh]
	 Correlation Energy        =      -1.4339052889187018 [Eh]
	 Total Energy              =    -310.5838338680374591 [Eh]

	 ================> DF-SCS-MP2 Energies <==================
	-----------------------------------------------------------
	 SCS Same-Spin Scale       =       0.3333333333333333 [-]
	 SCS Opposite-Spin Scale   =       1.2000000000000000 [-]
	 SCS Same-Spin Energy      =      -0.1077416755716426 [Eh]
	 SCS Opposite-Spin Energy  =      -1.3328163146445287 [Eh]
	 SCS Correlation Energy    =      -1.4405579902161714 [Eh]
	 SCS Total Energy          =    -310.5904865693349279 [Eh]
	-----------------------------------------------------------

  Dipole Moment: [D]
     X:    -0.1881      Y:     1.1561      Z:     0.7779     Total:     1.4060

*** Psi4 exiting successfully. Buy a developer a beer!
