                               Psi4 1.4a3.dev225

  ==> Input File <==

--------------------------------------------------------------------------
#psi4
#
memory 32 gb

molecule  {
0 1
  O       -2.5655710    -0.4559810    -0.0273220
  C       -0.3219540     0.2014800    -0.4424590
  C        0.8011690     1.2489480    -0.2099430
  C        0.2481280    -1.1299970     0.0738820
  C        2.0012720     0.4634390     0.3560030
  C        1.7579830    -0.9743980    -0.1079500
  C       -1.4914667     0.7331558     0.2635879
  H       -0.5227930     0.1057830    -1.5165510
  H        0.4809950     2.0448300     0.4733970
  H        1.0672970     1.7363810    -1.1533330
  H       -0.1801860    -1.9933440    -0.4418670
  H        0.0160370    -1.2410800     1.1417000
  H        1.9867890     0.4940190     1.4519300
  H        2.9643500     0.8718720     0.0334030
  H        2.0194460    -1.0766330    -1.1687710
  H        2.3431410    -1.7133200     0.4495090
  H       -1.9840770     1.5507320    -0.1638540
  H       -1.4499160     0.7092340     1.3093790
  H       -3.3958760    -0.2202110     0.4192690
units angstrom
no_reorient  #important for SAPT in psi4, default
symmetry c1  #important for SAPT in psi4, default
}

set PROPERTIES_ORIGIN ["COM"]
properties('MP2/aug-cc-pvtz', properties = ['dipole'])
--------------------------------------------------------------------------

    Molecular point group: c1
  Charge       = 0
  Multiplicity = 1
  Basis Set: AUG-CC-PVTZ
    Blend: AUG-CC-PVTZ
  Basis Set: (AUG-CC-PVTZ AUX)
    Blend: AUG-CC-PVTZ-JKFIT

    Orbital Energies [Eh]
    ---------------------

    Doubly Occupied:

       1A    -20.530492     2A    -11.276177     3A    -11.221327
       4A    -11.218904     5A    -11.216613     6A    -11.213895
       7A    -11.211255     8A     -1.286660     9A     -1.130209
      10A     -1.013256    11A     -0.960489    12A     -0.883347
      13A     -0.781768    14A     -0.763502    15A     -0.668851
      16A     -0.649241    17A     -0.637206    18A     -0.609037
      19A     -0.572466    20A     -0.558536    21A     -0.496999
      22A     -0.480873    23A     -0.474649    24A     -0.469200
      25A     -0.461603    26A     -0.453746    27A     -0.446375
      28A     -0.439878

  @DF-RHF Final Energy:  -309.13119201612056

   => Energetics <=

    Nuclear Repulsion Energy =            324.1764815684592236
    One-Electron Energy =               -1062.3622396344958361
    Two-Electron Energy =                 429.0545660499161045
    Total Energy =                       -309.1311920161205649
  Basis Set: (AUG-CC-PVTZ AUX)
    Blend: AUG-CC-PVTZ-RI
    Molecular point group: c1

    Geometry (in Angstrom), charge = 0, multiplicity = 1:

       Center              X                  Y                   Z               Mass
    ------------   -----------------  -----------------  -----------------  -----------------
         O           -2.548354988973    -0.460940031992    -0.023337303716    15.994914619570
         C           -0.304737988973     0.196520968008    -0.438474303716    12.000000000000
         C            0.818385011027     1.243988968008    -0.205958303716    12.000000000000
         C            0.265344011027    -1.134956031992     0.077866696284    12.000000000000
         C            2.018488011027     0.458479968008     0.359987696284    12.000000000000
         C            1.775199011027    -0.979357031992    -0.103965303716    12.000000000000
         C           -1.474250688973     0.728196768008     0.267572596284    12.000000000000
         H           -0.505576988973     0.100823968008    -1.512566303716     1.007825032230
         H            0.498211011027     2.039870968008     0.477381696284     1.007825032230
         H            1.084513011027     1.731421968008    -1.149348303716     1.007825032230
         H           -0.162969988973    -1.998303031992    -0.437882303716     1.007825032230
         H            0.033253011027    -1.246039031992     1.145684696284     1.007825032230
         H            2.004005011027     0.489059968008     1.455914696284     1.007825032230
         H            2.981566011027     0.866912968008     0.037387696284     1.007825032230
         H            2.036662011027    -1.081592031992    -1.164786303716     1.007825032230
         H            2.360357011027    -1.718279031992     0.453493696284     1.007825032230
         H           -1.966860988973     1.545772968008    -0.159869303716     1.007825032230
         H           -1.432699988973     0.704274968008     1.313363696284     1.007825032230
         H           -3.378659988973    -0.225170031992     0.423253696284     1.007825032230

  Basis Set: AUG-CC-PVTZ
    Blend: AUG-CC-PVTZ
  Basis Set: (AUG-CC-PVTZ AUX)
    Blend: AUG-CC-PVTZ-JKFIT
	 Reference Energy          =    -309.1311920161205649 [Eh]
	 Singles Energy            =      -0.0000000000000000 [Eh]
	 Same-Spin Energy          =      -0.3240108173075946 [Eh]
	 Opposite-Spin Energy      =      -1.1144704821754570 [Eh]
	 Correlation Energy        =      -1.4384812994830516 [Eh]
	 Total Energy              =    -310.5696733156036089 [Eh]

	 ================> DF-SCS-MP2 Energies <==================
	-----------------------------------------------------------
	 SCS Same-Spin Scale       =       0.3333333333333333 [-]
	 SCS Opposite-Spin Scale   =       1.2000000000000000 [-]
	 SCS Same-Spin Energy      =      -0.1080036057691982 [Eh]
	 SCS Opposite-Spin Energy  =      -1.3373645786105484 [Eh]
	 SCS Correlation Energy    =      -1.4453681843797466 [Eh]
	 SCS Total Energy          =    -310.5765602005002961 [Eh]
	-----------------------------------------------------------

  Dipole Moment: [D]
     X:     0.4480      Y:     1.5809      Z:     0.8110     Total:     1.8323

*** Psi4 exiting successfully. Buy a developer a beer!
