                               Psi4 1.4a3.dev225

  ==> Input File <==

--------------------------------------------------------------------------
#psi4
#
memory 32 gb

molecule  {
0 1
  O       -2.5655710    -0.4559810    -0.0273220
  C       -0.3219540     0.2014800    -0.4424590
  C        0.8011690     1.2489480    -0.2099430
  C        0.2481280    -1.1299970     0.0738820
  C        2.0012720     0.4634390     0.3560030
  C        1.7579830    -0.9743980    -0.1079500
  C       -1.6233710     0.5871250     0.2278630
  H       -0.5227930     0.1057830    -1.5165510
  H        0.4809950     2.0448300     0.4733970
  H        1.0672970     1.7363810    -1.1533330
  H       -0.1723492    -1.9775474    -0.4324304
  H        0.0160370    -1.2410800     1.1417000
  H        1.9867890     0.4940190     1.4519300
  H        2.9643500     0.8718720     0.0334030
  H        2.0194460    -1.0766330    -1.1687710
  H        2.3431410    -1.7133200     0.4495090
  H       -1.9840770     1.5507320    -0.1638540
  H       -1.4499160     0.7092340     1.3093790
  H       -3.3958760    -0.2202110     0.4192690
units angstrom
no_reorient  #important for SAPT in psi4, default
symmetry c1  #important for SAPT in psi4, default
}

set PROPERTIES_ORIGIN ["COM"]
properties('MP2/aug-cc-pvtz', properties = ['dipole'])
--------------------------------------------------------------------------

    Molecular point group: c1
  Charge       = 0
  Multiplicity = 1
  Basis Set: AUG-CC-PVTZ
    Blend: AUG-CC-PVTZ
  Basis Set: (AUG-CC-PVTZ AUX)
    Blend: AUG-CC-PVTZ-JKFIT

    Orbital Energies [Eh]
    ---------------------

    Doubly Occupied:

       1A    -20.556186     2A    -11.271343     3A    -11.216648
       4A    -11.215138     5A    -11.213249     6A    -11.210645
       7A    -11.204465     8A     -1.352856     9A     -1.121971
      10A     -0.997163    11A     -0.957429    12A     -0.873963
      13A     -0.778661    14A     -0.754600    15A     -0.687816
      16A     -0.651556    17A     -0.634997    18A     -0.619676
      19A     -0.569504    20A     -0.561866    21A     -0.523657
      22A     -0.474830    23A     -0.470253    24A     -0.462726
      25A     -0.460137    26A     -0.457461    27A     -0.448720
      28A     -0.432094

  @DF-RHF Final Energy:  -309.16211472415637

   => Energetics <=

    Nuclear Repulsion Energy =            325.0025140632718603
    One-Electron Energy =               -1063.9700372710433385
    Two-Electron Energy =                 429.8054084836151105
    Total Energy =                       -309.1621147241563676
  Basis Set: (AUG-CC-PVTZ AUX)
    Blend: AUG-CC-PVTZ-RI
    Molecular point group: c1

    Geometry (in Angstrom), charge = 0, multiplicity = 1:

       Center              X                  Y                   Z               Mass
    ------------   -----------------  -----------------  -----------------  -----------------
         O           -2.532619429743    -0.443590946673    -0.019149139851    15.994914619570
         C           -0.289002429743     0.213870053327    -0.434286139851    12.000000000000
         C            0.834120570257     1.261338053327    -0.201770139851    12.000000000000
         C            0.281079570257    -1.117606946673     0.082054860149    12.000000000000
         C            2.034223570257     0.475829053327     0.364175860149    12.000000000000
         C            1.790934570257    -0.962007946673    -0.099777139851    12.000000000000
         C           -1.590419429743     0.599515053327     0.236035860149    12.000000000000
         H           -0.489841429743     0.118173053327    -1.508378139851     1.007825032230
         H            0.513946570257     2.057220053327     0.481569860149     1.007825032230
         H            1.100248570257     1.748771053327    -1.145160139851     1.007825032230
         H           -0.139397629743    -1.965157346673    -0.424257539851     1.007825032230
         H            0.048988570257    -1.228689946673     1.149872860149     1.007825032230
         H            2.019740570257     0.506409053327     1.460102860149     1.007825032230
         H            2.997301570257     0.884262053327     0.041575860149     1.007825032230
         H            2.052397570257    -1.064242946673    -1.160598139851     1.007825032230
         H            2.376092570257    -1.700929946673     0.457681860149     1.007825032230
         H           -1.951125429743     1.563122053327    -0.155681139851     1.007825032230
         H           -1.416964429743     0.721624053327     1.317551860149     1.007825032230
         H           -3.362924429743    -0.207820946673     0.427441860149     1.007825032230

  Basis Set: AUG-CC-PVTZ
    Blend: AUG-CC-PVTZ
  Basis Set: (AUG-CC-PVTZ AUX)
    Blend: AUG-CC-PVTZ-JKFIT
	 Reference Energy          =    -309.1621147241563676 [Eh]
	 Singles Energy            =      -0.0000000000000000 [Eh]
	 Same-Spin Energy          =      -0.3223636244203892 [Eh]
	 Opposite-Spin Energy      =      -1.1093339362579995 [Eh]
	 Correlation Energy        =      -1.4316975606783888 [Eh]
	 Total Energy              =    -310.5938122848347689 [Eh]

	 ================> DF-SCS-MP2 Energies <==================
	-----------------------------------------------------------
	 SCS Same-Spin Scale       =       0.3333333333333333 [-]
	 SCS Opposite-Spin Scale   =       1.2000000000000000 [-]
	 SCS Same-Spin Energy      =      -0.1074545414734631 [Eh]
	 SCS Opposite-Spin Energy  =      -1.3312007235095993 [Eh]
	 SCS Correlation Energy    =      -1.4386552649830624 [Eh]
	 SCS Total Energy          =    -310.6007699891394509 [Eh]
	-----------------------------------------------------------

  Dipole Moment: [D]
     X:    -0.2005      Y:     1.1600      Z:     0.7442     Total:     1.3927

*** Psi4 exiting successfully. Buy a developer a beer!
