                               Psi4 1.4a3.dev225

  ==> Input File <==

--------------------------------------------------------------------------
#psi4
#
memory 32 gb

molecule  {
0 1
  O       -2.5655710    -0.4559810    -0.0273220
  C       -0.3219540     0.2014800    -0.4424590
  C        0.8011690     1.2489480    -0.2099430
  C        0.2481280    -1.1299970     0.0738820
  C        2.0168382     0.4532504     0.3633437
  C        1.7579830    -0.9743980    -0.1079500
  C       -1.6233710     0.5871250     0.2278630
  H       -0.5227930     0.1057830    -1.5165510
  H        0.4809950     2.0448300     0.4733970
  H        1.0672970     1.7363810    -1.1533330
  H       -0.1801860    -1.9933440    -0.4418670
  H        0.0160370    -1.2410800     1.1417000
  H        1.9867890     0.4940190     1.4519300
  H        2.9643500     0.8718720     0.0334030
  H        2.0194460    -1.0766330    -1.1687710
  H        2.3431410    -1.7133200     0.4495090
  H       -1.9840770     1.5507320    -0.1638540
  H       -1.4499160     0.7092340     1.3093790
  H       -3.3958760    -0.2202110     0.4192690
units angstrom
no_reorient  #important for SAPT in psi4, default
symmetry c1  #important for SAPT in psi4, default
}

set PROPERTIES_ORIGIN ["COM"]
properties('MP2/aug-cc-pvtz', properties = ['dipole'])
--------------------------------------------------------------------------

    Molecular point group: c1
  Charge       = 0
  Multiplicity = 1
  Basis Set: AUG-CC-PVTZ
    Blend: AUG-CC-PVTZ
  Basis Set: (AUG-CC-PVTZ AUX)
    Blend: AUG-CC-PVTZ-JKFIT

    Orbital Energies [Eh]
    ---------------------

    Doubly Occupied:

       1A    -20.556114     2A    -11.271332     3A    -11.216764
       4A    -11.215855     5A    -11.213008     6A    -11.210721
       7A    -11.207043     8A     -1.352790     9A     -1.120590
      10A     -0.997824    11A     -0.954502    12A     -0.874324
      13A     -0.779171    14A     -0.754099    15A     -0.687301
      16A     -0.650251    17A     -0.634308    18A     -0.619795
      19A     -0.568840    20A     -0.562554    21A     -0.523998
      22A     -0.472040    23A     -0.470825    24A     -0.462383
      25A     -0.460811    26A     -0.457128    27A     -0.448334
      28A     -0.432241

  @DF-RHF Final Energy:  -309.16184511959062

   => Energetics <=

    Nuclear Repulsion Energy =            324.6855233105450793
    One-Electron Energy =               -1063.3448446978661650
    Two-Electron Energy =                 429.4974762677305193
    Total Energy =                       -309.1618451195906232
  Basis Set: (AUG-CC-PVTZ AUX)
    Blend: AUG-CC-PVTZ-RI
    Molecular point group: c1

    Geometry (in Angstrom), charge = 0, multiplicity = 1:

       Center              X                  Y                   Z               Mass
    ------------   -----------------  -----------------  -----------------  -----------------
         O           -2.534406805053    -0.442210338771    -0.019934222163    15.994914619570
         C           -0.290789805053     0.215250661229    -0.435071222163    12.000000000000
         C            0.832333194947     1.262718661229    -0.202555222163    12.000000000000
         C            0.279292194947    -1.116226338771     0.081269777837    12.000000000000
         C            2.048002394947     0.467021061229     0.370731477837    12.000000000000
         C            1.789147194947    -0.960627338771    -0.100562222163    12.000000000000
         C           -1.592206805053     0.600895661229     0.235250777837    12.000000000000
         H           -0.491628805053     0.119553661229    -1.509163222163     1.007825032230
         H            0.512159194947     2.058600661229     0.480784777837     1.007825032230
         H            1.098461194947     1.750151661229    -1.145945222163     1.007825032230
         H           -0.149021805053    -1.979573338771    -0.434479222163     1.007825032230
         H            0.047201194947    -1.227309338771     1.149087777837     1.007825032230
         H            2.017953194947     0.507789661229     1.459317777837     1.007825032230
         H            2.995514194947     0.885642661229     0.040790777837     1.007825032230
         H            2.050610194947    -1.062862338771    -1.161383222163     1.007825032230
         H            2.374305194947    -1.699549338771     0.456896777837     1.007825032230
         H           -1.952912805053     1.564502661229    -0.156466222163     1.007825032230
         H           -1.418751805053     0.723004661229     1.316766777837     1.007825032230
         H           -3.364711805053    -0.206440338771     0.426656777837     1.007825032230

  Basis Set: AUG-CC-PVTZ
    Blend: AUG-CC-PVTZ
  Basis Set: (AUG-CC-PVTZ AUX)
    Blend: AUG-CC-PVTZ-JKFIT
	 Reference Energy          =    -309.1618451195906232 [Eh]
	 Singles Energy            =      -0.0000000000000000 [Eh]
	 Same-Spin Energy          =      -0.3223064021035140 [Eh]
	 Opposite-Spin Energy      =      -1.1094417607988685 [Eh]
	 Correlation Energy        =      -1.4317481629023825 [Eh]
	 Total Energy              =    -310.5935932824930319 [Eh]

	 ================> DF-SCS-MP2 Energies <==================
	-----------------------------------------------------------
	 SCS Same-Spin Scale       =       0.3333333333333333 [-]
	 SCS Opposite-Spin Scale   =       1.2000000000000000 [-]
	 SCS Same-Spin Energy      =      -0.1074354673678380 [Eh]
	 SCS Opposite-Spin Energy  =      -1.3313301129586421 [Eh]
	 SCS Correlation Energy    =      -1.4387655803264801 [Eh]
	 SCS Total Energy          =    -310.6006106999171266 [Eh]
	-----------------------------------------------------------

  Dipole Moment: [D]
     X:    -0.1901      Y:     1.1709      Z:     0.7488     Total:     1.4028

*** Psi4 exiting successfully. Buy a developer a beer!
