                               Psi4 1.4a3.dev225

  ==> Input File <==

--------------------------------------------------------------------------
#psi4
#
memory 32 gb

molecule  {
0 1
  O       -2.5655710    -0.4559810    -0.0273220
  C       -0.3219540     0.2014800    -0.4424590
  C        0.8011690     1.2489480    -0.2099430
  C        0.2481280    -1.1299970     0.0738820
  C        2.1569338     0.3615529     0.4294102
  C        1.7579830    -0.9743980    -0.1079500
  C       -1.6233710     0.5871250     0.2278630
  H       -0.5227930     0.1057830    -1.5165510
  H        0.4809950     2.0448300     0.4733970
  H        1.0672970     1.7363810    -1.1533330
  H       -0.1801860    -1.9933440    -0.4418670
  H        0.0160370    -1.2410800     1.1417000
  H        1.9867890     0.4940190     1.4519300
  H        2.9643500     0.8718720     0.0334030
  H        2.0194460    -1.0766330    -1.1687710
  H        2.3431410    -1.7133200     0.4495090
  H       -1.9840770     1.5507320    -0.1638540
  H       -1.4499160     0.7092340     1.3093790
  H       -3.3958760    -0.2202110     0.4192690
units angstrom
no_reorient  #important for SAPT in psi4, default
symmetry c1  #important for SAPT in psi4, default
}

set PROPERTIES_ORIGIN ["COM"]
properties('MP2/aug-cc-pvtz', properties = ['dipole'])
--------------------------------------------------------------------------

    Molecular point group: c1
  Charge       = 0
  Multiplicity = 1
  Basis Set: AUG-CC-PVTZ
    Blend: AUG-CC-PVTZ
  Basis Set: (AUG-CC-PVTZ AUX)
    Blend: AUG-CC-PVTZ-JKFIT

    Orbital Energies [Eh]
    ---------------------

    Doubly Occupied:

       1A    -20.555979     2A    -11.271006     3A    -11.219801
       4A    -11.216420     5A    -11.214350     6A    -11.211890
       7A    -11.208801     8A     -1.352654     9A     -1.112118
      10A     -1.003115    11A     -0.941200    12A     -0.878410
      13A     -0.787375    14A     -0.753152    15A     -0.685570
      16A     -0.652614    17A     -0.632726    18A     -0.618768
      19A     -0.570786    20A     -0.567093    21A     -0.526823
      22A     -0.493132    23A     -0.477021    24A     -0.465991
      25A     -0.463831    26A     -0.449379    27A     -0.432383
      28A     -0.401405

  @DF-RHF Final Energy:  -309.13461427962443

   => Energetics <=

    Nuclear Repulsion Energy =            322.7527342445750378
    One-Electron Energy =               -1059.4471081599917852
    Two-Electron Energy =                 427.5597596357922612
    Total Energy =                       -309.1346142796244294
  Basis Set: (AUG-CC-PVTZ AUX)
    Blend: AUG-CC-PVTZ-RI
    Molecular point group: c1

    Geometry (in Angstrom), charge = 0, multiplicity = 1:

       Center              X                  Y                   Z               Mass
    ------------   -----------------  -----------------  -----------------  -----------------
         O           -2.551203359193    -0.431216403035    -0.027855167175    15.994914619570
         C           -0.307586359193     0.226244596965    -0.442992167175    12.000000000000
         C            0.815536640807     1.273712596965    -0.210476167175    12.000000000000
         C            0.262495640807    -1.105232403035     0.073348832825    12.000000000000
         C            2.171301440807     0.386317496965     0.428877032825    12.000000000000
         C            1.772350640807    -0.949633403035    -0.108483167175    12.000000000000
         C           -1.609003359193     0.611889596965     0.227329832825    12.000000000000
         H           -0.508425359193     0.130547596965    -1.517084167175     1.007825032230
         H            0.495362640807     2.069594596965     0.472863832825     1.007825032230
         H            1.081664640807     1.761145596965    -1.153866167175     1.007825032230
         H           -0.165818359193    -1.968579403035    -0.442400167175     1.007825032230
         H            0.030404640807    -1.216315403035     1.141166832825     1.007825032230
         H            2.001156640807     0.518783596965     1.451396832825     1.007825032230
         H            2.978717640807     0.896636596965     0.032869832825     1.007825032230
         H            2.033813640807    -1.051868403035    -1.169304167175     1.007825032230
         H            2.357508640807    -1.688555403035     0.448975832825     1.007825032230
         H           -1.969709359193     1.575496596965    -0.164387167175     1.007825032230
         H           -1.435548359193     0.733998596965     1.308845832825     1.007825032230
         H           -3.381508359193    -0.195446403035     0.418735832825     1.007825032230

  Basis Set: AUG-CC-PVTZ
    Blend: AUG-CC-PVTZ
  Basis Set: (AUG-CC-PVTZ AUX)
    Blend: AUG-CC-PVTZ-JKFIT
	 Reference Energy          =    -309.1346142796244294 [Eh]
	 Singles Energy            =      -0.0000000000000000 [Eh]
	 Same-Spin Energy          =      -0.3229614549443248 [Eh]
	 Opposite-Spin Energy      =      -1.1114762915496836 [Eh]
	 Correlation Energy        =      -1.4344377464940083 [Eh]
	 Total Energy              =    -310.5690520261184133 [Eh]

	 ================> DF-SCS-MP2 Energies <==================
	-----------------------------------------------------------
	 SCS Same-Spin Scale       =       0.3333333333333333 [-]
	 SCS Opposite-Spin Scale   =       1.2000000000000000 [-]
	 SCS Same-Spin Energy      =      -0.1076538183147749 [Eh]
	 SCS Opposite-Spin Energy  =      -1.3337715498596203 [Eh]
	 SCS Correlation Energy    =      -1.4414253681743951 [Eh]
	 SCS Total Energy          =    -310.5760396477988365 [Eh]
	-----------------------------------------------------------

  Dipole Moment: [D]
     X:    -0.1908      Y:     1.1612      Z:     0.7483     Total:     1.3945

*** Psi4 exiting successfully. Buy a developer a beer!
