                               Psi4 1.4a3.dev225

  ==> Input File <==

--------------------------------------------------------------------------
#psi4
#
memory 32 gb

molecule  {
0 1
  O       -2.5655710    -0.4559810    -0.0273220
  C       -0.3219540     0.2014800    -0.4424590
  C        0.8011690     1.2489480    -0.2099430
  C        0.2666652    -1.1732922     0.0906717
  C        2.0012720     0.4634390     0.3560030
  C        1.7579830    -0.9743980    -0.1079500
  C       -1.6233710     0.5871250     0.2278630
  H       -0.5227930     0.1057830    -1.5165510
  H        0.4809950     2.0448300     0.4733970
  H        1.0672970     1.7363810    -1.1533330
  H       -0.1801860    -1.9933440    -0.4418670
  H        0.0160370    -1.2410800     1.1417000
  H        1.9867890     0.4940190     1.4519300
  H        2.9643500     0.8718720     0.0334030
  H        2.0194460    -1.0766330    -1.1687710
  H        2.3431410    -1.7133200     0.4495090
  H       -1.9840770     1.5507320    -0.1638540
  H       -1.4499160     0.7092340     1.3093790
  H       -3.3958760    -0.2202110     0.4192690
units angstrom
no_reorient  #important for SAPT in psi4, default
symmetry c1  #important for SAPT in psi4, default
}

set PROPERTIES_ORIGIN ["COM"]
properties('MP2/aug-cc-pvtz', properties = ['dipole'])
--------------------------------------------------------------------------

    Molecular point group: c1
  Charge       = 0
  Multiplicity = 1
  Basis Set: AUG-CC-PVTZ
    Blend: AUG-CC-PVTZ
  Basis Set: (AUG-CC-PVTZ AUX)
    Blend: AUG-CC-PVTZ-JKFIT

    Orbital Energies [Eh]
    ---------------------

    Doubly Occupied:

       1A    -20.555908     2A    -11.271077     3A    -11.218372
       4A    -11.215164     5A    -11.213784     6A    -11.210666
       7A    -11.206109     8A     -1.352460     9A     -1.118204
      10A     -0.995968    11A     -0.957856    12A     -0.872061
      13A     -0.778717    14A     -0.754391    15A     -0.686719
      16A     -0.650360    17A     -0.633804    18A     -0.619138
      19A     -0.572183    20A     -0.561900    21A     -0.522367
      22A     -0.478174    23A     -0.470533    24A     -0.463429
      25A     -0.459650    26A     -0.456720    27A     -0.449900
      28A     -0.424588

  @DF-RHF Final Energy:  -309.16030020537272

   => Energetics <=

    Nuclear Repulsion Energy =            324.2509504456950822
    One-Electron Energy =               -1062.4820968120668567
    Two-Electron Energy =                 429.0708461609991105
    Total Energy =                       -309.1603002053727209
  Basis Set: (AUG-CC-PVTZ AUX)
    Blend: AUG-CC-PVTZ-RI
    Molecular point group: c1

    Geometry (in Angstrom), charge = 0, multiplicity = 1:

       Center              X                  Y                   Z               Mass
    ------------   -----------------  -----------------  -----------------  -----------------
         O           -2.534763008691    -0.438241072075    -0.021067096001    15.994914619570
         C           -0.291146008691     0.219219927925    -0.436204096001    12.000000000000
         C            0.831976991309     1.266687927925    -0.203688096001    12.000000000000
         C            0.297473191309    -1.155552272075     0.096926603999    12.000000000000
         C            2.032079991309     0.481178927925     0.362257903999    12.000000000000
         C            1.788790991309    -0.956658072075    -0.101695096001    12.000000000000
         C           -1.592563008691     0.604864927925     0.234117903999    12.000000000000
         H           -0.491985008691     0.123522927925    -1.510296096001     1.007825032230
         H            0.511802991309     2.062569927925     0.479651903999     1.007825032230
         H            1.098104991309     1.754120927925    -1.147078096001     1.007825032230
         H           -0.149378008691    -1.975604072075    -0.435612096001     1.007825032230
         H            0.046844991309    -1.223340072075     1.147954903999     1.007825032230
         H            2.017596991309     0.511758927925     1.458184903999     1.007825032230
         H            2.995157991309     0.889611927925     0.039657903999     1.007825032230
         H            2.050253991309    -1.058893072075    -1.162516096001     1.007825032230
         H            2.373948991309    -1.695580072075     0.455763903999     1.007825032230
         H           -1.953269008691     1.568471927925    -0.157599096001     1.007825032230
         H           -1.419108008691     0.726973927925     1.315633903999     1.007825032230
         H           -3.365068008691    -0.202471072075     0.425523903999     1.007825032230

  Basis Set: AUG-CC-PVTZ
    Blend: AUG-CC-PVTZ
  Basis Set: (AUG-CC-PVTZ AUX)
    Blend: AUG-CC-PVTZ-JKFIT
	 Reference Energy          =    -309.1603002053727209 [Eh]
	 Singles Energy            =      -0.0000000000000000 [Eh]
	 Same-Spin Energy          =      -0.3222224173835906 [Eh]
	 Opposite-Spin Energy      =      -1.1094587461751082 [Eh]
	 Correlation Energy        =      -1.4316811635586988 [Eh]
	 Total Energy              =    -310.5919813689314424 [Eh]

	 ================> DF-SCS-MP2 Energies <==================
	-----------------------------------------------------------
	 SCS Same-Spin Scale       =       0.3333333333333333 [-]
	 SCS Opposite-Spin Scale   =       1.2000000000000000 [-]
	 SCS Same-Spin Energy      =      -0.1074074724611969 [Eh]
	 SCS Opposite-Spin Energy  =      -1.3313504954101298 [Eh]
	 SCS Correlation Energy    =      -1.4387579678713267 [Eh]
	 SCS Total Energy          =    -310.5990581732440319 [Eh]
	-----------------------------------------------------------

  Dipole Moment: [D]
     X:    -0.1936      Y:     1.1729      Z:     0.7482     Total:     1.4047

*** Psi4 exiting successfully. Buy a developer a beer!
