                               Psi4 1.4a3.dev225

  ==> Input File <==

--------------------------------------------------------------------------
#psi4
#
memory 32 gb

molecule  {
0 1
  O       -2.5655710    -0.4559810    -0.0273220
  C       -0.3213279     0.1793724    -0.4280040
  C        0.8011690     1.2489480    -0.2099430
  C        0.2481280    -1.1299970     0.0738820
  C        2.0012720     0.4634390     0.3560030
  C        1.7579830    -0.9743980    -0.1079500
  C       -1.6233710     0.5871250     0.2278630
  H       -0.5227930     0.1057830    -1.5165510
  H        0.4809950     2.0448300     0.4733970
  H        1.0672970     1.7363810    -1.1533330
  H       -0.1801860    -1.9933440    -0.4418670
  H        0.0160370    -1.2410800     1.1417000
  H        1.9867890     0.4940190     1.4519300
  H        2.9643500     0.8718720     0.0334030
  H        2.0194460    -1.0766330    -1.1687710
  H        2.3431410    -1.7133200     0.4495090
  H       -1.9840770     1.5507320    -0.1638540
  H       -1.4499160     0.7092340     1.3093790
  H       -3.3958760    -0.2202110     0.4192690
units angstrom
no_reorient  #important for SAPT in psi4, default
symmetry c1  #important for SAPT in psi4, default
}

set PROPERTIES_ORIGIN ["COM"]
properties('MP2/aug-cc-pvtz', properties = ['dipole'])
--------------------------------------------------------------------------

    Molecular point group: c1
  Charge       = 0
  Multiplicity = 1
  Basis Set: AUG-CC-PVTZ
    Blend: AUG-CC-PVTZ
  Basis Set: (AUG-CC-PVTZ AUX)
    Blend: AUG-CC-PVTZ-JKFIT

    Orbital Energies [Eh]
    ---------------------

    Doubly Occupied:

       1A    -20.555936     2A    -11.271515     3A    -11.217306
       4A    -11.215584     5A    -11.213245     6A    -11.211138
       7A    -11.206159     8A     -1.352870     9A     -1.123183
      10A     -0.996987    11A     -0.957558    12A     -0.874122
      13A     -0.778739    14A     -0.752702    15A     -0.687992
      16A     -0.650291    17A     -0.635155    18A     -0.620428
      19A     -0.568530    20A     -0.561205    21A     -0.524427
      22A     -0.475168    23A     -0.471094    24A     -0.462346
      25A     -0.459215    26A     -0.455803    27A     -0.447552
      28A     -0.433607

  @DF-RHF Final Energy:  -309.16117760500651

   => Energetics <=

    Nuclear Repulsion Energy =            325.0770677089199125
    One-Electron Energy =               -1064.1167753430479479
    Two-Electron Energy =                 429.8785300291215208
    Total Energy =                       -309.1611776050065146
  Basis Set: (AUG-CC-PVTZ AUX)
    Blend: AUG-CC-PVTZ-RI
    Molecular point group: c1

    Geometry (in Angstrom), charge = 0, multiplicity = 1:

       Center              X                  Y                   Z               Mass
    ------------   -----------------  -----------------  -----------------  -----------------
         O           -2.532615583926    -0.440781327947    -0.020787180608    15.994914619570
         C           -0.288372483926     0.194572072053    -0.421469180608    12.000000000000
         C            0.834124416074     1.264147672053    -0.203408180608    12.000000000000
         C            0.281083416074    -1.114797327947     0.080416819392    12.000000000000
         C            2.034227416074     0.478638672053     0.362537819392    12.000000000000
         C            1.790938416074    -0.959198327947    -0.101415180608    12.000000000000
         C           -1.590415583926     0.602324672053     0.234397819392    12.000000000000
         H           -0.489837583926     0.120982672053    -1.510016180608     1.007825032230
         H            0.513950416074     2.060029672053     0.479931819392     1.007825032230
         H            1.100252416074     1.751580672053    -1.146798180608     1.007825032230
         H           -0.147230583926    -1.978144327947    -0.435332180608     1.007825032230
         H            0.048992416074    -1.225880327947     1.148234819392     1.007825032230
         H            2.019744416074     0.509218672053     1.458464819392     1.007825032230
         H            2.997305416074     0.887071672053     0.039937819392     1.007825032230
         H            2.052401416074    -1.061433327947    -1.162236180608     1.007825032230
         H            2.376096416074    -1.698120327947     0.456043819392     1.007825032230
         H           -1.951121583926     1.565931672053    -0.157319180608     1.007825032230
         H           -1.416960583926     0.724433672053     1.315913819392     1.007825032230
         H           -3.362920583926    -0.205011327947     0.425803819392     1.007825032230

  Basis Set: AUG-CC-PVTZ
    Blend: AUG-CC-PVTZ
  Basis Set: (AUG-CC-PVTZ AUX)
    Blend: AUG-CC-PVTZ-JKFIT
	 Reference Energy          =    -309.1611776050065146 [Eh]
	 Singles Energy            =      -0.0000000000000000 [Eh]
	 Same-Spin Energy          =      -0.3224950247224281 [Eh]
	 Opposite-Spin Energy      =      -1.1096113156815408 [Eh]
	 Correlation Energy        =      -1.4321063404039689 [Eh]
	 Total Energy              =    -310.5932839454104624 [Eh]

	 ================> DF-SCS-MP2 Energies <==================
	-----------------------------------------------------------
	 SCS Same-Spin Scale       =       0.3333333333333333 [-]
	 SCS Opposite-Spin Scale   =       1.2000000000000000 [-]
	 SCS Same-Spin Energy      =      -0.1074983415741427 [Eh]
	 SCS Opposite-Spin Energy  =      -1.3315335788178488 [Eh]
	 SCS Correlation Energy    =      -1.4390319203919915 [Eh]
	 SCS Total Energy          =    -310.6002095253984976 [Eh]
	-----------------------------------------------------------

  Dipole Moment: [D]
     X:    -0.1946      Y:     1.1681      Z:     0.7527     Total:     1.4032

*** Psi4 exiting successfully. Buy a developer a beer!
