                               Psi4 1.4a3.dev225

  ==> Input File <==

--------------------------------------------------------------------------
#psi4
#
memory 32 gb

molecule  {
0 1
  O       -2.5655710    -0.4559810    -0.0273220
  C       -0.3219540     0.2014800    -0.4424590
  C        0.8011690     1.2489480    -0.2099430
  C        0.2481280    -1.1299970     0.0738820
  C        2.0012720     0.4634390     0.3560030
  C        1.7579830    -0.9743980    -0.1079500
  C       -1.6233710     0.5871250     0.2278630
  H       -0.5227930     0.1057830    -1.5165510
  H        0.4809950     2.0448300     0.4733970
  H        1.0721591     1.7452862    -1.1705684
  H       -0.1801860    -1.9933440    -0.4418670
  H        0.0160370    -1.2410800     1.1417000
  H        1.9867890     0.4940190     1.4519300
  H        2.9643500     0.8718720     0.0334030
  H        2.0194460    -1.0766330    -1.1687710
  H        2.3431410    -1.7133200     0.4495090
  H       -1.9840770     1.5507320    -0.1638540
  H       -1.4499160     0.7092340     1.3093790
  H       -3.3958760    -0.2202110     0.4192690
units angstrom
no_reorient  #important for SAPT in psi4, default
symmetry c1  #important for SAPT in psi4, default
}

set PROPERTIES_ORIGIN ["COM"]
properties('MP2/aug-cc-pvtz', properties = ['dipole'])
--------------------------------------------------------------------------

    Molecular point group: c1
  Charge       = 0
  Multiplicity = 1
  Basis Set: AUG-CC-PVTZ
    Blend: AUG-CC-PVTZ
  Basis Set: (AUG-CC-PVTZ AUX)
    Blend: AUG-CC-PVTZ-JKFIT

    Orbital Energies [Eh]
    ---------------------

    Doubly Occupied:

       1A    -20.556255     2A    -11.271515     3A    -11.217915
       4A    -11.216880     5A    -11.213654     6A    -11.210927
       7A    -11.207031     8A     -1.352928     9A     -1.121844
      10A     -0.997415    11A     -0.955796    12A     -0.873422
      13A     -0.777977    14A     -0.753804    15A     -0.687089
      16A     -0.649929    17A     -0.635218    18A     -0.619548
      19A     -0.567978    20A     -0.561890    21A     -0.523457
      22A     -0.474049    23A     -0.470382    24A     -0.462507
      25A     -0.459850    26A     -0.457394    27A     -0.448028
      28A     -0.431996

  @DF-RHF Final Energy:  -309.16151479689444

   => Energetics <=

    Nuclear Repulsion Energy =            324.8065767497701017
    One-Electron Energy =               -1063.5828261652184210
    Two-Electron Energy =                 429.6147346185538822
    Total Energy =                       -309.1615147968944370
  Basis Set: (AUG-CC-PVTZ AUX)
    Blend: AUG-CC-PVTZ-RI
    Molecular point group: c1

    Geometry (in Angstrom), charge = 0, multiplicity = 1:

       Center              X                  Y                   Z               Mass
    ------------   -----------------  -----------------  -----------------  -----------------
         O           -2.532589476574    -0.443521555049    -0.018880571287    15.994914619570
         C           -0.288972476574     0.213939444951    -0.434017571287    12.000000000000
         C            0.834150523426     1.261407444951    -0.201501571287    12.000000000000
         C            0.281109523426    -1.117537555049     0.082323428713    12.000000000000
         C            2.034253523426     0.475898444951     0.364444428713    12.000000000000
         C            1.790964523426    -0.961938555049    -0.099508571287    12.000000000000
         C           -1.590389476574     0.599584444951     0.236304428713    12.000000000000
         H           -0.489811476574     0.118242444951    -1.508109571287     1.007825032230
         H            0.513976523426     2.057289444951     0.481838428713     1.007825032230
         H            1.105140623426     1.757745644951    -1.162126971287     1.007825032230
         H           -0.147204476574    -1.980884555049    -0.433425571287     1.007825032230
         H            0.049018523426    -1.228620555049     1.150141428713     1.007825032230
         H            2.019770523426     0.506478444951     1.460371428713     1.007825032230
         H            2.997331523426     0.884331444951     0.041844428713     1.007825032230
         H            2.052427523426    -1.064173555049    -1.160329571287     1.007825032230
         H            2.376122523426    -1.700860555049     0.457950428713     1.007825032230
         H           -1.951095476574     1.563191444951    -0.155412571287     1.007825032230
         H           -1.416934476574     0.721693444951     1.317820428713     1.007825032230
         H           -3.362894476574    -0.207751555049     0.427710428713     1.007825032230

  Basis Set: AUG-CC-PVTZ
    Blend: AUG-CC-PVTZ
  Basis Set: (AUG-CC-PVTZ AUX)
    Blend: AUG-CC-PVTZ-JKFIT
	 Reference Energy          =    -309.1615147968944370 [Eh]
	 Singles Energy            =      -0.0000000000000000 [Eh]
	 Same-Spin Energy          =      -0.3223730118804322 [Eh]
	 Opposite-Spin Energy      =      -1.1096087867691595 [Eh]
	 Correlation Energy        =      -1.4319817986495917 [Eh]
	 Total Energy              =    -310.5934965955440248 [Eh]

	 ================> DF-SCS-MP2 Energies <==================
	-----------------------------------------------------------
	 SCS Same-Spin Scale       =       0.3333333333333333 [-]
	 SCS Opposite-Spin Scale   =       1.2000000000000000 [-]
	 SCS Same-Spin Energy      =      -0.1074576706268107 [Eh]
	 SCS Opposite-Spin Energy  =      -1.3315305441229914 [Eh]
	 SCS Correlation Energy    =      -1.4389882147498021 [Eh]
	 SCS Total Energy          =    -310.6005030116442640 [Eh]
	-----------------------------------------------------------

  Dipole Moment: [D]
     X:    -0.1989      Y:     1.1606      Z:     0.7568     Total:     1.3998

*** Psi4 exiting successfully. Buy a developer a beer!
