                               Psi4 1.4a3.dev225

  ==> Input File <==

--------------------------------------------------------------------------
#psi4
#
memory 32 gb

molecule  {
0 1
  O       -2.5655710    -0.4559810    -0.0273220
  C       -0.3219540     0.2014800    -0.4424590
  C        0.8011690     1.2489480    -0.2099430
  C        0.2481280    -1.1299970     0.0738820
  C        2.0401875     0.4379675     0.3743548
  C        1.7579830    -0.9743980    -0.1079500
  C       -1.6233710     0.5871250     0.2278630
  H       -0.5227930     0.1057830    -1.5165510
  H        0.4809950     2.0448300     0.4733970
  H        1.0672970     1.7363810    -1.1533330
  H       -0.1801860    -1.9933440    -0.4418670
  H        0.0160370    -1.2410800     1.1417000
  H        1.9867890     0.4940190     1.4519300
  H        2.9643500     0.8718720     0.0334030
  H        2.0194460    -1.0766330    -1.1687710
  H        2.3431410    -1.7133200     0.4495090
  H       -1.9840770     1.5507320    -0.1638540
  H       -1.4499160     0.7092340     1.3093790
  H       -3.3958760    -0.2202110     0.4192690
units angstrom
no_reorient  #important for SAPT in psi4, default
symmetry c1  #important for SAPT in psi4, default
}

set PROPERTIES_ORIGIN ["COM"]
properties('MP2/aug-cc-pvtz', properties = ['dipole'])
--------------------------------------------------------------------------

    Molecular point group: c1
  Charge       = 0
  Multiplicity = 1
  Basis Set: AUG-CC-PVTZ
    Blend: AUG-CC-PVTZ
  Basis Set: (AUG-CC-PVTZ AUX)
    Blend: AUG-CC-PVTZ-JKFIT

    Orbital Energies [Eh]
    ---------------------

    Doubly Occupied:

       1A    -20.556063     2A    -11.271239     3A    -11.216972
       4A    -11.216366     5A    -11.212596     6A    -11.210644
       7A    -11.207272     8A     -1.352737     9A     -1.118767
      10A     -0.998669    11A     -0.951632    12A     -0.875156
      13A     -0.780510    14A     -0.753947    15A     -0.686920
      16A     -0.650449    17A     -0.633294    18A     -0.620099
      19A     -0.568318    20A     -0.563746    21A     -0.524646
      22A     -0.475154    23A     -0.468835    24A     -0.463947
      25A     -0.463026    26A     -0.452115    27A     -0.446187
      28A     -0.432263

  @DF-RHF Final Energy:  -309.16027284407846

   => Energetics <=

    Nuclear Repulsion Energy =            324.3609777613964411
    One-Electron Energy =               -1062.6993590466206570
    Two-Electron Energy =                 429.1781084411456959
    Total Energy =                       -309.1602728440784631
  Basis Set: (AUG-CC-PVTZ AUX)
    Blend: AUG-CC-PVTZ-RI
    Molecular point group: c1

    Geometry (in Angstrom), charge = 0, multiplicity = 1:

       Center              X                  Y                   Z               Mass
    ------------   -----------------  -----------------  -----------------  -----------------
         O           -2.537206234740    -0.440378018146    -0.021254381663    15.994914619570
         C           -0.293589234740     0.217082981854    -0.436391381663    12.000000000000
         C            0.829533765260     1.264550981854    -0.203875381663    12.000000000000
         C            0.276492765260    -1.114394018146     0.079949618337    12.000000000000
         C            2.068552265260     0.453570481854     0.380422418337    12.000000000000
         C            1.786347765260    -0.958795018146    -0.101882381663    12.000000000000
         C           -1.595006234740     0.602727981854     0.233930618337    12.000000000000
         H           -0.494428234740     0.121385981854    -1.510483381663     1.007825032230
         H            0.509359765260     2.060432981854     0.479464618337     1.007825032230
         H            1.095661765260     1.751983981854    -1.147265381663     1.007825032230
         H           -0.151821234740    -1.977741018146    -0.435799381663     1.007825032230
         H            0.044401765260    -1.225477018146     1.147767618337     1.007825032230
         H            2.015153765260     0.509621981854     1.457997618337     1.007825032230
         H            2.992714765260     0.887474981854     0.039470618337     1.007825032230
         H            2.047810765260    -1.061030018146    -1.162703381663     1.007825032230
         H            2.371505765260    -1.697717018146     0.455576618337     1.007825032230
         H           -1.955712234740     1.566334981854    -0.157786381663     1.007825032230
         H           -1.421551234740     0.724836981854     1.315446618337     1.007825032230
         H           -3.367511234740    -0.204608018146     0.425336618337     1.007825032230

  Basis Set: AUG-CC-PVTZ
    Blend: AUG-CC-PVTZ
  Basis Set: (AUG-CC-PVTZ AUX)
    Blend: AUG-CC-PVTZ-JKFIT
	 Reference Energy          =    -309.1602728440784631 [Eh]
	 Singles Energy            =      -0.0000000000000000 [Eh]
	 Same-Spin Energy          =      -0.3222618533057402 [Eh]
	 Opposite-Spin Energy      =      -1.1094996916739217 [Eh]
	 Correlation Energy        =      -1.4317615449796619 [Eh]
	 Total Energy              =    -310.5920343890581421 [Eh]

	 ================> DF-SCS-MP2 Energies <==================
	-----------------------------------------------------------
	 SCS Same-Spin Scale       =       0.3333333333333333 [-]
	 SCS Opposite-Spin Scale   =       1.2000000000000000 [-]
	 SCS Same-Spin Energy      =      -0.1074206177685801 [Eh]
	 SCS Opposite-Spin Energy  =      -1.3313996300087061 [Eh]
	 SCS Correlation Energy    =      -1.4388202477772862 [Eh]
	 SCS Total Energy          =    -310.5990930918557638 [Eh]
	-----------------------------------------------------------

  Dipole Moment: [D]
     X:    -0.1837      Y:     1.1702      Z:     0.7513     Total:     1.4027

*** Psi4 exiting successfully. Buy a developer a beer!
