                               Psi4 1.4a3.dev225

  ==> Input File <==

--------------------------------------------------------------------------
#psi4
#
memory 32 gb

molecule  {
0 1
  O       -2.5655710    -0.4559810    -0.0273220
  C       -0.3219540     0.2014800    -0.4424590
  C        0.8011690     1.2489480    -0.2099430
  C        0.2481280    -1.1299970     0.0738820
  C        2.0497885     0.4945328     0.2065481
  C        1.7579830    -0.9743980    -0.1079500
  C       -1.6233710     0.5871250     0.2278630
  H       -0.5227930     0.1057830    -1.5165510
  H        0.4809950     2.0448300     0.4733970
  H        1.0672970     1.7363810    -1.1533330
  H       -0.1801860    -1.9933440    -0.4418670
  H        0.0160370    -1.2410800     1.1417000
  H        1.9867890     0.4940190     1.4519300
  H        2.9643500     0.8718720     0.0334030
  H        2.0194460    -1.0766330    -1.1687710
  H        2.3431410    -1.7133200     0.4495090
  H       -1.9840770     1.5507320    -0.1638540
  H       -1.4499160     0.7092340     1.3093790
  H       -3.3958760    -0.2202110     0.4192690
units angstrom
no_reorient  #important for SAPT in psi4, default
symmetry c1  #important for SAPT in psi4, default
}

set PROPERTIES_ORIGIN ["COM"]
properties('MP2/aug-cc-pvtz', properties = ['dipole'])
--------------------------------------------------------------------------

    Molecular point group: c1
  Charge       = 0
  Multiplicity = 1
  Basis Set: AUG-CC-PVTZ
    Blend: AUG-CC-PVTZ
  Basis Set: (AUG-CC-PVTZ AUX)
    Blend: AUG-CC-PVTZ-JKFIT

    Orbital Energies [Eh]
    ---------------------

    Doubly Occupied:

       1A    -20.557239     2A    -11.272499     3A    -11.219681
       4A    -11.219119     5A    -11.216668     6A    -11.213224
       7A    -11.208777     8A     -1.353865     9A     -1.123820
      10A     -0.999244    11A     -0.961887    12A     -0.875907
      13A     -0.777807    14A     -0.757795    15A     -0.688168
      16A     -0.658220    17A     -0.636829    18A     -0.621880
      19A     -0.567172    20A     -0.553758    21A     -0.525622
      22A     -0.494676    23A     -0.480457    24A     -0.469640
      25A     -0.462362    26A     -0.448382    27A     -0.436491
      28A     -0.411073

  @DF-RHF Final Energy:  -309.13643564601057

   => Energetics <=

    Nuclear Repulsion Energy =            324.7594415025375838
    One-Electron Energy =               -1063.3672278968097089
    Two-Electron Energy =                 429.4713507482615569
    Total Energy =                       -309.1364356460105682
  Basis Set: (AUG-CC-PVTZ AUX)
    Blend: AUG-CC-PVTZ-RI
    Molecular point group: c1

    Geometry (in Angstrom), charge = 0, multiplicity = 1:

       Center              X                  Y                   Z               Mass
    ------------   -----------------  -----------------  -----------------  -----------------
         O           -2.538357332392    -0.447159830879    -0.001135446297    15.994914619570
         C           -0.294740332392     0.210301169121    -0.416272446297    12.000000000000
         C            0.828382667608     1.257769169121    -0.183756446297    12.000000000000
         C            0.275341667608    -1.121175830879     0.100068553703    12.000000000000
         C            2.077002167608     0.503353969121     0.232734653703    12.000000000000
         C            1.785196667608    -0.965576830879    -0.081763446297    12.000000000000
         C           -1.596157332392     0.595946169121     0.254049553703    12.000000000000
         H           -0.495579332392     0.114604169121    -1.490364446297     1.007825032230
         H            0.508208667608     2.053651169121     0.499583553703     1.007825032230
         H            1.094510667608     1.745202169121    -1.127146446297     1.007825032230
         H           -0.152972332392    -1.984522830879    -0.415680446297     1.007825032230
         H            0.043250667608    -1.232258830879     1.167886553703     1.007825032230
         H            2.014002667608     0.502840169121     1.478116553703     1.007825032230
         H            2.991563667608     0.880693169121     0.059589553703     1.007825032230
         H            2.046659667608    -1.067811830879    -1.142584446297     1.007825032230
         H            2.370354667608    -1.704498830879     0.475695553703     1.007825032230
         H           -1.956863332392     1.559553169121    -0.137667446297     1.007825032230
         H           -1.422702332392     0.718055169121     1.335565553703     1.007825032230
         H           -3.368662332392    -0.211389830879     0.445455553703     1.007825032230

  Basis Set: AUG-CC-PVTZ
    Blend: AUG-CC-PVTZ
  Basis Set: (AUG-CC-PVTZ AUX)
    Blend: AUG-CC-PVTZ-JKFIT
	 Reference Energy          =    -309.1364356460105682 [Eh]
	 Singles Energy            =      -0.0000000000000000 [Eh]
	 Same-Spin Energy          =      -0.3227969491719898 [Eh]
	 Opposite-Spin Energy      =      -1.1108312927388653 [Eh]
	 Correlation Energy        =      -1.4336282419108550 [Eh]
	 Total Energy              =    -310.5700638879214353 [Eh]

	 ================> DF-SCS-MP2 Energies <==================
	-----------------------------------------------------------
	 SCS Same-Spin Scale       =       0.3333333333333333 [-]
	 SCS Opposite-Spin Scale   =       1.2000000000000000 [-]
	 SCS Same-Spin Energy      =      -0.1075989830573299 [Eh]
	 SCS Opposite-Spin Energy  =      -1.3329975512866383 [Eh]
	 SCS Correlation Energy    =      -1.4405965343439682 [Eh]
	 SCS Total Energy          =    -310.5770321803545357 [Eh]
	-----------------------------------------------------------

  Dipole Moment: [D]
     X:    -0.2268      Y:     1.1693      Z:     0.6130     Total:     1.3395

*** Psi4 exiting successfully. Buy a developer a beer!
