                               Psi4 1.4a3.dev225

  ==> Input File <==

--------------------------------------------------------------------------
#psi4
#
memory 32 gb

molecule  {
0 1
  O       -2.5655710    -0.4559810    -0.0273220
  C       -0.3219540     0.2014800    -0.4424590
  C        0.8011690     1.2489480    -0.2099430
  C        0.2481280    -1.1299970     0.0738820
  C        1.9234411     0.5143820     0.3192994
  C        1.7579830    -0.9743980    -0.1079500
  C       -1.6233710     0.5871250     0.2278630
  H       -0.5227930     0.1057830    -1.5165510
  H        0.4809950     2.0448300     0.4733970
  H        1.0672970     1.7363810    -1.1533330
  H       -0.1801860    -1.9933440    -0.4418670
  H        0.0160370    -1.2410800     1.1417000
  H        1.9867890     0.4940190     1.4519300
  H        2.9643500     0.8718720     0.0334030
  H        2.0194460    -1.0766330    -1.1687710
  H        2.3431410    -1.7133200     0.4495090
  H       -1.9840770     1.5507320    -0.1638540
  H       -1.4499160     0.7092340     1.3093790
  H       -3.3958760    -0.2202110     0.4192690
units angstrom
no_reorient  #important for SAPT in psi4, default
symmetry c1  #important for SAPT in psi4, default
}

set PROPERTIES_ORIGIN ["COM"]
properties('MP2/aug-cc-pvtz', properties = ['dipole'])
--------------------------------------------------------------------------

    Molecular point group: c1
  Charge       = 0
  Multiplicity = 1
  Basis Set: AUG-CC-PVTZ
    Blend: AUG-CC-PVTZ
  Basis Set: (AUG-CC-PVTZ AUX)
    Blend: AUG-CC-PVTZ-JKFIT

    Orbital Energies [Eh]
    ---------------------

    Doubly Occupied:

       1A    -20.556458     2A    -11.271894     3A    -11.217598
       4A    -11.217105     5A    -11.212019     6A    -11.211457
       7A    -11.206401     8A     -1.353149     9A     -1.130406
      10A     -0.995161    11A     -0.968568    12A     -0.870375
      13A     -0.774806    14A     -0.753950    15A     -0.689318
      16A     -0.650172    17A     -0.640230    18A     -0.618453
      19A     -0.572457    20A     -0.559140    21A     -0.521135
      22A     -0.500815    23A     -0.469198    24A     -0.466048
      25A     -0.452163    26A     -0.445035    27A     -0.442315
      28A     -0.430173

  @DF-RHF Final Energy:  -309.15100884850284

   => Energetics <=

    Nuclear Repulsion Energy =            326.0254550447853603
    One-Electron Energy =               -1065.9609257310994508
    Two-Electron Energy =                 430.7844618378113069
    Total Energy =                       -309.1510088485028405
  Basis Set: (AUG-CC-PVTZ AUX)
    Blend: AUG-CC-PVTZ-RI
    Molecular point group: c1

    Geometry (in Angstrom), charge = 0, multiplicity = 1:

       Center              X                  Y                   Z               Mass
    ------------   -----------------  -----------------  -----------------  -----------------
         O           -2.523209098297    -0.449539621268    -0.014653596151    15.994914619570
         C           -0.279592098297     0.207921378732    -0.429790596151    12.000000000000
         C            0.843530901703     1.255389378732    -0.197274596151    12.000000000000
         C            0.290489901703    -1.123555621268     0.086550403849    12.000000000000
         C            1.965803001703     0.520823378732     0.331967803849    12.000000000000
         C            1.800344901703    -0.967956621268    -0.095281596151    12.000000000000
         C           -1.581009098297     0.593566378732     0.240531403849    12.000000000000
         H           -0.480431098297     0.112224378732    -1.503882596151     1.007825032230
         H            0.523356901703     2.051271378732     0.486065403849     1.007825032230
         H            1.109658901703     1.742822378732    -1.140664596151     1.007825032230
         H           -0.137824098297    -1.986902621268    -0.429198596151     1.007825032230
         H            0.058398901703    -1.234638621268     1.154368403849     1.007825032230
         H            2.029150901703     0.500460378732     1.464598403849     1.007825032230
         H            3.006711901703     0.878313378732     0.046071403849     1.007825032230
         H            2.061807901703    -1.070191621268    -1.156102596151     1.007825032230
         H            2.385502901703    -1.706878621268     0.462177403849     1.007825032230
         H           -1.941715098297     1.557173378732    -0.151185596151     1.007825032230
         H           -1.407554098297     0.715675378732     1.322047403849     1.007825032230
         H           -3.353514098297    -0.213769621268     0.431937403849     1.007825032230

  Basis Set: AUG-CC-PVTZ
    Blend: AUG-CC-PVTZ
  Basis Set: (AUG-CC-PVTZ AUX)
    Blend: AUG-CC-PVTZ-JKFIT
	 Reference Energy          =    -309.1510088485028405 [Eh]
	 Singles Energy            =      -0.0000000000000000 [Eh]
	 Same-Spin Energy          =      -0.3232018624600455 [Eh]
	 Opposite-Spin Energy      =      -1.1104249496927510 [Eh]
	 Correlation Energy        =      -1.4336268121527964 [Eh]
	 Total Energy              =    -310.5846356606556355 [Eh]

	 ================> DF-SCS-MP2 Energies <==================
	-----------------------------------------------------------
	 SCS Same-Spin Scale       =       0.3333333333333333 [-]
	 SCS Opposite-Spin Scale   =       1.2000000000000000 [-]
	 SCS Same-Spin Energy      =      -0.1077339541533485 [Eh]
	 SCS Opposite-Spin Energy  =      -1.3325099396313012 [Eh]
	 SCS Correlation Energy    =      -1.4402438937846496 [Eh]
	 SCS Total Energy          =    -310.5912527422875087 [Eh]
	-----------------------------------------------------------

  Dipole Moment: [D]
     X:    -0.2402      Y:     1.1689      Z:     0.7285     Total:     1.3981

*** Psi4 exiting successfully. Buy a developer a beer!
