                               Psi4 1.4a3.dev225

  ==> Input File <==

--------------------------------------------------------------------------
#psi4
#
memory 32 gb

molecule  {
0 1
  O       -2.5655710    -0.4559810    -0.0273220
  C       -0.3219540     0.2014800    -0.4424590
  C        0.8011690     1.2489480    -0.2099430
  C        0.2481280    -1.1299970     0.0738820
  C        2.0012720     0.4634390     0.3560030
  C        1.7579830    -0.9743980    -0.1079500
  C       -1.6233710     0.5871250     0.2278630
  H       -0.5227930     0.1057830    -1.5165510
  H        0.4809950     2.0448300     0.4733970
  H        1.0672970     1.7363810    -1.1533330
  H       -0.2193702    -2.0723272    -0.4890502
  H        0.0160370    -1.2410800     1.1417000
  H        1.9867890     0.4940190     1.4519300
  H        2.9643500     0.8718720     0.0334030
  H        2.0194460    -1.0766330    -1.1687710
  H        2.3431410    -1.7133200     0.4495090
  H       -1.9840770     1.5507320    -0.1638540
  H       -1.4499160     0.7092340     1.3093790
  H       -3.3958760    -0.2202110     0.4192690
units angstrom
no_reorient  #important for SAPT in psi4, default
symmetry c1  #important for SAPT in psi4, default
}

set PROPERTIES_ORIGIN ["COM"]
properties('MP2/aug-cc-pvtz', properties = ['dipole'])
--------------------------------------------------------------------------

    Molecular point group: c1
  Charge       = 0
  Multiplicity = 1
  Basis Set: AUG-CC-PVTZ
    Blend: AUG-CC-PVTZ
  Basis Set: (AUG-CC-PVTZ AUX)
    Blend: AUG-CC-PVTZ-JKFIT

    Orbital Energies [Eh]
    ---------------------

    Doubly Occupied:

       1A    -20.556009     2A    -11.271778     3A    -11.218894
       4A    -11.217755     5A    -11.216205     6A    -11.214361
       7A    -11.211841     8A     -1.352730     9A     -1.122088
      10A     -0.997992    11A     -0.953412    12A     -0.872951
      13A     -0.777327    14A     -0.752545    15A     -0.686703
      16A     -0.644161    17A     -0.635768    18A     -0.618831
      19A     -0.568325    20A     -0.561553    21A     -0.523065
      22A     -0.472440    23A     -0.470001    24A     -0.462398
      25A     -0.458687    26A     -0.456074    27A     -0.445779
      28A     -0.432570

  @DF-RHF Final Energy:  -309.15532514889571

   => Energetics <=

    Nuclear Repulsion Energy =            324.4399939921327700
    One-Electron Energy =               -1062.8461518601063744
    Two-Electron Energy =                 429.2508327190779482
    Total Energy =                       -309.1553251488957130
  Basis Set: (AUG-CC-PVTZ AUX)
    Blend: AUG-CC-PVTZ-RI
    Molecular point group: c1

    Geometry (in Angstrom), charge = 0, multiplicity = 1:

       Center              X                  Y                   Z               Mass
    ------------   -----------------  -----------------  -----------------  -----------------
         O           -2.532145960846    -0.442636579744    -0.018579017687    15.994914619570
         C           -0.288528960846     0.214824420256    -0.433716017687    12.000000000000
         C            0.834594039154     1.262292420256    -0.201200017687    12.000000000000
         C            0.281553039154    -1.116652579744     0.082624982313    12.000000000000
         C            2.034697039154     0.476783420256     0.364745982313    12.000000000000
         C            1.791408039154    -0.961053579744    -0.099207017687    12.000000000000
         C           -1.589945960846     0.600469420256     0.236605982313    12.000000000000
         H           -0.489367960846     0.119127420256    -1.507808017687     1.007825032230
         H            0.514420039154     2.058174420256     0.482139982313     1.007825032230
         H            1.100722039154     1.749725420256    -1.144590017687     1.007825032230
         H           -0.185945160846    -2.058982779744    -0.480307217687     1.007825032230
         H            0.049462039154    -1.227735579744     1.150442982313     1.007825032230
         H            2.020214039154     0.507363420256     1.460672982313     1.007825032230
         H            2.997775039154     0.885216420256     0.042145982313     1.007825032230
         H            2.052871039154    -1.063288579744    -1.160028017687     1.007825032230
         H            2.376566039154    -1.699975579744     0.458251982313     1.007825032230
         H           -1.950651960846     1.564076420256    -0.155111017687     1.007825032230
         H           -1.416490960846     0.722578420256     1.318121982313     1.007825032230
         H           -3.362450960846    -0.206866579744     0.428011982313     1.007825032230

  Basis Set: AUG-CC-PVTZ
    Blend: AUG-CC-PVTZ
  Basis Set: (AUG-CC-PVTZ AUX)
    Blend: AUG-CC-PVTZ-JKFIT
	 Reference Energy          =    -309.1553251488957130 [Eh]
	 Singles Energy            =      -0.0000000000000000 [Eh]
	 Same-Spin Energy          =      -0.3224327105499571 [Eh]
	 Opposite-Spin Energy      =      -1.1102619339260857 [Eh]
	 Correlation Energy        =      -1.4326946444760429 [Eh]
	 Total Energy              =    -310.5880197933717568 [Eh]

	 ================> DF-SCS-MP2 Energies <==================
	-----------------------------------------------------------
	 SCS Same-Spin Scale       =       0.3333333333333333 [-]
	 SCS Opposite-Spin Scale   =       1.2000000000000000 [-]
	 SCS Same-Spin Energy      =      -0.1074775701833190 [Eh]
	 SCS Opposite-Spin Energy  =      -1.3323143207113028 [Eh]
	 SCS Correlation Energy    =      -1.4397918908946219 [Eh]
	 SCS Total Energy          =    -310.5951170397903525 [Eh]
	-----------------------------------------------------------

  Dipole Moment: [D]
     X:    -0.1668      Y:     1.2368      Z:     0.7619     Total:     1.4622

*** Psi4 exiting successfully. Buy a developer a beer!
