                               Psi4 1.4a3.dev225

  ==> Input File <==

--------------------------------------------------------------------------
#psi4
#
memory 32 gb

molecule  {
0 1
  O       -2.5655710    -0.4559810    -0.0273220
  C       -0.2823329     0.1766541    -0.5390671
  C        0.8011690     1.2489480    -0.2099430
  C        0.2481280    -1.1299970     0.0738820
  C        2.0012720     0.4634390     0.3560030
  C        1.7579830    -0.9743980    -0.1079500
  C       -1.6233710     0.5871250     0.2278630
  H       -0.5227930     0.1057830    -1.5165510
  H        0.4809950     2.0448300     0.4733970
  H        1.0672970     1.7363810    -1.1533330
  H       -0.1801860    -1.9933440    -0.4418670
  H        0.0160370    -1.2410800     1.1417000
  H        1.9867890     0.4940190     1.4519300
  H        2.9643500     0.8718720     0.0334030
  H        2.0194460    -1.0766330    -1.1687710
  H        2.3431410    -1.7133200     0.4495090
  H       -1.9840770     1.5507320    -0.1638540
  H       -1.4499160     0.7092340     1.3093790
  H       -3.3958760    -0.2202110     0.4192690
units angstrom
no_reorient  #important for SAPT in psi4, default
symmetry c1  #important for SAPT in psi4, default
}

set PROPERTIES_ORIGIN ["COM"]
properties('MP2/aug-cc-pvtz', properties = ['dipole'])
--------------------------------------------------------------------------

    Molecular point group: c1
  Charge       = 0
  Multiplicity = 1
  Basis Set: AUG-CC-PVTZ
    Blend: AUG-CC-PVTZ
  Basis Set: (AUG-CC-PVTZ AUX)
    Blend: AUG-CC-PVTZ-JKFIT

    Orbital Energies [Eh]
    ---------------------

    Doubly Occupied:

       1A    -20.554497     2A    -11.273098     3A    -11.215061
       4A    -11.214522     5A    -11.212554     6A    -11.209965
       7A    -11.207047     8A     -1.350307     9A     -1.120372
      10A     -0.987540    11A     -0.956015    12A     -0.870046
      13A     -0.778269    14A     -0.766244    15A     -0.683784
      16A     -0.650749    17A     -0.632844    18A     -0.614942
      19A     -0.572273    20A     -0.564179    21A     -0.522392
      22A     -0.478805    23A     -0.473355    24A     -0.464224
      25A     -0.461207    26A     -0.454779    27A     -0.438196
      28A     -0.425445

  @DF-RHF Final Energy:  -309.14969408671385

   => Energetics <=

    Nuclear Repulsion Energy =            324.2042250368198211
    One-Electron Energy =               -1062.4024182355678931
    Two-Electron Energy =                 429.0484991120342215
    Total Energy =                       -309.1496940867138505
  Basis Set: (AUG-CC-PVTZ AUX)
    Blend: AUG-CC-PVTZ-RI
    Molecular point group: c1

    Geometry (in Angstrom), charge = 0, multiplicity = 1:

       Center              X                  Y                   Z               Mass
    ------------   -----------------  -----------------  -----------------  -----------------
         O           -2.537290831605    -0.440455421401    -0.007471434988    15.994914619570
         C           -0.254052731605     0.192179678599    -0.519216534988    12.000000000000
         C            0.829449168395     1.264473578599    -0.190092434988    12.000000000000
         C            0.276408168395    -1.114471421401     0.093732565012    12.000000000000
         C            2.029552168395     0.478964578599     0.375853565012    12.000000000000
         C            1.786263168395    -0.958872421401    -0.088099434988    12.000000000000
         C           -1.595090831605     0.602650578599     0.247713565012    12.000000000000
         H           -0.494512831605     0.121308578599    -1.496700434988     1.007825032230
         H            0.509275168395     2.060355578599     0.493247565012     1.007825032230
         H            1.095577168395     1.751906578599    -1.133482434988     1.007825032230
         H           -0.151905831605    -1.977818421401    -0.422016434988     1.007825032230
         H            0.044317168395    -1.225554421401     1.161550565012     1.007825032230
         H            2.015069168395     0.509544578599     1.471780565012     1.007825032230
         H            2.992630168395     0.887397578599     0.053253565012     1.007825032230
         H            2.047726168395    -1.061107421401    -1.148920434988     1.007825032230
         H            2.371421168395    -1.697794421401     0.469359565012     1.007825032230
         H           -1.955796831605     1.566257578599    -0.144003434988     1.007825032230
         H           -1.421635831605     0.724759578599     1.329229565012     1.007825032230
         H           -3.367595831605    -0.204685421401     0.439119565012     1.007825032230

  Basis Set: AUG-CC-PVTZ
    Blend: AUG-CC-PVTZ
  Basis Set: (AUG-CC-PVTZ AUX)
    Blend: AUG-CC-PVTZ-JKFIT
	 Reference Energy          =    -309.1496940867138505 [Eh]
	 Singles Energy            =      -0.0000000000000000 [Eh]
	 Same-Spin Energy          =      -0.3222404950093768 [Eh]
	 Opposite-Spin Energy      =      -1.1097725506788367 [Eh]
	 Correlation Energy        =      -1.4320130456882136 [Eh]
	 Total Energy              =    -310.5817071324020731 [Eh]

	 ================> DF-SCS-MP2 Energies <==================
	-----------------------------------------------------------
	 SCS Same-Spin Scale       =       0.3333333333333333 [-]
	 SCS Opposite-Spin Scale   =       1.2000000000000000 [-]
	 SCS Same-Spin Energy      =      -0.1074134983364589 [Eh]
	 SCS Opposite-Spin Energy  =      -1.3317270608146041 [Eh]
	 SCS Correlation Energy    =      -1.4391405591510631 [Eh]
	 SCS Total Energy          =    -310.5888346458648925 [Eh]
	-----------------------------------------------------------

  Dipole Moment: [D]
     X:    -0.2275      Y:     1.1518      Z:     0.7135     Total:     1.3739

*** Psi4 exiting successfully. Buy a developer a beer!
