                               Psi4 1.4a3.dev225

  ==> Input File <==

--------------------------------------------------------------------------
#psi4
#
memory 32 gb

molecule  {
0 1
  O       -2.5655710    -0.4559810    -0.0273220
  C       -0.3219540     0.2014800    -0.4424590
  C        0.8011690     1.2489480    -0.2099430
  C        0.2481280    -1.1299970     0.0738820
  C        2.0012720     0.4634390     0.3560030
  C        1.7579830    -0.9743980    -0.1079500
  C       -1.6233710     0.5871250     0.2278630
  H       -0.5227930     0.1057830    -1.5165510
  H        0.4809950     2.0448300     0.4733970
  H        1.0672970     1.7363810    -1.1533330
  H       -0.1801860    -1.9933440    -0.4418670
  H        0.0160370    -1.2410800     1.1417000
  H        1.9867890     0.4940190     1.4519300
  H        2.9643500     0.8718720     0.0334030
  H        2.0194460    -1.0766330    -1.1687710
  H        2.3431410    -1.7133200     0.4495090
  H       -1.9840770     1.5507320    -0.1638540
  H       -1.4499160     0.7092340     1.3093790
  H       -3.5667520    -0.1716898     0.5111770
units angstrom
no_reorient  #important for SAPT in psi4, default
symmetry c1  #important for SAPT in psi4, default
}

set PROPERTIES_ORIGIN ["COM"]
properties('MP2/aug-cc-pvtz', properties = ['dipole'])
--------------------------------------------------------------------------

    Molecular point group: c1
  Charge       = 0
  Multiplicity = 1
  Basis Set: AUG-CC-PVTZ
    Blend: AUG-CC-PVTZ
  Basis Set: (AUG-CC-PVTZ AUX)
    Blend: AUG-CC-PVTZ-JKFIT

    Orbital Energies [Eh]
    ---------------------

    Doubly Occupied:

       1A    -20.571729     2A    -11.269706     3A    -11.216537
       4A    -11.215228     5A    -11.213215     6A    -11.210555
       7A    -11.206543     8A     -1.321591     9A     -1.120543
      10A     -0.991644    11A     -0.956178    12A     -0.866591
      13A     -0.777439    14A     -0.753255    15A     -0.661738
      16A     -0.640282    17A     -0.631519    18A     -0.613770
      19A     -0.568442    20A     -0.559205    21A     -0.515804
      22A     -0.473713    23A     -0.468128    24A     -0.460647
      25A     -0.459050    26A     -0.456091    27A     -0.444443
      28A     -0.430105

  @DF-RHF Final Energy:  -309.12624347299885

   => Energetics <=

    Nuclear Repulsion Energy =            323.8365116139138991
    One-Electron Energy =               -1061.7781268664441541
    Two-Electron Energy =                 428.8153717795314037
    Total Energy =                       -309.1262434729988513
  Basis Set: (AUG-CC-PVTZ AUX)
    Blend: AUG-CC-PVTZ-RI
    Molecular point group: c1

    Geometry (in Angstrom), charge = 0, multiplicity = 1:

       Center              X                  Y                   Z               Mass
    ------------   -----------------  -----------------  -----------------  -----------------
         O           -2.530819915647    -0.443920460725    -0.019979569718    15.994914619570
         C           -0.287202915647     0.213540539275    -0.435116569718    12.000000000000
         C            0.835920084353     1.261008539275    -0.202600569718    12.000000000000
         C            0.282879084353    -1.117936460725     0.081224430282    12.000000000000
         C            2.036023084353     0.475499539275     0.363345430282    12.000000000000
         C            1.792734084353    -0.962337460725    -0.100607569718    12.000000000000
         C           -1.588619915647     0.599185539275     0.235205430282    12.000000000000
         H           -0.488041915647     0.117843539275    -1.509208569718     1.007825032230
         H            0.515746084353     2.056890539275     0.480739430282     1.007825032230
         H            1.102048084353     1.748441539275    -1.145990569718     1.007825032230
         H           -0.145434915647    -1.981283460725    -0.434524569718     1.007825032230
         H            0.050788084353    -1.229019460725     1.149042430282     1.007825032230
         H            2.021540084353     0.506079539275     1.459272430282     1.007825032230
         H            2.999101084353     0.883932539275     0.040745430282     1.007825032230
         H            2.054197084353    -1.064572460725    -1.161428569718     1.007825032230
         H            2.377892084353    -1.701259460725     0.456851430282     1.007825032230
         H           -1.949325915647     1.562792539275    -0.156511569718     1.007825032230
         H           -1.415164915647     0.721294539275     1.316721430282     1.007825032230
         H           -3.532000915647    -0.159629260725     0.518519430282     1.007825032230

  Basis Set: AUG-CC-PVTZ
    Blend: AUG-CC-PVTZ
  Basis Set: (AUG-CC-PVTZ AUX)
    Blend: AUG-CC-PVTZ-JKFIT
	 Reference Energy          =    -309.1262434729988513 [Eh]
	 Singles Energy            =      -0.0000000000000000 [Eh]
	 Same-Spin Energy          =      -0.3244974607453179 [Eh]
	 Opposite-Spin Energy      =      -1.1162550285313060 [Eh]
	 Correlation Energy        =      -1.4407524892766239 [Eh]
	 Total Energy              =    -310.5669959622754845 [Eh]

	 ================> DF-SCS-MP2 Energies <==================
	-----------------------------------------------------------
	 SCS Same-Spin Scale       =       0.3333333333333333 [-]
	 SCS Opposite-Spin Scale   =       1.2000000000000000 [-]
	 SCS Same-Spin Energy      =      -0.1081658202484393 [Eh]
	 SCS Opposite-Spin Energy  =      -1.3395060342375671 [Eh]
	 SCS Correlation Energy    =      -1.4476718544860063 [Eh]
	 SCS Total Energy          =    -310.5739153274848832 [Eh]
	-----------------------------------------------------------

  Dipole Moment: [D]
     X:    -0.2974      Y:     1.1880      Z:     0.8008     Total:     1.4632

*** Psi4 exiting successfully. Buy a developer a beer!
