                               Psi4 1.4a3.dev225

  ==> Input File <==

--------------------------------------------------------------------------
#psi4
#
memory 32 gb

molecule  {
0 1
  O       -2.5655710    -0.4559810    -0.0273220
  C       -0.2538634     0.1258034    -0.4051634
  C        0.8011690     1.2489480    -0.2099430
  C        0.2481280    -1.1299970     0.0738820
  C        2.0012720     0.4634390     0.3560030
  C        1.7579830    -0.9743980    -0.1079500
  C       -1.6233710     0.5871250     0.2278630
  H       -0.5227930     0.1057830    -1.5165510
  H        0.4809950     2.0448300     0.4733970
  H        1.0672970     1.7363810    -1.1533330
  H       -0.1801860    -1.9933440    -0.4418670
  H        0.0160370    -1.2410800     1.1417000
  H        1.9867890     0.4940190     1.4519300
  H        2.9643500     0.8718720     0.0334030
  H        2.0194460    -1.0766330    -1.1687710
  H        2.3431410    -1.7133200     0.4495090
  H       -1.9840770     1.5507320    -0.1638540
  H       -1.4499160     0.7092340     1.3093790
  H       -3.3958760    -0.2202110     0.4192690
units angstrom
no_reorient  #important for SAPT in psi4, default
symmetry c1  #important for SAPT in psi4, default
}

set PROPERTIES_ORIGIN ["COM"]
properties('MP2/aug-cc-pvtz', properties = ['dipole'])
--------------------------------------------------------------------------

    Molecular point group: c1
  Charge       = 0
  Multiplicity = 1
  Basis Set: AUG-CC-PVTZ
    Blend: AUG-CC-PVTZ
  Basis Set: (AUG-CC-PVTZ AUX)
    Blend: AUG-CC-PVTZ-JKFIT

    Orbital Energies [Eh]
    ---------------------

    Doubly Occupied:

       1A    -20.555332     2A    -11.273337     3A    -11.219704
       4A    -11.214998     5A    -11.212822     6A    -11.211639
       7A    -11.202942     8A     -1.351324     9A     -1.133293
      10A     -0.989195    11A     -0.963693    12A     -0.874367
      13A     -0.781488    14A     -0.747831    15A     -0.688565
      16A     -0.651153    17A     -0.636074    18A     -0.620930
      19A     -0.570053    20A     -0.557412    21A     -0.528275
      22A     -0.490498    23A     -0.472022    24A     -0.467453
      25A     -0.459215    26A     -0.447703    27A     -0.440591
      28A     -0.423126

  @DF-RHF Final Energy:  -309.14834209217537

   => Energetics <=

    Nuclear Repulsion Energy =            325.6415286174159291
    One-Electron Energy =               -1065.2096698271393507
    Two-Electron Energy =                 430.4197991175480524
    Total Energy =                       -309.1483420921753691
  Basis Set: (AUG-CC-PVTZ AUX)
    Blend: AUG-CC-PVTZ-RI
    Molecular point group: c1

    Geometry (in Angstrom), charge = 0, multiplicity = 1:

       Center              X                  Y                   Z               Mass
    ------------   -----------------  -----------------  -----------------  -----------------
         O           -2.540704140075    -0.434358752158    -0.023525620462    15.994914619570
         C           -0.228996540075     0.147425647842    -0.401367020462    12.000000000000
         C            0.826035859925     1.270570247842    -0.206146620462    12.000000000000
         C            0.272994859925    -1.108374752158     0.077678379538    12.000000000000
         C            2.026138859925     0.485061247842     0.359799379538    12.000000000000
         C            1.782849859925    -0.952775752158    -0.104153620462    12.000000000000
         C           -1.598504140075     0.608747247842     0.231659379538    12.000000000000
         H           -0.497926140075     0.127405247842    -1.512754620462     1.007825032230
         H            0.505861859925     2.066452247842     0.477193379538     1.007825032230
         H            1.092163859925     1.758003247842    -1.149536620462     1.007825032230
         H           -0.155319140075    -1.971721752158    -0.438070620462     1.007825032230
         H            0.040903859925    -1.219457752158     1.145496379538     1.007825032230
         H            2.011655859925     0.515641247842     1.455726379538     1.007825032230
         H            2.989216859925     0.893494247842     0.037199379538     1.007825032230
         H            2.044312859925    -1.055010752158    -1.164974620462     1.007825032230
         H            2.368007859925    -1.691697752158     0.453305379538     1.007825032230
         H           -1.959210140075     1.572354247842    -0.160057620462     1.007825032230
         H           -1.425049140075     0.730856247842     1.313175379538     1.007825032230
         H           -3.371009140075    -0.198588752158     0.423065379538     1.007825032230

  Basis Set: AUG-CC-PVTZ
    Blend: AUG-CC-PVTZ
  Basis Set: (AUG-CC-PVTZ AUX)
    Blend: AUG-CC-PVTZ-JKFIT
	 Reference Energy          =    -309.1483420921753691 [Eh]
	 Singles Energy            =      -0.0000000000000000 [Eh]
	 Same-Spin Energy          =      -0.3232681912669235 [Eh]
	 Opposite-Spin Energy      =      -1.1107033111824494 [Eh]
	 Correlation Energy        =      -1.4339715024493729 [Eh]
	 Total Energy              =    -310.5823135946247362 [Eh]

	 ================> DF-SCS-MP2 Energies <==================
	-----------------------------------------------------------
	 SCS Same-Spin Scale       =       0.3333333333333333 [-]
	 SCS Opposite-Spin Scale   =       1.2000000000000000 [-]
	 SCS Same-Spin Energy      =      -0.1077560637556412 [Eh]
	 SCS Opposite-Spin Energy  =      -1.3328439734189392 [Eh]
	 SCS Correlation Energy    =      -1.4406000371745804 [Eh]
	 SCS Total Energy          =    -310.5889421293499595 [Eh]
	-----------------------------------------------------------

  Dipole Moment: [D]
     X:    -0.1888      Y:     1.1437      Z:     0.7609     Total:     1.3866

*** Psi4 exiting successfully. Buy a developer a beer!
