                               Psi4 1.4a3.dev225

  ==> Input File <==

--------------------------------------------------------------------------
#psi4
#
memory 32 gb

molecule  {
0 1
  O       -2.5655710    -0.4559810    -0.0273220
  C       -0.3219540     0.2014800    -0.4424590
  C        0.7288622     1.1815118    -0.2249124
  C        0.2481280    -1.1299970     0.0738820
  C        2.0012720     0.4634390     0.3560030
  C        1.7579830    -0.9743980    -0.1079500
  C       -1.6233710     0.5871250     0.2278630
  H       -0.5227930     0.1057830    -1.5165510
  H        0.4809950     2.0448300     0.4733970
  H        1.0672970     1.7363810    -1.1533330
  H       -0.1801860    -1.9933440    -0.4418670
  H        0.0160370    -1.2410800     1.1417000
  H        1.9867890     0.4940190     1.4519300
  H        2.9643500     0.8718720     0.0334030
  H        2.0194460    -1.0766330    -1.1687710
  H        2.3431410    -1.7133200     0.4495090
  H       -1.9840770     1.5507320    -0.1638540
  H       -1.4499160     0.7092340     1.3093790
  H       -3.3958760    -0.2202110     0.4192690
units angstrom
no_reorient  #important for SAPT in psi4, default
symmetry c1  #important for SAPT in psi4, default
}

set PROPERTIES_ORIGIN ["COM"]
properties('MP2/aug-cc-pvtz', properties = ['dipole'])
--------------------------------------------------------------------------

    Molecular point group: c1
  Charge       = 0
  Multiplicity = 1
  Basis Set: AUG-CC-PVTZ
    Blend: AUG-CC-PVTZ
  Basis Set: (AUG-CC-PVTZ AUX)
    Blend: AUG-CC-PVTZ-JKFIT

    Orbital Energies [Eh]
    ---------------------

    Doubly Occupied:

       1A    -20.556625     2A    -11.272420     3A    -11.219135
       4A    -11.214948     5A    -11.212476     6A    -11.210404
       7A    -11.207732     8A     -1.353472     9A     -1.131599
      10A     -1.002698    11A     -0.951173    12A     -0.877984
      13A     -0.780459    14A     -0.751390    15A     -0.688529
      16A     -0.653808    17A     -0.636054    18A     -0.620362
      19A     -0.567364    20A     -0.557377    21A     -0.523579
      22A     -0.494441    23A     -0.470430    24A     -0.467627
      25A     -0.457396    26A     -0.447445    27A     -0.441770
      28A     -0.428161

  @DF-RHF Final Energy:  -309.15120428329919

   => Energetics <=

    Nuclear Repulsion Energy =            326.2234699731817500
    One-Electron Energy =               -1066.3556318241510326
    Two-Electron Energy =                 430.9809575676700888
    Total Energy =                       -309.1512042832991938
  Basis Set: (AUG-CC-PVTZ AUX)
    Blend: AUG-CC-PVTZ-RI
    Molecular point group: c1

    Geometry (in Angstrom), charge = 0, multiplicity = 1:

       Center              X                  Y                   Z               Mass
    ------------   -----------------  -----------------  -----------------  -----------------
         O           -2.523871402072    -0.435346722692    -0.017259385819    15.994914619570
         C           -0.280254402072     0.222114277308    -0.432396385819    12.000000000000
         C            0.770561797928     1.202146077308    -0.214849785819    12.000000000000
         C            0.289827597928    -1.109362722692     0.083944614181    12.000000000000
         C            2.042971597928     0.484073277308     0.366065614181    12.000000000000
         C            1.799682597928    -0.953763722692    -0.097887385819    12.000000000000
         C           -1.581671402072     0.607759277308     0.237925614181    12.000000000000
         H           -0.481093402072     0.126417277308    -1.506488385819     1.007825032230
         H            0.522694597928     2.065464277308     0.483459614181     1.007825032230
         H            1.108996597928     1.757015277308    -1.143270385819     1.007825032230
         H           -0.138486402072    -1.972709722692    -0.431804385819     1.007825032230
         H            0.057736597928    -1.220445722692     1.151762614181     1.007825032230
         H            2.028488597928     0.514653277308     1.461992614181     1.007825032230
         H            3.006049597928     0.892506277308     0.043465614181     1.007825032230
         H            2.061145597928    -1.055998722692    -1.158708385819     1.007825032230
         H            2.384840597928    -1.692685722692     0.459571614181     1.007825032230
         H           -1.942377402072     1.571366277308    -0.153791385819     1.007825032230
         H           -1.408216402072     0.729868277308     1.319441614181     1.007825032230
         H           -3.354176402072    -0.199576722692     0.429331614181     1.007825032230

  Basis Set: AUG-CC-PVTZ
    Blend: AUG-CC-PVTZ
  Basis Set: (AUG-CC-PVTZ AUX)
    Blend: AUG-CC-PVTZ-JKFIT
	 Reference Energy          =    -309.1512042832991938 [Eh]
	 Singles Energy            =      -0.0000000000000000 [Eh]
	 Same-Spin Energy          =      -0.3232805576250033 [Eh]
	 Opposite-Spin Energy      =      -1.1106003531538535 [Eh]
	 Correlation Energy        =      -1.4338809107788568 [Eh]
	 Total Energy              =    -310.5850851940780331 [Eh]

	 ================> DF-SCS-MP2 Energies <==================
	-----------------------------------------------------------
	 SCS Same-Spin Scale       =       0.3333333333333333 [-]
	 SCS Opposite-Spin Scale   =       1.2000000000000000 [-]
	 SCS Same-Spin Energy      =      -0.1077601858750011 [Eh]
	 SCS Opposite-Spin Energy  =      -1.3327204237846242 [Eh]
	 SCS Correlation Energy    =      -1.4404806096596252 [Eh]
	 SCS Total Energy          =    -310.5916848929588241 [Eh]
	-----------------------------------------------------------

  Dipole Moment: [D]
     X:    -0.2057      Y:     1.1372      Z:     0.7479     Total:     1.3766

*** Psi4 exiting successfully. Buy a developer a beer!
