                               Psi4 1.4a3.dev225

  ==> Input File <==

--------------------------------------------------------------------------
#psi4
#
memory 32 gb

molecule  {
0 1
  O       -2.5655710    -0.4559810    -0.0273220
  C       -0.3219540     0.2014800    -0.4424590
  C        0.6565553     1.1140757    -0.2398818
  C        0.2481280    -1.1299970     0.0738820
  C        2.0012720     0.4634390     0.3560030
  C        1.7579830    -0.9743980    -0.1079500
  C       -1.6233710     0.5871250     0.2278630
  H       -0.5227930     0.1057830    -1.5165510
  H        0.4809950     2.0448300     0.4733970
  H        1.0672970     1.7363810    -1.1533330
  H       -0.1801860    -1.9933440    -0.4418670
  H        0.0160370    -1.2410800     1.1417000
  H        1.9867890     0.4940190     1.4519300
  H        2.9643500     0.8718720     0.0334030
  H        2.0194460    -1.0766330    -1.1687710
  H        2.3431410    -1.7133200     0.4495090
  H       -1.9840770     1.5507320    -0.1638540
  H       -1.4499160     0.7092340     1.3093790
  H       -3.3958760    -0.2202110     0.4192690
units angstrom
no_reorient  #important for SAPT in psi4, default
symmetry c1  #important for SAPT in psi4, default
}

set PROPERTIES_ORIGIN ["COM"]
properties('MP2/aug-cc-pvtz', properties = ['dipole'])
--------------------------------------------------------------------------

    Molecular point group: c1
  Charge       = 0
  Multiplicity = 1
  Basis Set: AUG-CC-PVTZ
    Blend: AUG-CC-PVTZ
  Basis Set: (AUG-CC-PVTZ AUX)
    Blend: AUG-CC-PVTZ-JKFIT

    Orbital Energies [Eh]
    ---------------------

    Doubly Occupied:

       1A    -20.557213     2A    -11.273993     3A    -11.224656
       4A    -11.217230     5A    -11.210407     6A    -11.209355
       7A    -11.207108     8A     -1.354335     9A     -1.145720
      10A     -1.010240    11A     -0.945539    12A     -0.884059
      13A     -0.784130    14A     -0.747551    15A     -0.688911
      16A     -0.658424    17A     -0.638661    18A     -0.621191
      19A     -0.569721    20A     -0.552073    21A     -0.525451
      22A     -0.519226    23A     -0.471495    24A     -0.468440
      25A     -0.458799    26A     -0.441326    27A     -0.426086
      28A     -0.414392

  @DF-RHF Final Energy:  -309.11577163862182

   => Energetics <=

    Nuclear Repulsion Energy =            327.6427961022096156
    One-Electron Energy =               -1069.0656690475364030
    Two-Electron Energy =                 432.3071013067050217
    Total Energy =                       -309.1157716386218226
  Basis Set: (AUG-CC-PVTZ AUX)
    Blend: AUG-CC-PVTZ-RI
    Molecular point group: c1

    Geometry (in Angstrom), charge = 0, multiplicity = 1:

       Center              X                  Y                   Z               Mass
    ------------   -----------------  -----------------  -----------------  -----------------
         O           -2.515202273559    -0.427261571519    -0.015464651812    15.994914619570
         C           -0.271585273559     0.230199428481    -0.430601651812    12.000000000000
         C            0.706924026441     1.142795128481    -0.228024451812    12.000000000000
         C            0.298496726441    -1.101277571519     0.085739348188    12.000000000000
         C            2.051640726441     0.492158428481     0.367860348188    12.000000000000
         C            1.808351726441    -0.945678571519    -0.096092651812    12.000000000000
         C           -1.573002273559     0.615844428481     0.239720348188    12.000000000000
         H           -0.472424273559     0.134502428481    -1.504693651812     1.007825032230
         H            0.531363726441     2.073549428481     0.485254348188     1.007825032230
         H            1.117665726441     1.765100428481    -1.141475651812     1.007825032230
         H           -0.129817273559    -1.964624571519    -0.430009651812     1.007825032230
         H            0.066405726441    -1.212360571519     1.153557348188     1.007825032230
         H            2.037157726441     0.522738428481     1.463787348188     1.007825032230
         H            3.014718726441     0.900591428481     0.045260348188     1.007825032230
         H            2.069814726441    -1.047913571519    -1.156913651812     1.007825032230
         H            2.393509726441    -1.684600571519     0.461366348188     1.007825032230
         H           -1.933708273559     1.579451428481    -0.151996651812     1.007825032230
         H           -1.399547273559     0.737953428481     1.321236348188     1.007825032230
         H           -3.345507273559    -0.191491571519     0.431126348188     1.007825032230

  Basis Set: AUG-CC-PVTZ
    Blend: AUG-CC-PVTZ
  Basis Set: (AUG-CC-PVTZ AUX)
    Blend: AUG-CC-PVTZ-JKFIT
	 Reference Energy          =    -309.1157716386218226 [Eh]
	 Singles Energy            =      -0.0000000000000000 [Eh]
	 Same-Spin Energy          =      -0.3251836090324938 [Eh]
	 Opposite-Spin Energy      =      -1.1132928899387076 [Eh]
	 Correlation Energy        =      -1.4384764989712013 [Eh]
	 Total Energy              =    -310.5542481375930493 [Eh]

	 ================> DF-SCS-MP2 Energies <==================
	-----------------------------------------------------------
	 SCS Same-Spin Scale       =       0.3333333333333333 [-]
	 SCS Opposite-Spin Scale   =       1.2000000000000000 [-]
	 SCS Same-Spin Energy      =      -0.1083945363441646 [Eh]
	 SCS Opposite-Spin Energy  =      -1.3359514679264490 [Eh]
	 SCS Correlation Energy    =      -1.4443460042706135 [Eh]
	 SCS Total Energy          =    -310.5601176428924646 [Eh]
	-----------------------------------------------------------

  Dipole Moment: [D]
     X:    -0.2305      Y:     1.0647      Z:     0.7502     Total:     1.3227

*** Psi4 exiting successfully. Buy a developer a beer!
