                               Psi4 1.4a3.dev225

  ==> Input File <==

--------------------------------------------------------------------------
#psi4
#
memory 32 gb

molecule  {
0 1
  O       -2.5655710    -0.4559810    -0.0273220
  C       -0.3054318     0.1820676    -0.4332343
  C        0.8011690     1.2489480    -0.2099430
  C        0.2481280    -1.1299970     0.0738820
  C        2.0012720     0.4634390     0.3560030
  C        1.7579830    -0.9743980    -0.1079500
  C       -1.6233710     0.5871250     0.2278630
  H       -0.5227930     0.1057830    -1.5165510
  H        0.4809950     2.0448300     0.4733970
  H        1.0672970     1.7363810    -1.1533330
  H       -0.1801860    -1.9933440    -0.4418670
  H        0.0160370    -1.2410800     1.1417000
  H        1.9867890     0.4940190     1.4519300
  H        2.9643500     0.8718720     0.0334030
  H        2.0194460    -1.0766330    -1.1687710
  H        2.3431410    -1.7133200     0.4495090
  H       -1.9840770     1.5507320    -0.1638540
  H       -1.4499160     0.7092340     1.3093790
  H       -3.3958760    -0.2202110     0.4192690
units angstrom
no_reorient  #important for SAPT in psi4, default
symmetry c1  #important for SAPT in psi4, default
}

set PROPERTIES_ORIGIN ["COM"]
properties('MP2/aug-cc-pvtz', properties = ['dipole'])
--------------------------------------------------------------------------

    Molecular point group: c1
  Charge       = 0
  Multiplicity = 1
  Basis Set: AUG-CC-PVTZ
    Blend: AUG-CC-PVTZ
  Basis Set: (AUG-CC-PVTZ AUX)
    Blend: AUG-CC-PVTZ-JKFIT

    Orbital Energies [Eh]
    ---------------------

    Doubly Occupied:

       1A    -20.555950     2A    -11.271891     3A    -11.217322
       4A    -11.215115     5A    -11.213207     6A    -11.210973
       7A    -11.206003     8A     -1.352470     9A     -1.124322
      10A     -0.994966    11A     -0.958262    12A     -0.873908
      13A     -0.779027    14A     -0.752613    15A     -0.687741
      16A     -0.650320    17A     -0.635285    18A     -0.619986
      19A     -0.569062    20A     -0.560798    21A     -0.524341
      22A     -0.476122    23A     -0.471195    24A     -0.463128
      25A     -0.459455    26A     -0.456406    27A     -0.444823
      28A     -0.433903

  @DF-RHF Final Energy:  -309.16109869452885

   => Energetics <=

    Nuclear Repulsion Energy =            325.0805435406490460
    One-Electron Energy =               -1064.1261015597872301
    Two-Electron Energy =                 429.8844593246093382
    Total Energy =                       -309.1610986945288460
  Basis Set: (AUG-CC-PVTZ AUX)
    Blend: AUG-CC-PVTZ-RI
    Molecular point group: c1

    Geometry (in Angstrom), charge = 0, multiplicity = 1:

       Center              X                  Y                   Z               Mass
    ------------   -----------------  -----------------  -----------------  -----------------
         O           -2.534521423255    -0.441104464953    -0.020160101548    15.994914619570
         C           -0.274382223255     0.196944135047    -0.426072401548    12.000000000000
         C            0.832218576745     1.263824535047    -0.202781101548    12.000000000000
         C            0.279177576745    -1.115120464953     0.081043898452    12.000000000000
         C            2.032321576745     0.478315535047     0.363164898452    12.000000000000
         C            1.789032576745    -0.959521464953    -0.100788101548    12.000000000000
         C           -1.592321423255     0.602001535047     0.235024898452    12.000000000000
         H           -0.491743423255     0.120659535047    -1.509389101548     1.007825032230
         H            0.512044576745     2.059706535047     0.480558898452     1.007825032230
         H            1.098346576745     1.751257535047    -1.146171101548     1.007825032230
         H           -0.149136423255    -1.978467464953    -0.434705101548     1.007825032230
         H            0.047086576745    -1.226203464953     1.148861898452     1.007825032230
         H            2.017838576745     0.508895535047     1.459091898452     1.007825032230
         H            2.995399576745     0.886748535047     0.040564898452     1.007825032230
         H            2.050495576745    -1.061756464953    -1.161609101548     1.007825032230
         H            2.374190576745    -1.698443464953     0.456670898452     1.007825032230
         H           -1.953027423255     1.565608535047    -0.156692101548     1.007825032230
         H           -1.418866423255     0.724110535047     1.316540898452     1.007825032230
         H           -3.364826423255    -0.205334464953     0.426430898452     1.007825032230

  Basis Set: AUG-CC-PVTZ
    Blend: AUG-CC-PVTZ
  Basis Set: (AUG-CC-PVTZ AUX)
    Blend: AUG-CC-PVTZ-JKFIT
	 Reference Energy          =    -309.1610986945288460 [Eh]
	 Singles Energy            =      -0.0000000000000000 [Eh]
	 Same-Spin Energy          =      -0.3224893131740322 [Eh]
	 Opposite-Spin Energy      =      -1.1095921910891675 [Eh]
	 Correlation Energy        =      -1.4320815042631998 [Eh]
	 Total Energy              =    -310.5931801987920267 [Eh]

	 ================> DF-SCS-MP2 Energies <==================
	-----------------------------------------------------------
	 SCS Same-Spin Scale       =       0.3333333333333333 [-]
	 SCS Opposite-Spin Scale   =       1.2000000000000000 [-]
	 SCS Same-Spin Energy      =      -0.1074964377246774 [Eh]
	 SCS Opposite-Spin Energy  =      -1.3315106293070009 [Eh]
	 SCS Correlation Energy    =      -1.4390070670316784 [Eh]
	 SCS Total Energy          =    -310.6001057615605419 [Eh]
	-----------------------------------------------------------

  Dipole Moment: [D]
     X:    -0.1964      Y:     1.1656      Z:     0.7493     Total:     1.3996

*** Psi4 exiting successfully. Buy a developer a beer!
