                               Psi4 1.4a3.dev225

  ==> Input File <==

--------------------------------------------------------------------------
#psi4
#
memory 32 gb

molecule  {
0 1
  O       -2.5655710    -0.4559810    -0.0273220
  C       -0.3219540     0.2014800    -0.4424590
  C        0.8011690     1.2489480    -0.2099430
  C        0.2481280    -1.1299970     0.0738820
  C        2.0012720     0.4634390     0.3560030
  C        1.7579830    -0.9743980    -0.1079500
  C       -1.6233710     0.5871250     0.2278630
  H       -0.5227930     0.1057830    -1.5165510
  H        0.4809950     2.0448300     0.4733970
  H        1.0672970     1.7363810    -1.1533330
  H       -0.1801860    -1.9933440    -0.4418670
  H        0.0160370    -1.2410800     1.1417000
  H        1.9867890     0.4940190     1.4519300
  H        2.9643500     0.8718720     0.0334030
  H        2.0194460    -1.0766330    -1.1687710
  H        2.3431410    -1.7133200     0.4495090
  H       -1.9840770     1.5507320    -0.1638540
  H       -1.4467683     0.7114499     1.3290051
  H       -3.3958760    -0.2202110     0.4192690
units angstrom
no_reorient  #important for SAPT in psi4, default
symmetry c1  #important for SAPT in psi4, default
}

set PROPERTIES_ORIGIN ["COM"]
properties('MP2/aug-cc-pvtz', properties = ['dipole'])
--------------------------------------------------------------------------

    Molecular point group: c1
  Charge       = 0
  Multiplicity = 1
  Basis Set: AUG-CC-PVTZ
    Blend: AUG-CC-PVTZ
  Basis Set: (AUG-CC-PVTZ AUX)
    Blend: AUG-CC-PVTZ-JKFIT

    Orbital Energies [Eh]
    ---------------------

    Doubly Occupied:

       1A    -20.556618     2A    -11.273965     3A    -11.217070
       4A    -11.215304     5A    -11.213400     6A    -11.210838
       7A    -11.206916     8A     -1.353134     9A     -1.121916
      10A     -0.996857    11A     -0.956578    12A     -0.872564
      13A     -0.778323    14A     -0.753359    15A     -0.687360
      16A     -0.650172    17A     -0.634885    18A     -0.618599
      19A     -0.569291    20A     -0.561877    21A     -0.522988
      22A     -0.474016    23A     -0.470026    24A     -0.462532
      25A     -0.459757    26A     -0.457525    27A     -0.448700
      28A     -0.431590

  @DF-RHF Final Energy:  -309.16146574165873

   => Energetics <=

    Nuclear Repulsion Energy =            324.8126111590480605
    One-Electron Energy =               -1063.5958292066470676
    Two-Electron Energy =                 429.6217523059402765
    Total Energy =                       -309.1614657416587306
  Basis Set: (AUG-CC-PVTZ AUX)
    Blend: AUG-CC-PVTZ-RI
    Molecular point group: c1

    Geometry (in Angstrom), charge = 0, multiplicity = 1:

       Center              X                  Y                   Z               Mass
    ------------   -----------------  -----------------  -----------------  -----------------
         O           -2.532572213754    -0.443454198432    -0.019251741057    15.994914619570
         C           -0.288955213754     0.214006801568    -0.434388741057    12.000000000000
         C            0.834167786246     1.261474801568    -0.201872741057    12.000000000000
         C            0.281126786246    -1.117470198432     0.081952258943    12.000000000000
         C            2.034270786246     0.475965801568     0.364073258943    12.000000000000
         C            1.790981786246    -0.961871198432    -0.099879741057    12.000000000000
         C           -1.590372213754     0.599651801568     0.235933258943    12.000000000000
         H           -0.489794213754     0.118309801568    -1.508480741057     1.007825032230
         H            0.513993786246     2.057356801568     0.481467258943     1.007825032230
         H            1.100295786246     1.748907801568    -1.145262741057     1.007825032230
         H           -0.147187213754    -1.980817198432    -0.433796741057     1.007825032230
         H            0.049035786246    -1.228553198432     1.149770258943     1.007825032230
         H            2.019787786246     0.506545801568     1.460000258943     1.007825032230
         H            2.997348786246     0.884398801568     0.041473258943     1.007825032230
         H            2.052444786246    -1.064106198432    -1.160700741057     1.007825032230
         H            2.376139786246    -1.700793198432     0.457579258943     1.007825032230
         H           -1.951078213754     1.563258801568    -0.155783741057     1.007825032230
         H           -1.413769513754     0.723976701568     1.337075358943     1.007825032230
         H           -3.362877213754    -0.207684198432     0.427339258943     1.007825032230

  Basis Set: AUG-CC-PVTZ
    Blend: AUG-CC-PVTZ
  Basis Set: (AUG-CC-PVTZ AUX)
    Blend: AUG-CC-PVTZ-JKFIT
	 Reference Energy          =    -309.1614657416587306 [Eh]
	 Singles Energy            =      -0.0000000000000000 [Eh]
	 Same-Spin Energy          =      -0.3224029138006299 [Eh]
	 Opposite-Spin Energy      =      -1.1096243953240212 [Eh]
	 Correlation Energy        =      -1.4320273091246511 [Eh]
	 Total Energy              =    -310.5934930507833656 [Eh]

	 ================> DF-SCS-MP2 Energies <==================
	-----------------------------------------------------------
	 SCS Same-Spin Scale       =       0.3333333333333333 [-]
	 SCS Opposite-Spin Scale   =       1.2000000000000000 [-]
	 SCS Same-Spin Energy      =      -0.1074676379335433 [Eh]
	 SCS Opposite-Spin Energy  =      -1.3315492743888255 [Eh]
	 SCS Correlation Energy    =      -1.4390169123223688 [Eh]
	 SCS Total Energy          =    -310.6004826539810892 [Eh]
	-----------------------------------------------------------

  Dipole Moment: [D]
     X:    -0.2006      Y:     1.1645      Z:     0.7296     Total:     1.3887

*** Psi4 exiting successfully. Buy a developer a beer!
