                               Psi4 1.4a3.dev225

  ==> Input File <==

--------------------------------------------------------------------------
#psi4
#
memory 32 gb

molecule  {
0 1
  O       -2.5655710    -0.4559810    -0.0273220
  C       -0.3381341     0.2212115    -0.4516129
  C        0.8011690     1.2489480    -0.2099430
  C        0.2481280    -1.1299970     0.0738820
  C        2.0012720     0.4634390     0.3560030
  C        1.7579830    -0.9743980    -0.1079500
  C       -1.6233710     0.5871250     0.2278630
  H       -0.5227930     0.1057830    -1.5165510
  H        0.4809950     2.0448300     0.4733970
  H        1.0672970     1.7363810    -1.1533330
  H       -0.1801860    -1.9933440    -0.4418670
  H        0.0160370    -1.2410800     1.1417000
  H        1.9867890     0.4940190     1.4519300
  H        2.9643500     0.8718720     0.0334030
  H        2.0194460    -1.0766330    -1.1687710
  H        2.3431410    -1.7133200     0.4495090
  H       -1.9840770     1.5507320    -0.1638540
  H       -1.4499160     0.7092340     1.3093790
  H       -3.3958760    -0.2202110     0.4192690
units angstrom
no_reorient  #important for SAPT in psi4, default
symmetry c1  #important for SAPT in psi4, default
}

set PROPERTIES_ORIGIN ["COM"]
properties('MP2/aug-cc-pvtz', properties = ['dipole'])
--------------------------------------------------------------------------

    Molecular point group: c1
  Charge       = 0
  Multiplicity = 1
  Basis Set: AUG-CC-PVTZ
    Blend: AUG-CC-PVTZ
  Basis Set: (AUG-CC-PVTZ AUX)
    Blend: AUG-CC-PVTZ-JKFIT

    Orbital Energies [Eh]
    ---------------------

    Doubly Occupied:

       1A    -20.556363     2A    -11.270936     3A    -11.216498
       4A    -11.215528     5A    -11.213642     6A    -11.210721
       7A    -11.207733     8A     -1.353187     9A     -1.119794
      10A     -0.999697    11A     -0.955014    12A     -0.873564
      13A     -0.777653    14A     -0.755701    15A     -0.687475
      16A     -0.650035    17A     -0.635007    18A     -0.619073
      19A     -0.569922    20A     -0.562604    21A     -0.522908
      22A     -0.473275    23A     -0.469560    24A     -0.464532
      25A     -0.458189    26A     -0.457697    27A     -0.452379
      28A     -0.428422

  @DF-RHF Final Energy:  -309.16150010376492

   => Energetics <=

    Nuclear Repulsion Energy =            324.7303114816303378
    One-Electron Energy =               -1063.4294032543609774
    Two-Electron Energy =                 429.5375916689657174
    Total Energy =                       -309.1615001037649222
  Basis Set: (AUG-CC-PVTZ AUX)
    Blend: AUG-CC-PVTZ-RI
    Molecular point group: c1

    Geometry (in Angstrom), charge = 0, multiplicity = 1:

       Center              X                  Y                   Z               Mass
    ------------   -----------------  -----------------  -----------------  -----------------
         O           -2.530600629508    -0.445797564776    -0.017956626564    15.994914619570
         C           -0.303163729508     0.231394935224    -0.442247526564    12.000000000000
         C            0.836139370492     1.259131435224    -0.200577626564    12.000000000000
         C            0.283098370492    -1.119813564776     0.083247373436    12.000000000000
         C            2.036242370492     0.473622435224     0.365368373436    12.000000000000
         C            1.792953370492    -0.964214564776    -0.098584626564    12.000000000000
         C           -1.588400629508     0.597308435224     0.237228373436    12.000000000000
         H           -0.487822629508     0.115966435224    -1.507185626564     1.007825032230
         H            0.515965370492     2.055013435224     0.482762373436     1.007825032230
         H            1.102267370492     1.746564435224    -1.143967626564     1.007825032230
         H           -0.145215629508    -1.983160564776    -0.432501626564     1.007825032230
         H            0.051007370492    -1.230896564776     1.151065373436     1.007825032230
         H            2.021759370492     0.504202435224     1.461295373436     1.007825032230
         H            2.999320370492     0.882055435224     0.042768373436     1.007825032230
         H            2.054416370492    -1.066449564776    -1.159405626564     1.007825032230
         H            2.378111370492    -1.703136564776     0.458874373436     1.007825032230
         H           -1.949106629508     1.560915435224    -0.154488626564     1.007825032230
         H           -1.414945629508     0.719417435224     1.318744373436     1.007825032230
         H           -3.360905629508    -0.210027564776     0.428634373436     1.007825032230

  Basis Set: AUG-CC-PVTZ
    Blend: AUG-CC-PVTZ
  Basis Set: (AUG-CC-PVTZ AUX)
    Blend: AUG-CC-PVTZ-JKFIT
	 Reference Energy          =    -309.1615001037649222 [Eh]
	 Singles Energy            =      -0.0000000000000000 [Eh]
	 Same-Spin Energy          =      -0.3223274581197151 [Eh]
	 Opposite-Spin Energy      =      -1.1094643731089855 [Eh]
	 Correlation Energy        =      -1.4317918312287006 [Eh]
	 Total Energy              =    -310.5932919349936014 [Eh]

	 ================> DF-SCS-MP2 Energies <==================
	-----------------------------------------------------------
	 SCS Same-Spin Scale       =       0.3333333333333333 [-]
	 SCS Opposite-Spin Scale   =       1.2000000000000000 [-]
	 SCS Same-Spin Energy      =      -0.1074424860399050 [Eh]
	 SCS Opposite-Spin Energy  =      -1.3313572477307825 [Eh]
	 SCS Correlation Energy    =      -1.4387997337706875 [Eh]
	 SCS Total Energy          =    -310.6002998375356015 [Eh]
	-----------------------------------------------------------

  Dipole Moment: [D]
     X:    -0.1935      Y:     1.1758      Z:     0.7442     Total:     1.4049

*** Psi4 exiting successfully. Buy a developer a beer!
