                               Psi4 1.4a3.dev225

  ==> Input File <==

--------------------------------------------------------------------------
#psi4
#
memory 32 gb

molecule  {
0 1
  O       -2.5655710    -0.4559810    -0.0273220
  C       -0.3219540     0.2014800    -0.4424590
  C        0.8011690     1.2489480    -0.2099430
  C        0.2341373    -1.1847075    -0.0768371
  C        2.0012720     0.4634390     0.3560030
  C        1.7579830    -0.9743980    -0.1079500
  C       -1.6233710     0.5871250     0.2278630
  H       -0.5227930     0.1057830    -1.5165510
  H        0.4809950     2.0448300     0.4733970
  H        1.0672970     1.7363810    -1.1533330
  H       -0.1801860    -1.9933440    -0.4418670
  H        0.0160370    -1.2410800     1.1417000
  H        1.9867890     0.4940190     1.4519300
  H        2.9643500     0.8718720     0.0334030
  H        2.0194460    -1.0766330    -1.1687710
  H        2.3431410    -1.7133200     0.4495090
  H       -1.9840770     1.5507320    -0.1638540
  H       -1.4499160     0.7092340     1.3093790
  H       -3.3958760    -0.2202110     0.4192690
units angstrom
no_reorient  #important for SAPT in psi4, default
symmetry c1  #important for SAPT in psi4, default
}

set PROPERTIES_ORIGIN ["COM"]
properties('MP2/aug-cc-pvtz', properties = ['dipole'])
--------------------------------------------------------------------------

    Molecular point group: c1
  Charge       = 0
  Multiplicity = 1
  Basis Set: AUG-CC-PVTZ
    Blend: AUG-CC-PVTZ
  Basis Set: (AUG-CC-PVTZ AUX)
    Blend: AUG-CC-PVTZ-JKFIT

    Orbital Energies [Eh]
    ---------------------

    Doubly Occupied:

       1A    -20.556335     2A    -11.272332     3A    -11.219135
       4A    -11.217786     5A    -11.215813     6A    -11.213938
       7A    -11.212607     8A     -1.352914     9A     -1.120281
      10A     -0.997277    11A     -0.961415    12A     -0.876920
      13A     -0.779563    14A     -0.756390    15A     -0.689706
      16A     -0.661089    17A     -0.635779    18A     -0.617742
      19A     -0.566990    20A     -0.553982    21A     -0.523024
      22A     -0.500255    23A     -0.470892    24A     -0.468242
      25A     -0.463211    26A     -0.454290    27A     -0.434193
      28A     -0.411903

  @DF-RHF Final Energy:  -309.13378162406929

   => Energetics <=

    Nuclear Repulsion Energy =            324.3146234115280322
    One-Electron Energy =               -1062.4887978247918454
    Two-Electron Energy =                 429.0403927891945273
    Total Energy =                       -309.1337816240692860
  Basis Set: (AUG-CC-PVTZ AUX)
    Blend: AUG-CC-PVTZ-RI
    Molecular point group: c1

    Geometry (in Angstrom), charge = 0, multiplicity = 1:

       Center              X                  Y                   Z               Mass
    ------------   -----------------  -----------------  -----------------  -----------------
         O           -2.530863124373    -0.436872451616    -0.000983876913    15.994914619570
         C           -0.287246124373     0.220588548384    -0.416120876913    12.000000000000
         C            0.835876875627     1.268056548384    -0.183604876913    12.000000000000
         C            0.268845175627    -1.165598951616    -0.050498976913    12.000000000000
         C            2.035979875627     0.482547548384     0.382341123087    12.000000000000
         C            1.792690875627    -0.955289451616    -0.081611876913    12.000000000000
         C           -1.588663124373     0.606233548384     0.254201123087    12.000000000000
         H           -0.488085124373     0.124891548384    -1.490212876913     1.007825032230
         H            0.515702875627     2.063938548384     0.499735123087     1.007825032230
         H            1.102004875627     1.755489548384    -1.126994876913     1.007825032230
         H           -0.145478124373    -1.974235451616    -0.415528876913     1.007825032230
         H            0.050744875627    -1.221971451616     1.168038123087     1.007825032230
         H            2.021496875627     0.513127548384     1.478268123087     1.007825032230
         H            2.999057875627     0.890980548384     0.059741123087     1.007825032230
         H            2.054153875627    -1.057524451616    -1.142432876913     1.007825032230
         H            2.377848875627    -1.694211451616     0.475847123087     1.007825032230
         H           -1.949369124373     1.569840548384    -0.137515876913     1.007825032230
         H           -1.415208124373     0.728342548384     1.335717123087     1.007825032230
         H           -3.361168124373    -0.201102451616     0.445607123087     1.007825032230

  Basis Set: AUG-CC-PVTZ
    Blend: AUG-CC-PVTZ
  Basis Set: (AUG-CC-PVTZ AUX)
    Blend: AUG-CC-PVTZ-JKFIT
	 Reference Energy          =    -309.1337816240692860 [Eh]
	 Singles Energy            =      -0.0000000000000000 [Eh]
	 Same-Spin Energy          =      -0.3226725110847155 [Eh]
	 Opposite-Spin Energy      =      -1.1107894024283975 [Eh]
	 Correlation Energy        =      -1.4334619135131130 [Eh]
	 Total Energy              =    -310.5672435375823852 [Eh]

	 ================> DF-SCS-MP2 Energies <==================
	-----------------------------------------------------------
	 SCS Same-Spin Scale       =       0.3333333333333333 [-]
	 SCS Opposite-Spin Scale   =       1.2000000000000000 [-]
	 SCS Same-Spin Energy      =      -0.1075575036949051 [Eh]
	 SCS Opposite-Spin Energy  =      -1.3329472829140769 [Eh]
	 SCS Correlation Energy    =      -1.4405047866089822 [Eh]
	 SCS Total Energy          =    -310.5742864106782690 [Eh]
	-----------------------------------------------------------

  Dipole Moment: [D]
     X:    -0.1683      Y:     1.2184      Z:     0.6234     Total:     1.3789

*** Psi4 exiting successfully. Buy a developer a beer!
