                               Psi4 1.4a3.dev225

  ==> Input File <==

--------------------------------------------------------------------------
#psi4
#
memory 32 gb

molecule  {
0 1
  O       -2.5655710    -0.4559810    -0.0273220
  C       -0.3340202     0.3363546    -0.5247514
  C        0.8011690     1.2489480    -0.2099430
  C        0.2481280    -1.1299970     0.0738820
  C        2.0012720     0.4634390     0.3560030
  C        1.7579830    -0.9743980    -0.1079500
  C       -1.6233710     0.5871250     0.2278630
  H       -0.5227930     0.1057830    -1.5165510
  H        0.4809950     2.0448300     0.4733970
  H        1.0672970     1.7363810    -1.1533330
  H       -0.1801860    -1.9933440    -0.4418670
  H        0.0160370    -1.2410800     1.1417000
  H        1.9867890     0.4940190     1.4519300
  H        2.9643500     0.8718720     0.0334030
  H        2.0194460    -1.0766330    -1.1687710
  H        2.3431410    -1.7133200     0.4495090
  H       -1.9840770     1.5507320    -0.1638540
  H       -1.4499160     0.7092340     1.3093790
  H       -3.3958760    -0.2202110     0.4192690
units angstrom
no_reorient  #important for SAPT in psi4, default
symmetry c1  #important for SAPT in psi4, default
}

set PROPERTIES_ORIGIN ["COM"]
properties('MP2/aug-cc-pvtz', properties = ['dipole'])
--------------------------------------------------------------------------

    Molecular point group: c1
  Charge       = 0
  Multiplicity = 1
  Basis Set: AUG-CC-PVTZ
    Blend: AUG-CC-PVTZ
  Basis Set: (AUG-CC-PVTZ AUX)
    Blend: AUG-CC-PVTZ-JKFIT

    Orbital Energies [Eh]
    ---------------------

    Doubly Occupied:

       1A    -20.557690     2A    -11.272299     3A    -11.217346
       4A    -11.215086     5A    -11.214483     6A    -11.210480
       7A    -11.209423     8A     -1.353023     9A     -1.117104
      10A     -1.001663    11A     -0.951609    12A     -0.873114
      13A     -0.777147    14A     -0.762129    15A     -0.686010
      16A     -0.649606    17A     -0.635373    18A     -0.614945
      19A     -0.578055    20A     -0.562699    21A     -0.520272
      22A     -0.495268    23A     -0.472828    24A     -0.464661
      25A     -0.460234    26A     -0.453548    27A     -0.451793
      28A     -0.396198

  @DF-RHF Final Energy:  -309.14206524289511

   => Energetics <=

    Nuclear Repulsion Energy =            323.8161625791008191
    One-Electron Energy =               -1061.5682841877260216
    Two-Electron Energy =                 428.6100563657300881
    Total Energy =                       -309.1420652428951144
  Basis Set: (AUG-CC-PVTZ AUX)
    Blend: AUG-CC-PVTZ-RI
    Molecular point group: c1

    Geometry (in Angstrom), charge = 0, multiplicity = 1:

       Center              X                  Y                   Z               Mass
    ------------   -----------------  -----------------  -----------------  -----------------
         O           -2.531093859446    -0.459602475943    -0.009187794603    15.994914619570
         C           -0.299543059446     0.332733124057    -0.506617194603    12.000000000000
         C            0.835646140554     1.245326524057    -0.191808794603    12.000000000000
         C            0.282605140554    -1.133618475943     0.092016205397    12.000000000000
         C            2.035749140554     0.459817524057     0.374137205397    12.000000000000
         C            1.792460140554    -0.978019475943    -0.089815794603    12.000000000000
         C           -1.588893859446     0.583503524057     0.245997205397    12.000000000000
         H           -0.488315859446     0.102161524057    -1.498416794603     1.007825032230
         H            0.515472140554     2.041208524057     0.491531205397     1.007825032230
         H            1.101774140554     1.732759524057    -1.135198794603     1.007825032230
         H           -0.145708859446    -1.996965475943    -0.423732794603     1.007825032230
         H            0.050514140554    -1.244701475943     1.159834205397     1.007825032230
         H            2.021266140554     0.490397524057     1.470064205397     1.007825032230
         H            2.998827140554     0.868250524057     0.051537205397     1.007825032230
         H            2.053923140554    -1.080254475943    -1.150636794603     1.007825032230
         H            2.377618140554    -1.716941475943     0.467643205397     1.007825032230
         H           -1.949599859446     1.547110524057    -0.145719794603     1.007825032230
         H           -1.415438859446     0.705612524057     1.327513205397     1.007825032230
         H           -3.361398859446    -0.223832475943     0.437403205397     1.007825032230

  Basis Set: AUG-CC-PVTZ
    Blend: AUG-CC-PVTZ
  Basis Set: (AUG-CC-PVTZ AUX)
    Blend: AUG-CC-PVTZ-JKFIT
	 Reference Energy          =    -309.1420652428951144 [Eh]
	 Singles Energy            =      -0.0000000000000000 [Eh]
	 Same-Spin Energy          =      -0.3228603015421166 [Eh]
	 Opposite-Spin Energy      =      -1.1107898861151024 [Eh]
	 Correlation Energy        =      -1.4336501876572192 [Eh]
	 Total Energy              =    -310.5757154305523500 [Eh]

	 ================> DF-SCS-MP2 Energies <==================
	-----------------------------------------------------------
	 SCS Same-Spin Scale       =       0.3333333333333333 [-]
	 SCS Opposite-Spin Scale   =       1.2000000000000000 [-]
	 SCS Same-Spin Energy      =      -0.1076201005140389 [Eh]
	 SCS Opposite-Spin Energy  =      -1.3329478633381229 [Eh]
	 SCS Correlation Energy    =      -1.4405679638521618 [Eh]
	 SCS Total Energy          =    -310.5826332067472890 [Eh]
	-----------------------------------------------------------

  Dipole Moment: [D]
     X:    -0.1873      Y:     1.1798      Z:     0.7272     Total:     1.3985

*** Psi4 exiting successfully. Buy a developer a beer!
