                               Psi4 1.4a3.dev225

  ==> Input File <==

--------------------------------------------------------------------------
#psi4
#
memory 32 gb

molecule  {
0 1
  O       -2.5655710    -0.4559810    -0.0273220
  C       -0.3587977     0.2198191    -0.3433353
  C        0.8011690     1.2489480    -0.2099430
  C        0.2481280    -1.1299970     0.0738820
  C        2.0012720     0.4634390     0.3560030
  C        1.7579830    -0.9743980    -0.1079500
  C       -1.6233710     0.5871250     0.2278630
  H       -0.5227930     0.1057830    -1.5165510
  H        0.4809950     2.0448300     0.4733970
  H        1.0672970     1.7363810    -1.1533330
  H       -0.1801860    -1.9933440    -0.4418670
  H        0.0160370    -1.2410800     1.1417000
  H        1.9867890     0.4940190     1.4519300
  H        2.9643500     0.8718720     0.0334030
  H        2.0194460    -1.0766330    -1.1687710
  H        2.3431410    -1.7133200     0.4495090
  H       -1.9840770     1.5507320    -0.1638540
  H       -1.4499160     0.7092340     1.3093790
  H       -3.3958760    -0.2202110     0.4192690
units angstrom
no_reorient  #important for SAPT in psi4, default
symmetry c1  #important for SAPT in psi4, default
}

set PROPERTIES_ORIGIN ["COM"]
properties('MP2/aug-cc-pvtz', properties = ['dipole'])
--------------------------------------------------------------------------

    Molecular point group: c1
  Charge       = 0
  Multiplicity = 1
  Basis Set: AUG-CC-PVTZ
    Blend: AUG-CC-PVTZ
  Basis Set: (AUG-CC-PVTZ AUX)
    Blend: AUG-CC-PVTZ-JKFIT

    Orbital Energies [Eh]
    ---------------------

    Doubly Occupied:

       1A    -20.557889     2A    -11.269744     3A    -11.221267
       4A    -11.217805     5A    -11.214688     6A    -11.212221
       7A    -11.208394     8A     -1.355547     9A     -1.124469
      10A     -1.010246    11A     -0.957670    12A     -0.877862
      13A     -0.780121    14A     -0.744403    15A     -0.692103
      16A     -0.651854    17A     -0.638063    18A     -0.624796
      19A     -0.567900    20A     -0.559172    21A     -0.524526
      22A     -0.481051    23A     -0.474326    24A     -0.468558
      25A     -0.463541    26A     -0.456563    27A     -0.447684
      28A     -0.413185

  @DF-RHF Final Energy:  -309.14870071509341

   => Energetics <=

    Nuclear Repulsion Energy =            325.5671833163326028
    One-Electron Energy =               -1065.0004714211820556
    Two-Electron Energy =                 430.2845873897560409
    Total Energy =                       -309.1487007150934119
  Basis Set: (AUG-CC-PVTZ AUX)
    Blend: AUG-CC-PVTZ-RI
    Molecular point group: c1

    Geometry (in Angstrom), charge = 0, multiplicity = 1:

       Center              X                  Y                   Z               Mass
    ------------   -----------------  -----------------  -----------------  -----------------
         O           -2.528123197839    -0.445630625043    -0.030938408794    15.994914619570
         C           -0.321349897839     0.230169474957    -0.346951708794    12.000000000000
         C            0.838616802161     1.259298374957    -0.213559408794    12.000000000000
         C            0.285575802161    -1.119646625043     0.070265591206    12.000000000000
         C            2.038719802161     0.473789374957     0.352386591206    12.000000000000
         C            1.795430802161    -0.964047625043    -0.111566408794    12.000000000000
         C           -1.585923197839     0.597475374957     0.224246591206    12.000000000000
         H           -0.485345197839     0.116133374957    -1.520167408794     1.007825032230
         H            0.518442802161     2.055180374957     0.469780591206     1.007825032230
         H            1.104744802161     1.746731374957    -1.156949408794     1.007825032230
         H           -0.142738197839    -1.982993625043    -0.445483408794     1.007825032230
         H            0.053484802161    -1.230729625043     1.138083591206     1.007825032230
         H            2.024236802161     0.504369374957     1.448313591206     1.007825032230
         H            3.001797802161     0.882222374957     0.029786591206     1.007825032230
         H            2.056893802161    -1.066282625043    -1.172387408794     1.007825032230
         H            2.380588802161    -1.702969625043     0.445892591206     1.007825032230
         H           -1.946629197839     1.561082374957    -0.167470408794     1.007825032230
         H           -1.412468197839     0.719584374957     1.305762591206     1.007825032230
         H           -3.358428197839    -0.209860625043     0.415652591206     1.007825032230

  Basis Set: AUG-CC-PVTZ
    Blend: AUG-CC-PVTZ
  Basis Set: (AUG-CC-PVTZ AUX)
    Blend: AUG-CC-PVTZ-JKFIT
	 Reference Energy          =    -309.1487007150934119 [Eh]
	 Singles Energy            =      -0.0000000000000000 [Eh]
	 Same-Spin Energy          =      -0.3232231682919072 [Eh]
	 Opposite-Spin Energy      =      -1.1107651732299810 [Eh]
	 Correlation Energy        =      -1.4339883415218881 [Eh]
	 Total Energy              =    -310.5826890566153224 [Eh]

	 ================> DF-SCS-MP2 Energies <==================
	-----------------------------------------------------------
	 SCS Same-Spin Scale       =       0.3333333333333333 [-]
	 SCS Opposite-Spin Scale   =       1.2000000000000000 [-]
	 SCS Same-Spin Energy      =      -0.1077410560973024 [Eh]
	 SCS Opposite-Spin Energy  =      -1.3329182078759771 [Eh]
	 SCS Correlation Energy    =      -1.4406592639732796 [Eh]
	 SCS Total Energy          =    -310.5893599790666713 [Eh]
	-----------------------------------------------------------

  Dipole Moment: [D]
     X:    -0.1471      Y:     1.1893      Z:     0.8036     Total:     1.4429

*** Psi4 exiting successfully. Buy a developer a beer!
