                               Psi4 1.4a3.dev225

  ==> Input File <==

--------------------------------------------------------------------------
#psi4
#
memory 32 gb

molecule  {
0 1
  O       -2.5655710    -0.4559810    -0.0273220
  C       -0.3219540     0.2014800    -0.4424590
  C        0.8011690     1.2489480    -0.2099430
  C        0.2481280    -1.1299970     0.0738820
  C        2.0012720     0.4634390     0.3560030
  C        1.7579830    -0.9743980    -0.1079500
  C       -1.6233710     0.5871250     0.2278630
  H       -0.5227930     0.1057830    -1.5165510
  H        0.4809950     2.0448300     0.4733970
  H        1.0672970     1.7363810    -1.1533330
  H       -0.1801860    -1.9933440    -0.4418670
  H        0.0160370    -1.2410800     1.1417000
  H        1.9881099     0.4912300     1.3519776
  H        2.9643500     0.8718720     0.0334030
  H        2.0194460    -1.0766330    -1.1687710
  H        2.3431410    -1.7133200     0.4495090
  H       -1.9840770     1.5507320    -0.1638540
  H       -1.4499160     0.7092340     1.3093790
  H       -3.3958760    -0.2202110     0.4192690
units angstrom
no_reorient  #important for SAPT in psi4, default
symmetry c1  #important for SAPT in psi4, default
}

set PROPERTIES_ORIGIN ["COM"]
properties('MP2/aug-cc-pvtz', properties = ['dipole'])
--------------------------------------------------------------------------

    Molecular point group: c1
  Charge       = 0
  Multiplicity = 1
  Basis Set: AUG-CC-PVTZ
    Blend: AUG-CC-PVTZ
  Basis Set: (AUG-CC-PVTZ AUX)
    Blend: AUG-CC-PVTZ-JKFIT

    Orbital Energies [Eh]
    ---------------------

    Doubly Occupied:

       1A    -20.556022     2A    -11.271250     3A    -11.216445
       4A    -11.214310     5A    -11.209880     6A    -11.206697
       7A    -11.200402     8A     -1.352698     9A     -1.122994
      10A     -0.999477    11A     -0.957959    12A     -0.875273
      13A     -0.786366    14A     -0.754282    15A     -0.687723
      16A     -0.649707    17A     -0.638758    18A     -0.619522
      19A     -0.569909    20A     -0.566582    21A     -0.524320
      22A     -0.473649    23A     -0.469600    24A     -0.463362
      25A     -0.461729    26A     -0.459036    27A     -0.448921
      28A     -0.432362

  @DF-RHF Final Energy:  -309.15619348939794

   => Energetics <=

    Nuclear Repulsion Energy =            325.3898579390789791
    One-Electron Energy =               -1064.7136343079168910
    Two-Electron Energy =                 430.1675828794399763
    Total Energy =                       -309.1561934893979355
  Basis Set: (AUG-CC-PVTZ AUX)
    Blend: AUG-CC-PVTZ-RI
    Molecular point group: c1

    Geometry (in Angstrom), charge = 0, multiplicity = 1:

       Center              X                  Y                   Z               Mass
    ------------   -----------------  -----------------  -----------------  -----------------
         O           -2.532553819144    -0.443403802556    -0.018047668398    15.994914619570
         C           -0.288936819144     0.214057197444    -0.433184668398    12.000000000000
         C            0.834186180856     1.261525197444    -0.200668668398    12.000000000000
         C            0.281145180856    -1.117419802556     0.083156331602    12.000000000000
         C            2.034289180856     0.476016197444     0.365277331602    12.000000000000
         C            1.791000180856    -0.961820802556    -0.098675668398    12.000000000000
         C           -1.590353819144     0.599702197444     0.237137331602    12.000000000000
         H           -0.489775819144     0.118360197444    -1.507276668398     1.007825032230
         H            0.514012180856     2.057407197444     0.482671331602     1.007825032230
         H            1.100314180856     1.748958197444    -1.144058668398     1.007825032230
         H           -0.147168819144    -1.980766802556    -0.432592668398     1.007825032230
         H            0.049054180856    -1.228502802556     1.150974331602     1.007825032230
         H            2.021127080856     0.503807197444     1.361251931602     1.007825032230
         H            2.997367180856     0.884449197444     0.042677331602     1.007825032230
         H            2.052463180856    -1.064055802556    -1.159496668398     1.007825032230
         H            2.376158180856    -1.700742802556     0.458783331602     1.007825032230
         H           -1.951059819144     1.563309197444    -0.154579668398     1.007825032230
         H           -1.416898819144     0.721811197444     1.318653331602     1.007825032230
         H           -3.362858819144    -0.207633802556     0.428543331602     1.007825032230

  Basis Set: AUG-CC-PVTZ
    Blend: AUG-CC-PVTZ
  Basis Set: (AUG-CC-PVTZ AUX)
    Blend: AUG-CC-PVTZ-JKFIT
	 Reference Energy          =    -309.1561934893979355 [Eh]
	 Singles Energy            =      -0.0000000000000000 [Eh]
	 Same-Spin Energy          =      -0.3223973773360003 [Eh]
	 Opposite-Spin Energy      =      -1.1089784313955864 [Eh]
	 Correlation Energy        =      -1.4313758087315867 [Eh]
	 Total Energy              =    -310.5875692981294947 [Eh]

	 ================> DF-SCS-MP2 Energies <==================
	-----------------------------------------------------------
	 SCS Same-Spin Scale       =       0.3333333333333333 [-]
	 SCS Opposite-Spin Scale   =       1.2000000000000000 [-]
	 SCS Same-Spin Energy      =      -0.1074657924453334 [Eh]
	 SCS Opposite-Spin Energy  =      -1.3307741176747037 [Eh]
	 SCS Correlation Energy    =      -1.4382399101200372 [Eh]
	 SCS Total Energy          =    -310.5944333995179818 [Eh]
	-----------------------------------------------------------

  Dipole Moment: [D]
     X:    -0.1807      Y:     1.1779      Z:     0.8078     Total:     1.4397

*** Psi4 exiting successfully. Buy a developer a beer!
