                               Psi4 1.4a3.dev225

  ==> Input File <==

--------------------------------------------------------------------------
#psi4
#
memory 32 gb

molecule  {
0 1
  O       -2.5655710    -0.4559810    -0.0273220
  C       -0.3219540     0.2014800    -0.4424590
  C        0.8011690     1.2489480    -0.2099430
  C        0.2481280    -1.1299970     0.0738820
  C        2.0012720     0.4634390     0.3560030
  C        1.7579830    -0.9743980    -0.1079500
  C       -1.6233710     0.5871250     0.2278630
  H       -0.5227930     0.1057830    -1.5165510
  H        0.4809950     2.0448300     0.4733970
  H        1.0672970     1.7363810    -1.1533330
  H       -0.1801860    -1.9933440    -0.4418670
  H        0.0160370    -1.2410800     1.1417000
  H        1.9867890     0.4940190     1.4519300
  H        2.9643500     0.8718720     0.0334030
  H        2.0194460    -1.0766330    -1.1687710
  H        2.3431410    -1.7133200     0.4495090
  H       -1.9840770     1.5507320    -0.1638540
  H       -1.4577851     0.7036943     1.2603139
  H       -3.3958760    -0.2202110     0.4192690
units angstrom
no_reorient  #important for SAPT in psi4, default
symmetry c1  #important for SAPT in psi4, default
}

set PROPERTIES_ORIGIN ["COM"]
properties('MP2/aug-cc-pvtz', properties = ['dipole'])
--------------------------------------------------------------------------

    Molecular point group: c1
  Charge       = 0
  Multiplicity = 1
  Basis Set: AUG-CC-PVTZ
    Blend: AUG-CC-PVTZ
  Basis Set: (AUG-CC-PVTZ AUX)
    Blend: AUG-CC-PVTZ-JKFIT

    Orbital Energies [Eh]
    ---------------------

    Doubly Occupied:

       1A    -20.555097     2A    -11.264907     3A    -11.216273
       4A    -11.215264     5A    -11.213436     6A    -11.210822
       7A    -11.206893     8A     -1.352186     9A     -1.121989
      10A     -0.998617    11A     -0.956563    12A     -0.877145
      13A     -0.778294    14A     -0.756460    15A     -0.688295
      16A     -0.650189    17A     -0.635919    18A     -0.621703
      19A     -0.569231    20A     -0.561731    21A     -0.524951
      22A     -0.474022    23A     -0.470881    24A     -0.462502
      25A     -0.459952    26A     -0.457679    27A     -0.448184
      28A     -0.433427

  @DF-RHF Final Energy:  -309.16136098482531

   => Energetics <=

    Nuclear Repulsion Energy =            325.1400519635662363
    One-Electron Energy =               -1064.2375963901872638
    Two-Electron Energy =                 429.9361834417956629
    Total Energy =                       -309.1613609848253077
  Basis Set: (AUG-CC-PVTZ AUX)
    Blend: AUG-CC-PVTZ-RI
    Molecular point group: c1

    Geometry (in Angstrom), charge = 0, multiplicity = 1:

       Center              X                  Y                   Z               Mass
    ------------   -----------------  -----------------  -----------------  -----------------
         O           -2.532461282210    -0.443376104912    -0.018560068258    15.994914619570
         C           -0.288844282210     0.214084895088    -0.433697068258    12.000000000000
         C            0.834278717790     1.261552895088    -0.201181068258    12.000000000000
         C            0.281237717790    -1.117392104912     0.082643931742    12.000000000000
         C            2.034381717790     0.476043895088     0.364764931742    12.000000000000
         C            1.791092717790    -0.961793104912    -0.099188068258    12.000000000000
         C           -1.590261282210     0.599729895088     0.236624931742    12.000000000000
         H           -0.489683282210     0.118387895088    -1.507789068258     1.007825032230
         H            0.514104717790     2.057434895088     0.482158931742     1.007825032230
         H            1.100406717790     1.748985895088    -1.144571068258     1.007825032230
         H           -0.147076282210    -1.980739104912    -0.433105068258     1.007825032230
         H            0.049146717790    -1.228475104912     1.150461931742     1.007825032230
         H            2.019898717790     0.506623895088     1.460691931742     1.007825032230
         H            2.997459717790     0.884476895088     0.042164931742     1.007825032230
         H            2.052555717790    -1.064028104912    -1.160009068258     1.007825032230
         H            2.376250717790    -1.700715104912     0.458270931742     1.007825032230
         H           -1.950967282210     1.563336895088    -0.155092068258     1.007825032230
         H           -1.424675382210     0.716299195088     1.269075831742     1.007825032230
         H           -3.362766282210    -0.207606104912     0.428030931742     1.007825032230

  Basis Set: AUG-CC-PVTZ
    Blend: AUG-CC-PVTZ
  Basis Set: (AUG-CC-PVTZ AUX)
    Blend: AUG-CC-PVTZ-JKFIT
	 Reference Energy          =    -309.1613609848253077 [Eh]
	 Singles Energy            =      -0.0000000000000000 [Eh]
	 Same-Spin Energy          =      -0.3223091254859872 [Eh]
	 Opposite-Spin Energy      =      -1.1091223626475308 [Eh]
	 Correlation Energy        =      -1.4314314881335179 [Eh]
	 Total Energy              =    -310.5927924729588199 [Eh]

	 ================> DF-SCS-MP2 Energies <==================
	-----------------------------------------------------------
	 SCS Same-Spin Scale       =       0.3333333333333333 [-]
	 SCS Opposite-Spin Scale   =       1.2000000000000000 [-]
	 SCS Same-Spin Energy      =      -0.1074363751619957 [Eh]
	 SCS Opposite-Spin Energy  =      -1.3309468351770370 [Eh]
	 SCS Correlation Energy    =      -1.4383832103390328 [Eh]
	 SCS Total Energy          =    -310.5997441951643623 [Eh]
	-----------------------------------------------------------

  Dipole Moment: [D]
     X:    -0.1836      Y:     1.1863      Z:     0.7847     Total:     1.4341

*** Psi4 exiting successfully. Buy a developer a beer!
