                               Psi4 1.4a3.dev225

  ==> Input File <==

--------------------------------------------------------------------------
#psi4
#
memory 32 gb

molecule  {
0 1
  O       -2.5655710    -0.4559810    -0.0273220
  C       -0.3219540     0.2014800    -0.4424590
  C        0.8011690     1.2489480    -0.2099430
  C        0.2481280    -1.1299970     0.0738820
  C        2.0012720     0.4634390     0.3560030
  C        1.7579830    -0.9743980    -0.1079500
  C       -1.6233710     0.5871250     0.2278630
  H       -0.5227930     0.1057830    -1.5165510
  H        0.4809950     2.0448300     0.4733970
  H        1.0672970     1.7363810    -1.1533330
  H       -0.1801860    -1.9933440    -0.4418670
  H        0.0160370    -1.2410800     1.1417000
  H        1.9894308     0.4884410     1.2520253
  H        2.9643500     0.8718720     0.0334030
  H        2.0194460    -1.0766330    -1.1687710
  H        2.3431410    -1.7133200     0.4495090
  H       -1.9840770     1.5507320    -0.1638540
  H       -1.4499160     0.7092340     1.3093790
  H       -3.3958760    -0.2202110     0.4192690
units angstrom
no_reorient  #important for SAPT in psi4, default
symmetry c1  #important for SAPT in psi4, default
}

set PROPERTIES_ORIGIN ["COM"]
properties('MP2/aug-cc-pvtz', properties = ['dipole'])
--------------------------------------------------------------------------

    Molecular point group: c1
  Charge       = 0
  Multiplicity = 1
  Basis Set: AUG-CC-PVTZ
    Blend: AUG-CC-PVTZ
  Basis Set: (AUG-CC-PVTZ AUX)
    Blend: AUG-CC-PVTZ-JKFIT

    Orbital Energies [Eh]
    ---------------------

    Doubly Occupied:

       1A    -20.555939     2A    -11.271153     3A    -11.216200
       4A    -11.213656     5A    -11.209183     6A    -11.206579
       7A    -11.187518     8A     -1.352614     9A     -1.125052
      10A     -1.003358    11A     -0.960095    12A     -0.877792
      13A     -0.796475    14A     -0.754399    15A     -0.688026
      16A     -0.649411    17A     -0.643030    18A     -0.619524
      19A     -0.574007    20A     -0.567798    21A     -0.525047
      22A     -0.474224    23A     -0.469518    24A     -0.467210
      25A     -0.461218    26A     -0.458583    27A     -0.448970
      28A     -0.432439

  @DF-RHF Final Energy:  -309.12890257215406

   => Energetics <=

    Nuclear Repulsion Energy =            325.9442716022751370
    One-Electron Energy =               -1065.7283172183088027
    Two-Electron Energy =                 430.6551430438795478
    Total Energy =                       -309.1289025721540611
  Basis Set: (AUG-CC-PVTZ AUX)
    Blend: AUG-CC-PVTZ-RI
    Molecular point group: c1

    Geometry (in Angstrom), charge = 0, multiplicity = 1:

       Center              X                  Y                   Z               Mass
    ------------   -----------------  -----------------  -----------------  -----------------
         O           -2.532567119692    -0.443375719258    -0.017041217977    15.994914619570
         C           -0.288950119692     0.214085280742    -0.432178217977    12.000000000000
         C            0.834172880308     1.261553280742    -0.199662217977    12.000000000000
         C            0.281131880308    -1.117391719258     0.084162782023    12.000000000000
         C            2.034275880308     0.476044280742     0.366283782023    12.000000000000
         C            1.790986880308    -0.961792719258    -0.097669217977    12.000000000000
         C           -1.590367119692     0.599730280742     0.238143782023    12.000000000000
         H           -0.489789119692     0.118388280742    -1.506270217977     1.007825032230
         H            0.513998880308     2.057435280742     0.483677782023     1.007825032230
         H            1.100300880308     1.748986280742    -1.143052217977     1.007825032230
         H           -0.147182119692    -1.980738719258    -0.431586217977     1.007825032230
         H            0.049040880308    -1.228474719258     1.151980782023     1.007825032230
         H            2.022434680308     0.501046280742     1.262306082023     1.007825032230
         H            2.997353880308     0.884477280742     0.043683782023     1.007825032230
         H            2.052449880308    -1.064027719258    -1.158490217977     1.007825032230
         H            2.376144880308    -1.700714719258     0.459789782023     1.007825032230
         H           -1.951073119692     1.563337280742    -0.153573217977     1.007825032230
         H           -1.416912119692     0.721839280742     1.319659782023     1.007825032230
         H           -3.362872119692    -0.207605719258     0.429549782023     1.007825032230

  Basis Set: AUG-CC-PVTZ
    Blend: AUG-CC-PVTZ
  Basis Set: (AUG-CC-PVTZ AUX)
    Blend: AUG-CC-PVTZ-JKFIT
	 Reference Energy          =    -309.1289025721540611 [Eh]
	 Singles Energy            =      -0.0000000000000000 [Eh]
	 Same-Spin Energy          =      -0.3224667905358986 [Eh]
	 Opposite-Spin Energy      =      -1.1088242290827419 [Eh]
	 Correlation Energy        =      -1.4312910196186404 [Eh]
	 Total Energy              =    -310.5601935917727019 [Eh]

	 ================> DF-SCS-MP2 Energies <==================
	-----------------------------------------------------------
	 SCS Same-Spin Scale       =       0.3333333333333333 [-]
	 SCS Opposite-Spin Scale   =       1.2000000000000000 [-]
	 SCS Same-Spin Energy      =      -0.1074889301786328 [Eh]
	 SCS Opposite-Spin Energy  =      -1.3305890748992903 [Eh]
	 SCS Correlation Energy    =      -1.4380780050779232 [Eh]
	 SCS Total Energy          =    -310.5669805772319592 [Eh]
	-----------------------------------------------------------

  Dipole Moment: [D]
     X:    -0.1700      Y:     1.1828      Z:     0.8488     Total:     1.4657

*** Psi4 exiting successfully. Buy a developer a beer!
