                               Psi4 1.4a3.dev225

  ==> Input File <==

--------------------------------------------------------------------------
#psi4
#
memory 32 gb

molecule  {
0 1
  O       -2.5655710    -0.4559810    -0.0273220
  C       -0.3219540     0.2014800    -0.4424590
  C        0.8373224     1.2826661    -0.2024583
  C        0.2481280    -1.1299970     0.0738820
  C        2.0012720     0.4634390     0.3560030
  C        1.7579830    -0.9743980    -0.1079500
  C       -1.6233710     0.5871250     0.2278630
  H       -0.5227930     0.1057830    -1.5165510
  H        0.4809950     2.0448300     0.4733970
  H        1.0672970     1.7363810    -1.1533330
  H       -0.1801860    -1.9933440    -0.4418670
  H        0.0160370    -1.2410800     1.1417000
  H        1.9867890     0.4940190     1.4519300
  H        2.9643500     0.8718720     0.0334030
  H        2.0194460    -1.0766330    -1.1687710
  H        2.3431410    -1.7133200     0.4495090
  H       -1.9840770     1.5507320    -0.1638540
  H       -1.4499160     0.7092340     1.3093790
  H       -3.3958760    -0.2202110     0.4192690
units angstrom
no_reorient  #important for SAPT in psi4, default
symmetry c1  #important for SAPT in psi4, default
}

set PROPERTIES_ORIGIN ["COM"]
properties('MP2/aug-cc-pvtz', properties = ['dipole'])
--------------------------------------------------------------------------

    Molecular point group: c1
  Charge       = 0
  Multiplicity = 1
  Basis Set: AUG-CC-PVTZ
    Blend: AUG-CC-PVTZ
  Basis Set: (AUG-CC-PVTZ AUX)
    Blend: AUG-CC-PVTZ-JKFIT

    Orbital Energies [Eh]
    ---------------------

    Doubly Occupied:

       1A    -20.555926     2A    -11.271023     3A    -11.218500
       4A    -11.214333     5A    -11.213015     6A    -11.211174
       7A    -11.206698     8A     -1.352549     9A     -1.118300
      10A     -0.995383    11A     -0.959030    12A     -0.872227
      13A     -0.778038    14A     -0.754990    15A     -0.687025
      16A     -0.648835    17A     -0.635099    18A     -0.619064
      19A     -0.572808    20A     -0.562172    21A     -0.523676
      22A     -0.479194    23A     -0.470026    24A     -0.461801
      25A     -0.459714    26A     -0.450764    27A     -0.447053
      28A     -0.432428

  @DF-RHF Final Energy:  -309.16035870228626

   => Energetics <=

    Nuclear Repulsion Energy =            324.2678168946480923
    One-Electron Energy =               -1062.5146557597468018
    Two-Electron Energy =                 429.0864801628123928
    Total Energy =                       -309.1603587022862598
  Basis Set: (AUG-CC-PVTZ AUX)
    Blend: AUG-CC-PVTZ-RI
    Molecular point group: c1

    Geometry (in Angstrom), charge = 0, multiplicity = 1:

       Center              X                  Y                   Z               Mass
    ------------   -----------------  -----------------  -----------------  -----------------
         O           -2.536875076857    -0.447474467434    -0.019951486829    15.994914619570
         C           -0.293258076857     0.209986532566    -0.435088486829    12.000000000000
         C            0.866018323143     1.291172632566    -0.195087786829    12.000000000000
         C            0.276823923143    -1.121490467434     0.081252513171    12.000000000000
         C            2.029967923143     0.471945532566     0.363373513171    12.000000000000
         C            1.786678923143    -0.965891467434    -0.100579486829    12.000000000000
         C           -1.594675076857     0.595631532566     0.235233513171    12.000000000000
         H           -0.494097076857     0.114289532566    -1.509180486829     1.007825032230
         H            0.509690923143     2.053336532566     0.480767513171     1.007825032230
         H            1.095992923143     1.744887532566    -1.145962486829     1.007825032230
         H           -0.151490076857    -1.984837467434    -0.434496486829     1.007825032230
         H            0.044732923143    -1.232573467434     1.149070513171     1.007825032230
         H            2.015484923143     0.502525532566     1.459300513171     1.007825032230
         H            2.993045923143     0.880378532566     0.040773513171     1.007825032230
         H            2.048141923143    -1.068126467434    -1.161400486829     1.007825032230
         H            2.371836923143    -1.704813467434     0.456879513171     1.007825032230
         H           -1.955381076857     1.559238532566    -0.156483486829     1.007825032230
         H           -1.421220076857     0.717740532566     1.316749513171     1.007825032230
         H           -3.367180076857    -0.211704467434     0.426639513171     1.007825032230

  Basis Set: AUG-CC-PVTZ
    Blend: AUG-CC-PVTZ
  Basis Set: (AUG-CC-PVTZ AUX)
    Blend: AUG-CC-PVTZ-JKFIT
	 Reference Energy          =    -309.1603587022862598 [Eh]
	 Singles Energy            =      -0.0000000000000000 [Eh]
	 Same-Spin Energy          =      -0.3222501559605024 [Eh]
	 Opposite-Spin Energy      =      -1.1094327071073735 [Eh]
	 Correlation Energy        =      -1.4316828630678760 [Eh]
	 Total Energy              =    -310.5920415653541227 [Eh]

	 ================> DF-SCS-MP2 Energies <==================
	-----------------------------------------------------------
	 SCS Same-Spin Scale       =       0.3333333333333333 [-]
	 SCS Opposite-Spin Scale   =       1.2000000000000000 [-]
	 SCS Same-Spin Energy      =      -0.1074167186535008 [Eh]
	 SCS Opposite-Spin Energy  =      -1.3313192485288481 [Eh]
	 SCS Correlation Energy    =      -1.4387359671823490 [Eh]
	 SCS Total Energy          =    -310.5990946694686272 [Eh]
	-----------------------------------------------------------

  Dipole Moment: [D]
     X:    -0.1932      Y:     1.1762      Z:     0.7463     Total:     1.4063

*** Psi4 exiting successfully. Buy a developer a beer!
