                               Psi4 1.4a3.dev225

  ==> Input File <==

--------------------------------------------------------------------------
#psi4
#
memory 32 gb

molecule  {
0 1
  O       -2.5655710    -0.4559810    -0.0273220
  C       -0.3219540     0.2014800    -0.4424590
  C        0.8011690     1.2489480    -0.2099430
  C        0.2481280    -1.1299970     0.0738820
  C        2.0012720     0.4634390     0.3560030
  C        1.7579830    -0.9743980    -0.1079500
  C       -1.6233710     0.5871250     0.2278630
  H       -0.5227930     0.1057830    -1.5165510
  H        0.4809950     2.0448300     0.4733970
  H        1.0672970     1.7363810    -1.1533330
  H       -0.1801860    -1.9933440    -0.4418670
  H        0.0160370    -1.2410800     1.1417000
  H        1.9867890     0.4940190     1.4519300
  H        2.9643500     0.8718720     0.0334030
  H        2.0194460    -1.0766330    -1.1687710
  H        2.3431410    -1.7133200     0.4495090
  H       -1.9840770     1.5507320    -0.1638540
  H       -1.4420469     0.7147737     1.3584441
  H       -3.3958760    -0.2202110     0.4192690
units angstrom
no_reorient  #important for SAPT in psi4, default
symmetry c1  #important for SAPT in psi4, default
}

set PROPERTIES_ORIGIN ["COM"]
properties('MP2/aug-cc-pvtz', properties = ['dipole'])
--------------------------------------------------------------------------

    Molecular point group: c1
  Charge       = 0
  Multiplicity = 1
  Basis Set: AUG-CC-PVTZ
    Blend: AUG-CC-PVTZ
  Basis Set: (AUG-CC-PVTZ AUX)
    Blend: AUG-CC-PVTZ-JKFIT

    Orbital Energies [Eh]
    ---------------------

    Doubly Occupied:

       1A    -20.557356     2A    -11.277759     3A    -11.217466
       4A    -11.215325     5A    -11.213388     6A    -11.210853
       7A    -11.206939     8A     -1.353633     9A     -1.121919
      10A     -0.996323    11A     -0.956595    12A     -0.871004
      13A     -0.778348    14A     -0.752233    15A     -0.687109
      16A     -0.650213    17A     -0.634635    18A     -0.617107
      19A     -0.569335    20A     -0.561983    21A     -0.522184
      22A     -0.474028    23A     -0.469699    24A     -0.462581
      25A     -0.459653    26A     -0.457423    27A     -0.448961
      28A     -0.430603

  @DF-RHF Final Energy:  -309.15984089918175

   => Energetics <=

    Nuclear Repulsion Energy =            324.6797826986303903
    One-Electron Energy =               -1063.3299359282063961
    Two-Electron Energy =                 429.4903123303943175
    Total Energy =                       -309.1598408991817450
  Basis Set: (AUG-CC-PVTZ AUX)
    Blend: AUG-CC-PVTZ-RI
    Molecular point group: c1

    Geometry (in Angstrom), charge = 0, multiplicity = 1:

       Center              X                  Y                   Z               Mass
    ------------   -----------------  -----------------  -----------------  -----------------
         O           -2.532619754981    -0.443487666795    -0.019548171394    15.994914619570
         C           -0.289002754981     0.213973333205    -0.434685171394    12.000000000000
         C            0.834120245019     1.261441333205    -0.202169171394    12.000000000000
         C            0.281079245019    -1.117503666795     0.081655828606    12.000000000000
         C            2.034223245019     0.475932333205     0.363776828606    12.000000000000
         C            1.790934245019    -0.961904666795    -0.100176171394    12.000000000000
         C           -1.590419754981     0.599618333205     0.235636828606    12.000000000000
         H           -0.489841754981     0.118276333205    -1.508777171394     1.007825032230
         H            0.513946245019     2.057323333205     0.481170828606     1.007825032230
         H            1.100248245019     1.748874333205    -1.145559171394     1.007825032230
         H           -0.147234754981    -1.980850666795    -0.434093171394     1.007825032230
         H            0.048988245019    -1.228586666795     1.149473828606     1.007825032230
         H            2.019740245019     0.506512333205     1.459703828606     1.007825032230
         H            2.997301245019     0.884365333205     0.041176828606     1.007825032230
         H            2.052397245019    -1.064139666795    -1.160997171394     1.007825032230
         H            2.376092245019    -1.700826666795     0.457282828606     1.007825032230
         H           -1.951125754981     1.563225333205    -0.156080171394     1.007825032230
         H           -1.409095654981     0.727267033205     1.366217928606     1.007825032230
         H           -3.362924754981    -0.207717666795     0.427042828606     1.007825032230

  Basis Set: AUG-CC-PVTZ
    Blend: AUG-CC-PVTZ
  Basis Set: (AUG-CC-PVTZ AUX)
    Blend: AUG-CC-PVTZ-JKFIT
	 Reference Energy          =    -309.1598408991817450 [Eh]
	 Singles Energy            =      -0.0000000000000000 [Eh]
	 Same-Spin Energy          =      -0.3224488256216315 [Eh]
	 Opposite-Spin Energy      =      -1.1098746710836673 [Eh]
	 Correlation Energy        =      -1.4323234967052989 [Eh]
	 Total Energy              =    -310.5921643958870391 [Eh]

	 ================> DF-SCS-MP2 Energies <==================
	-----------------------------------------------------------
	 SCS Same-Spin Scale       =       0.3333333333333333 [-]
	 SCS Opposite-Spin Scale   =       1.2000000000000000 [-]
	 SCS Same-Spin Energy      =      -0.1074829418738771 [Eh]
	 SCS Opposite-Spin Energy  =      -1.3318496053004008 [Eh]
	 SCS Correlation Energy    =      -1.4393325471742779 [Eh]
	 SCS Total Energy          =    -310.5991734463560192 [Eh]
	-----------------------------------------------------------

  Dipole Moment: [D]
     X:    -0.2082      Y:     1.1542      Z:     0.7024     Total:     1.3671

*** Psi4 exiting successfully. Buy a developer a beer!
