                               Psi4 1.4a3.dev225

  ==> Input File <==

--------------------------------------------------------------------------
#psi4
#
memory 32 gb

molecule  {
0 1
  O       -2.5655710    -0.4559810    -0.0273220
  C       -0.3219540     0.2014800    -0.4424590
  C        0.8011690     1.2489480    -0.2099430
  C        0.2481280    -1.1299970     0.0738820
  C        2.0012720     0.4634390     0.3560030
  C        1.7579830    -0.9743980    -0.1079500
  C       -1.7552753     0.4410942     0.1921381
  H       -0.5227930     0.1057830    -1.5165510
  H        0.4809950     2.0448300     0.4733970
  H        1.0672970     1.7363810    -1.1533330
  H       -0.1801860    -1.9933440    -0.4418670
  H        0.0160370    -1.2410800     1.1417000
  H        1.9867890     0.4940190     1.4519300
  H        2.9643500     0.8718720     0.0334030
  H        2.0194460    -1.0766330    -1.1687710
  H        2.3431410    -1.7133200     0.4495090
  H       -1.9840770     1.5507320    -0.1638540
  H       -1.4499160     0.7092340     1.3093790
  H       -3.3958760    -0.2202110     0.4192690
units angstrom
no_reorient  #important for SAPT in psi4, default
symmetry c1  #important for SAPT in psi4, default
}

set PROPERTIES_ORIGIN ["COM"]
properties('MP2/aug-cc-pvtz', properties = ['dipole'])
--------------------------------------------------------------------------

    Molecular point group: c1
  Charge       = 0
  Multiplicity = 1
  Basis Set: AUG-CC-PVTZ
    Blend: AUG-CC-PVTZ
  Basis Set: (AUG-CC-PVTZ AUX)
    Blend: AUG-CC-PVTZ-JKFIT

    Orbital Energies [Eh]
    ---------------------

    Doubly Occupied:

       1A    -20.581339     2A    -11.282767     3A    -11.215341
       4A    -11.214005     5A    -11.211357     6A    -11.208437
       7A    -11.203427     8A     -1.458526     9A     -1.115855
      10A     -0.982592    11A     -0.953608    12A     -0.872231
      13A     -0.777071    14A     -0.749309    15A     -0.743796
      16A     -0.657630    17A     -0.652952    18A     -0.635462
      19A     -0.592475    20A     -0.564593    21A     -0.529210
      22A     -0.471693    23A     -0.465401    24A     -0.464824
      25A     -0.456306    26A     -0.453820    27A     -0.411324
      28A     -0.396080

  @DF-RHF Final Energy:  -309.11679086849375

   => Energetics <=

    Nuclear Repulsion Energy =            326.0652337384187263
    One-Electron Energy =               -1065.7211873078115332
    Two-Electron Energy =                 430.5391627008989985
    Total Energy =                       -309.1167908684937515
  Basis Set: (AUG-CC-PVTZ AUX)
    Blend: AUG-CC-PVTZ-RI
    Molecular point group: c1

    Geometry (in Angstrom), charge = 0, multiplicity = 1:

       Center              X                  Y                   Z               Mass
    ------------   -----------------  -----------------  -----------------  -----------------
         O           -2.516726048218    -0.425923739715    -0.014770935936    15.994914619570
         C           -0.273109048218     0.231537260285    -0.429907935936    12.000000000000
         C            0.850013951782     1.279005260285    -0.197391935936    12.000000000000
         C            0.296972951782    -1.099939739715     0.086433064064    12.000000000000
         C            2.050116951782     0.493496260285     0.368554064064    12.000000000000
         C            1.806827951782    -0.944340739715    -0.095398935936    12.000000000000
         C           -1.706430348218     0.471151460285     0.204689164064    12.000000000000
         H           -0.473948048218     0.135840260285    -1.503999935936     1.007825032230
         H            0.529839951782     2.074887260285     0.485948064064     1.007825032230
         H            1.116141951782     1.766438260285    -1.140781935936     1.007825032230
         H           -0.131341048218    -1.963286739715    -0.429315935936     1.007825032230
         H            0.064881951782    -1.211022739715     1.154251064064     1.007825032230
         H            2.035633951782     0.524076260285     1.464481064064     1.007825032230
         H            3.013194951782     0.901929260285     0.045954064064     1.007825032230
         H            2.068290951782    -1.046575739715    -1.156219935936     1.007825032230
         H            2.391985951782    -1.683262739715     0.462060064064     1.007825032230
         H           -1.935232048218     1.580789260285    -0.151302935936     1.007825032230
         H           -1.401071048218     0.739291260285     1.321930064064     1.007825032230
         H           -3.347031048218    -0.190153739715     0.431820064064     1.007825032230

  Basis Set: AUG-CC-PVTZ
    Blend: AUG-CC-PVTZ
  Basis Set: (AUG-CC-PVTZ AUX)
    Blend: AUG-CC-PVTZ-JKFIT
	 Reference Energy          =    -309.1167908684937515 [Eh]
	 Singles Energy            =      -0.0000000000000000 [Eh]
	 Same-Spin Energy          =      -0.3231504014338713 [Eh]
	 Opposite-Spin Energy      =      -1.1085333439327005 [Eh]
	 Correlation Energy        =      -1.4316837453665718 [Eh]
	 Total Energy              =    -310.5484746138603214 [Eh]

	 ================> DF-SCS-MP2 Energies <==================
	-----------------------------------------------------------
	 SCS Same-Spin Scale       =       0.3333333333333333 [-]
	 SCS Opposite-Spin Scale   =       1.2000000000000000 [-]
	 SCS Same-Spin Energy      =      -0.1077168004779571 [Eh]
	 SCS Opposite-Spin Energy  =      -1.3302400127192406 [Eh]
	 SCS Correlation Energy    =      -1.4379568131971978 [Eh]
	 SCS Total Energy          =    -310.5547476816909693 [Eh]
	-----------------------------------------------------------

  Dipole Moment: [D]
     X:    -0.8909      Y:     0.5338      Z:     0.5842     Total:     1.1916

*** Psi4 exiting successfully. Buy a developer a beer!
