                               Psi4 1.4a3.dev225

  ==> Input File <==

--------------------------------------------------------------------------
#psi4
#
memory 32 gb

molecule  {
0 1
  O       -2.5655710    -0.4559810    -0.0273220
  C       -0.3219540     0.2014800    -0.4424590
  C        0.8011690     1.2489480    -0.2099430
  C        0.2481280    -1.1299970     0.0738820
  C        2.0012720     0.4634390     0.3560030
  C        1.7579830    -0.9743980    -0.1079500
  C       -1.6101806     0.6017281     0.2314355
  H       -0.5227930     0.1057830    -1.5165510
  H        0.4809950     2.0448300     0.4733970
  H        1.0672970     1.7363810    -1.1533330
  H       -0.1801860    -1.9933440    -0.4418670
  H        0.0160370    -1.2410800     1.1417000
  H        1.9867890     0.4940190     1.4519300
  H        2.9643500     0.8718720     0.0334030
  H        2.0194460    -1.0766330    -1.1687710
  H        2.3431410    -1.7133200     0.4495090
  H       -1.9840770     1.5507320    -0.1638540
  H       -1.4499160     0.7092340     1.3093790
  H       -3.3958760    -0.2202110     0.4192690
units angstrom
no_reorient  #important for SAPT in psi4, default
symmetry c1  #important for SAPT in psi4, default
}

set PROPERTIES_ORIGIN ["COM"]
properties('MP2/aug-cc-pvtz', properties = ['dipole'])
--------------------------------------------------------------------------

    Molecular point group: c1
  Charge       = 0
  Multiplicity = 1
  Basis Set: AUG-CC-PVTZ
    Blend: AUG-CC-PVTZ
  Basis Set: (AUG-CC-PVTZ AUX)
    Blend: AUG-CC-PVTZ-JKFIT

    Orbital Energies [Eh]
    ---------------------

    Doubly Occupied:

       1A    -20.553820     2A    -11.271159     3A    -11.217095
       4A    -11.215499     5A    -11.213648     6A    -11.211095
       7A    -11.207300     8A     -1.344891     9A     -1.122635
      10A     -0.998880    11A     -0.956895    12A     -0.874599
      13A     -0.778565    14A     -0.755047    15A     -0.682951
      16A     -0.650369    17A     -0.634916    18A     -0.618921
      19A     -0.569186    20A     -0.559847    21A     -0.521850
      22A     -0.474365    23A     -0.470723    24A     -0.461731
      25A     -0.460245    26A     -0.457851    27A     -0.450979
      28A     -0.434249

  @DF-RHF Final Energy:  -309.16143181559454

   => Energetics <=

    Nuclear Repulsion Energy =            324.8187030902420247
    One-Electron Energy =               -1063.6216455832179690
    Two-Electron Energy =                 429.6415106773814045
    Total Energy =                       -309.1614318155945398
  Basis Set: (AUG-CC-PVTZ AUX)
    Blend: AUG-CC-PVTZ-RI
    Molecular point group: c1

    Geometry (in Angstrom), charge = 0, multiplicity = 1:

       Center              X                  Y                   Z               Mass
    ------------   -----------------  -----------------  -----------------  -----------------
         O           -2.534121962037    -0.445182702865    -0.019482439413    15.994914619570
         C           -0.290504962037     0.212278297135    -0.434619439413    12.000000000000
         C            0.832618037963     1.259746297135    -0.202103439413    12.000000000000
         C            0.279577037963    -1.119198702865     0.081721560587    12.000000000000
         C            2.032721037963     0.474237297135     0.363842560587    12.000000000000
         C            1.789432037963    -0.963599702865    -0.100110439413    12.000000000000
         C           -1.578731562037     0.612526397135     0.239275060587    12.000000000000
         H           -0.491343962037     0.116581297135    -1.508711439413     1.007825032230
         H            0.512444037963     2.055628297135     0.481236560587     1.007825032230
         H            1.098746037963     1.747179297135    -1.145493439413     1.007825032230
         H           -0.148736962037    -1.982545702865    -0.434027439413     1.007825032230
         H            0.047486037963    -1.230281702865     1.149539560587     1.007825032230
         H            2.018238037963     0.504817297135     1.459769560587     1.007825032230
         H            2.995799037963     0.882670297135     0.041242560587     1.007825032230
         H            2.050895037963    -1.065834702865    -1.160931439413     1.007825032230
         H            2.374590037963    -1.702521702865     0.457348560587     1.007825032230
         H           -1.952627962037     1.561530297135    -0.156014439413     1.007825032230
         H           -1.418466962037     0.720032297135     1.317218560587     1.007825032230
         H           -3.364426962037    -0.209412702865     0.427108560587     1.007825032230

  Basis Set: AUG-CC-PVTZ
    Blend: AUG-CC-PVTZ
  Basis Set: (AUG-CC-PVTZ AUX)
    Blend: AUG-CC-PVTZ-JKFIT
	 Reference Energy          =    -309.1614318155945398 [Eh]
	 Singles Energy            =      -0.0000000000000000 [Eh]
	 Same-Spin Energy          =      -0.3224379107832497 [Eh]
	 Opposite-Spin Energy      =      -1.1098101510135652 [Eh]
	 Correlation Energy        =      -1.4322480617968150 [Eh]
	 Total Energy              =    -310.5936798773913665 [Eh]

	 ================> DF-SCS-MP2 Energies <==================
	-----------------------------------------------------------
	 SCS Same-Spin Scale       =       0.3333333333333333 [-]
	 SCS Opposite-Spin Scale   =       1.2000000000000000 [-]
	 SCS Same-Spin Energy      =      -0.1074793035944166 [Eh]
	 SCS Opposite-Spin Energy  =      -1.3317721812162782 [Eh]
	 SCS Correlation Energy    =      -1.4392514848106948 [Eh]
	 SCS Total Energy          =    -310.6006833004052510 [Eh]
	-----------------------------------------------------------

  Dipole Moment: [D]
     X:    -0.1319      Y:     1.2191      Z:     0.7565     Total:     1.4408

*** Psi4 exiting successfully. Buy a developer a beer!
