                               Psi4 1.4a3.dev225

  ==> Input File <==

--------------------------------------------------------------------------
#psi4
#
memory 32 gb

molecule  {
0 1
  O       -2.5655710    -0.4559810    -0.0273220
  C       -0.3219540     0.2014800    -0.4424590
  C        0.8011690     1.2489480    -0.2099430
  C        0.2481280    -1.1299970     0.0738820
  C        2.0012720     0.4634390     0.3560030
  C        1.7579830    -0.9743980    -0.1079500
  C       -1.6233710     0.5871250     0.2278630
  H       -0.5227930     0.1057830    -1.5165510
  H        0.4809950     2.0448300     0.4733970
  H        1.0672970     1.7363810    -1.1533330
  H       -0.1880228    -2.0091406    -0.4513036
  H        0.0160370    -1.2410800     1.1417000
  H        1.9867890     0.4940190     1.4519300
  H        2.9643500     0.8718720     0.0334030
  H        2.0194460    -1.0766330    -1.1687710
  H        2.3431410    -1.7133200     0.4495090
  H       -1.9840770     1.5507320    -0.1638540
  H       -1.4499160     0.7092340     1.3093790
  H       -3.3958760    -0.2202110     0.4192690
units angstrom
no_reorient  #important for SAPT in psi4, default
symmetry c1  #important for SAPT in psi4, default
}

set PROPERTIES_ORIGIN ["COM"]
properties('MP2/aug-cc-pvtz', properties = ['dipole'])
--------------------------------------------------------------------------

    Molecular point group: c1
  Charge       = 0
  Multiplicity = 1
  Basis Set: AUG-CC-PVTZ
    Blend: AUG-CC-PVTZ
  Basis Set: (AUG-CC-PVTZ AUX)
    Blend: AUG-CC-PVTZ-JKFIT

    Orbital Energies [Eh]
    ---------------------

    Doubly Occupied:

       1A    -20.556124     2A    -11.271469     3A    -11.217009
       4A    -11.215457     5A    -11.213580     6A    -11.211050
       7A    -11.209298     8A     -1.352809     9A     -1.121907
      10A     -0.997408    11A     -0.955794    12A     -0.873529
      13A     -0.778018    14A     -0.753787    15A     -0.687364
      16A     -0.648820    17A     -0.635235    18A     -0.619419
      19A     -0.569046    20A     -0.561772    21A     -0.523429
      22A     -0.473370    23A     -0.470241    24A     -0.462361
      25A     -0.459363    26A     -0.457678    27A     -0.448282
      28A     -0.432259

  @DF-RHF Final Energy:  -309.16148730425601

   => Energetics <=

    Nuclear Repulsion Energy =            324.8068203823406748
    One-Electron Energy =               -1063.5848541026043677
    Two-Electron Energy =                 429.6165464160076795
    Total Energy =                       -309.1614873042560134
  Basis Set: (AUG-CC-PVTZ AUX)
    Blend: AUG-CC-PVTZ-RI
    Molecular point group: c1

    Geometry (in Angstrom), charge = 0, multiplicity = 1:

       Center              X                  Y                   Z               Mass
    ------------   -----------------  -----------------  -----------------  -----------------
         O           -2.532461607448    -0.443272825034    -0.018959099801    15.994914619570
         C           -0.288844607448     0.214188174966    -0.434096099801    12.000000000000
         C            0.834278392552     1.261656174966    -0.201580099801    12.000000000000
         C            0.281237392552    -1.117288825034     0.082244900199    12.000000000000
         C            2.034381392552     0.476147174966     0.364365900199    12.000000000000
         C            1.791092392552    -0.961689825034    -0.099587099801    12.000000000000
         C           -1.590261607448     0.599833174966     0.236225900199    12.000000000000
         H           -0.489683607448     0.118491174966    -1.508188099801     1.007825032230
         H            0.514104392552     2.057538174966     0.481759900199     1.007825032230
         H            1.100406392552     1.749089174966    -1.144970099801     1.007825032230
         H           -0.154913407448    -1.996432425034    -0.442940699801     1.007825032230
         H            0.049146392552    -1.228371825034     1.150062900199     1.007825032230
         H            2.019898392552     0.506727174966     1.460292900199     1.007825032230
         H            2.997459392552     0.884580174966     0.041765900199     1.007825032230
         H            2.052555392552    -1.063924825034    -1.160408099801     1.007825032230
         H            2.376250392552    -1.700611825034     0.457871900199     1.007825032230
         H           -1.950967607448     1.563440174966    -0.155491099801     1.007825032230
         H           -1.416806607448     0.721942174966     1.317741900199     1.007825032230
         H           -3.362766607448    -0.207502825034     0.427631900199     1.007825032230

  Basis Set: AUG-CC-PVTZ
    Blend: AUG-CC-PVTZ
  Basis Set: (AUG-CC-PVTZ AUX)
    Blend: AUG-CC-PVTZ-JKFIT
	 Reference Energy          =    -309.1614873042560134 [Eh]
	 Singles Energy            =      -0.0000000000000000 [Eh]
	 Same-Spin Energy          =      -0.3223850417809362 [Eh]
	 Opposite-Spin Energy      =      -1.1096120728108450 [Eh]
	 Correlation Energy        =      -1.4319971145917811 [Eh]
	 Total Energy              =    -310.5934844188478223 [Eh]

	 ================> DF-SCS-MP2 Energies <==================
	-----------------------------------------------------------
	 SCS Same-Spin Scale       =       0.3333333333333333 [-]
	 SCS Opposite-Spin Scale   =       1.2000000000000000 [-]
	 SCS Same-Spin Energy      =      -0.1074616805936454 [Eh]
	 SCS Opposite-Spin Energy  =      -1.3315344873730139 [Eh]
	 SCS Correlation Energy    =      -1.4389961679666594 [Eh]
	 SCS Total Energy          =    -310.6004834722226633 [Eh]
	-----------------------------------------------------------

  Dipole Moment: [D]
     X:    -0.1904      Y:     1.1828      Z:     0.7491     Total:     1.4130

*** Psi4 exiting successfully. Buy a developer a beer!
