                               Psi4 1.4a3.dev225

  ==> Input File <==

--------------------------------------------------------------------------
#psi4
#
memory 32 gb

molecule  {
0 1
  O       -2.5655710    -0.4559810    -0.0273220
  C       -0.3219540     0.2014800    -0.4424590
  C        0.8011690     1.2489480    -0.2099430
  C        0.2481280    -1.1299970     0.0738820
  C        2.0012720     0.4634390     0.3560030
  C        1.7579830    -0.9743980    -0.1079500
  C       -1.6233710     0.5871250     0.2278630
  H       -0.5227930     0.1057830    -1.5165510
  H        0.4809950     2.0448300     0.4733970
  H        1.0672970     1.7363810    -1.1533330
  H       -0.1801860    -1.9933440    -0.4418670
  H        0.0160370    -1.2410800     1.1417000
  H        1.9867890     0.4940190     1.4519300
  H        2.9643500     0.8718720     0.0334030
  H        2.0194460    -1.0766330    -1.1687710
  H        2.3698589    -1.7470586     0.4749621
  H       -1.9840770     1.5507320    -0.1638540
  H       -1.4499160     0.7092340     1.3093790
  H       -3.3958760    -0.2202110     0.4192690
units angstrom
no_reorient  #important for SAPT in psi4, default
symmetry c1  #important for SAPT in psi4, default
}

set PROPERTIES_ORIGIN ["COM"]
properties('MP2/aug-cc-pvtz', properties = ['dipole'])
--------------------------------------------------------------------------

    Molecular point group: c1
  Charge       = 0
  Multiplicity = 1
  Basis Set: AUG-CC-PVTZ
    Blend: AUG-CC-PVTZ
  Basis Set: (AUG-CC-PVTZ AUX)
    Blend: AUG-CC-PVTZ-JKFIT

    Orbital Energies [Eh]
    ---------------------

    Doubly Occupied:

       1A    -20.556418     2A    -11.271770     3A    -11.217322
       4A    -11.217076     5A    -11.215793     6A    -11.213898
       7A    -11.207477     8A     -1.353106     9A     -1.122053
      10A     -0.996645    11A     -0.956341    12A     -0.873125
      13A     -0.775809    14A     -0.754565    15A     -0.687766
      16A     -0.650455    17A     -0.631719    18A     -0.619723
      19A     -0.568561    20A     -0.561713    21A     -0.523823
      22A     -0.473412    23A     -0.468168    24A     -0.462441
      25A     -0.460160    26A     -0.457691    27A     -0.448603
      28A     -0.432149

  @DF-RHF Final Energy:  -309.15991234252692

   => Energetics <=

    Nuclear Repulsion Energy =            324.6679706530052272
    One-Electron Energy =               -1063.3002032768663412
    Two-Electron Energy =                 429.4723202813341913
    Total Energy =                       -309.1599123425269227
  Basis Set: (AUG-CC-PVTZ AUX)
    Blend: AUG-CC-PVTZ-RI
    Molecular point group: c1

    Geometry (in Angstrom), charge = 0, multiplicity = 1:

       Center              X                  Y                   Z               Mass
    ------------   -----------------  -----------------  -----------------  -----------------
         O           -2.532809549340    -0.443092161523    -0.019310414910    15.994914619570
         C           -0.289192549340     0.214368838477    -0.434447414910    12.000000000000
         C            0.833930450660     1.261836838477    -0.201931414910    12.000000000000
         C            0.280889450660    -1.117108161523     0.081893585090    12.000000000000
         C            2.034033450660     0.476327838477     0.364014585090    12.000000000000
         C            1.790744450660    -0.961509161523    -0.099938414910    12.000000000000
         C           -1.590609549340     0.600013838477     0.235874585090    12.000000000000
         H           -0.490031549340     0.118671838477    -1.508539414910     1.007825032230
         H            0.513756450660     2.057718838477     0.481408585090     1.007825032230
         H            1.100058450660     1.749269838477    -1.145321414910     1.007825032230
         H           -0.147424549340    -1.980455161523    -0.433855414910     1.007825032230
         H            0.048798450660    -1.228191161523     1.149711585090     1.007825032230
         H            2.019550450660     0.506907838477     1.459941585090     1.007825032230
         H            2.997111450660     0.884760838477     0.041414585090     1.007825032230
         H            2.052207450660    -1.063744161523    -1.160759414910     1.007825032230
         H            2.402620350660    -1.734169761523     0.482973685090     1.007825032230
         H           -1.951315549340     1.563620838477    -0.155842414910     1.007825032230
         H           -1.417154549340     0.722122838477     1.317390585090     1.007825032230
         H           -3.363114549340    -0.207322161523     0.427280585090     1.007825032230

  Basis Set: AUG-CC-PVTZ
    Blend: AUG-CC-PVTZ
  Basis Set: (AUG-CC-PVTZ AUX)
    Blend: AUG-CC-PVTZ-JKFIT
	 Reference Energy          =    -309.1599123425269227 [Eh]
	 Singles Energy            =      -0.0000000000000000 [Eh]
	 Same-Spin Energy          =      -0.3223771170656635 [Eh]
	 Opposite-Spin Energy      =      -1.1098045550686790 [Eh]
	 Correlation Energy        =      -1.4321816721343426 [Eh]
	 Total Energy              =    -310.5920940146612566 [Eh]

	 ================> DF-SCS-MP2 Energies <==================
	-----------------------------------------------------------
	 SCS Same-Spin Scale       =       0.3333333333333333 [-]
	 SCS Opposite-Spin Scale   =       1.2000000000000000 [-]
	 SCS Same-Spin Energy      =      -0.1074590390218878 [Eh]
	 SCS Opposite-Spin Energy  =      -1.3317654660824148 [Eh]
	 SCS Correlation Energy    =      -1.4392245051043027 [Eh]
	 SCS Total Energy          =    -310.5991368476312005 [Eh]
	-----------------------------------------------------------

  Dipole Moment: [D]
     X:    -0.2272      Y:     1.2045      Z:     0.7354     Total:     1.4294

*** Psi4 exiting successfully. Buy a developer a beer!
