                               Psi4 1.4a3.dev225

  ==> Input File <==

--------------------------------------------------------------------------
#psi4
#
memory 32 gb

molecule  {
0 1
  O       -2.5655710    -0.4559810    -0.0273220
  C       -0.3219540     0.2014800    -0.4424590
  C        0.8011690     1.2489480    -0.2099430
  C        0.2481280    -1.1299970     0.0738820
  C        2.0012720     0.4634390     0.3560030
  C        1.7579830    -0.9743980    -0.1079500
  C       -1.6233710     0.5871250     0.2278630
  H       -0.5227930     0.1057830    -1.5165510
  H        0.4809950     2.0448300     0.4733970
  H        1.0672970     1.7363810    -1.1533330
  H       -0.1801860    -1.9933440    -0.4418670
  H        0.0160370    -1.2410800     1.1417000
  H        1.9867890     0.4940190     1.4519300
  H        2.9643500     0.8718720     0.0334030
  H        2.0194460    -1.0766330    -1.1687710
  H        2.3431410    -1.7133200     0.4495090
  H       -1.9840770     1.5507320    -0.1638540
  H       -1.4341777     0.7203134     1.4075093
  H       -3.3958760    -0.2202110     0.4192690
units angstrom
no_reorient  #important for SAPT in psi4, default
symmetry c1  #important for SAPT in psi4, default
}

set PROPERTIES_ORIGIN ["COM"]
properties('MP2/aug-cc-pvtz', properties = ['dipole'])
--------------------------------------------------------------------------

    Molecular point group: c1
  Charge       = 0
  Multiplicity = 1
  Basis Set: AUG-CC-PVTZ
    Blend: AUG-CC-PVTZ
  Basis Set: (AUG-CC-PVTZ AUX)
    Blend: AUG-CC-PVTZ-JKFIT

    Orbital Energies [Eh]
    ---------------------

    Doubly Occupied:

       1A    -20.558700     2A    -11.283942     3A    -11.218193
       4A    -11.215371     5A    -11.213376     6A    -11.210891
       7A    -11.206999     8A     -1.354585     9A     -1.121967
      10A     -0.995677    11A     -0.956638    12A     -0.868882
      13A     -0.778408    14A     -0.750626    15A     -0.686897
      16A     -0.650335    17A     -0.634428    18A     -0.614546
      19A     -0.569439    20A     -0.562220    21A     -0.520931
      22A     -0.474066    23A     -0.469235    24A     -0.462712
      25A     -0.459480    26A     -0.457187    27A     -0.449451
      28A     -0.428627

  @DF-RHF Final Energy:  -309.15547958571796

   => Energetics <=

    Nuclear Repulsion Energy =            324.4672810875847517
    One-Electron Energy =               -1062.8979037039480318
    Two-Electron Energy =                 429.2751430306453244
    Total Energy =                       -309.1554795857179556
  Basis Set: (AUG-CC-PVTZ AUX)
    Blend: AUG-CC-PVTZ-RI
    Molecular point group: c1

    Geometry (in Angstrom), charge = 0, multiplicity = 1:

       Center              X                  Y                   Z               Mass
    ------------   -----------------  -----------------  -----------------  -----------------
         O           -2.532698992374    -0.443543447737    -0.020042223968    15.994914619570
         C           -0.289081992374     0.213917552263    -0.435179223968    12.000000000000
         C            0.834041007626     1.261385552263    -0.202663223968    12.000000000000
         C            0.281000007626    -1.117559447737     0.081161776032    12.000000000000
         C            2.034144007626     0.475876552263     0.363282776032    12.000000000000
         C            1.790855007626    -0.961960447737    -0.100670223968    12.000000000000
         C           -1.590498992374     0.599562552263     0.235142776032    12.000000000000
         H           -0.489920992374     0.118220552263    -1.509271223968     1.007825032230
         H            0.513867007626     2.057267552263     0.480676776032     1.007825032230
         H            1.100169007626     1.748818552263    -1.146053223968     1.007825032230
         H           -0.147313992374    -1.980906447737    -0.434587223968     1.007825032230
         H            0.048909007626    -1.228642447737     1.148979776032     1.007825032230
         H            2.019661007626     0.506456552263     1.459209776032     1.007825032230
         H            2.997222007626     0.884309552263     0.040682776032     1.007825032230
         H            2.052318007626    -1.064195447737    -1.161491223968     1.007825032230
         H            2.376013007626    -1.700882447737     0.456788776032     1.007825032230
         H           -1.951204992374     1.563169552263    -0.156574223968     1.007825032230
         H           -1.401305692374     0.732750952263     1.414789076032     1.007825032230
         H           -3.363003992374    -0.207773447737     0.426548776032     1.007825032230

  Basis Set: AUG-CC-PVTZ
    Blend: AUG-CC-PVTZ
  Basis Set: (AUG-CC-PVTZ AUX)
    Blend: AUG-CC-PVTZ-JKFIT
	 Reference Energy          =    -309.1554795857179556 [Eh]
	 Singles Energy            =      -0.0000000000000000 [Eh]
	 Same-Spin Energy          =      -0.3225298707445057 [Eh]
	 Opposite-Spin Energy      =      -1.1103290686409961 [Eh]
	 Correlation Energy        =      -1.4328589393855018 [Eh]
	 Total Energy              =    -310.5883385251034383 [Eh]

	 ================> DF-SCS-MP2 Energies <==================
	-----------------------------------------------------------
	 SCS Same-Spin Scale       =       0.3333333333333333 [-]
	 SCS Opposite-Spin Scale   =       1.2000000000000000 [-]
	 SCS Same-Spin Energy      =      -0.1075099569148352 [Eh]
	 SCS Opposite-Spin Energy  =      -1.3323948823691953 [Eh]
	 SCS Correlation Energy    =      -1.4399048392840306 [Eh]
	 SCS Total Energy          =    -310.5953844250020097 [Eh]
	-----------------------------------------------------------

  Dipole Moment: [D]
     X:    -0.2215      Y:     1.1356      Z:     0.6524     Total:     1.3283

*** Psi4 exiting successfully. Buy a developer a beer!
