                               Psi4 1.4a3.dev225

  ==> Input File <==

--------------------------------------------------------------------------
#psi4
#
memory 32 gb

molecule  {
0 1
  O       -2.5655710    -0.4559810    -0.0273220
  C       -0.3219540     0.2014800    -0.4424590
  C        0.8011690     1.2489480    -0.2099430
  C        0.2481280    -1.1299970     0.0738820
  C        1.9623565     0.4889105     0.3376512
  C        1.7579830    -0.9743980    -0.1079500
  C       -1.6233710     0.5871250     0.2278630
  H       -0.5227930     0.1057830    -1.5165510
  H        0.4809950     2.0448300     0.4733970
  H        1.0672970     1.7363810    -1.1533330
  H       -0.1801860    -1.9933440    -0.4418670
  H        0.0160370    -1.2410800     1.1417000
  H        1.9867890     0.4940190     1.4519300
  H        2.9643500     0.8718720     0.0334030
  H        2.0194460    -1.0766330    -1.1687710
  H        2.3431410    -1.7133200     0.4495090
  H       -1.9840770     1.5507320    -0.1638540
  H       -1.4499160     0.7092340     1.3093790
  H       -3.3958760    -0.2202110     0.4192690
units angstrom
no_reorient  #important for SAPT in psi4, default
symmetry c1  #important for SAPT in psi4, default
}

set PROPERTIES_ORIGIN ["COM"]
properties('MP2/aug-cc-pvtz', properties = ['dipole'])
--------------------------------------------------------------------------

    Molecular point group: c1
  Charge       = 0
  Multiplicity = 1
  Basis Set: AUG-CC-PVTZ
    Blend: AUG-CC-PVTZ
  Basis Set: (AUG-CC-PVTZ AUX)
    Blend: AUG-CC-PVTZ-JKFIT

    Orbital Energies [Eh]
    ---------------------

    Doubly Occupied:

       1A    -20.556283     2A    -11.271619     3A    -11.217130
       4A    -11.215046     5A    -11.213439     6A    -11.211297
       7A    -11.206614     8A     -1.352966     9A     -1.125750
      10A     -0.996053    11A     -0.962266    12A     -0.872135
      13A     -0.776349    14A     -0.754236    15A     -0.688369
      16A     -0.650070    17A     -0.637478    18A     -0.618929
      19A     -0.570630    20A     -0.560262    21A     -0.522336
      22A     -0.486479    23A     -0.468590    24A     -0.465370
      25A     -0.454343    26A     -0.452699    27A     -0.447190
      28A     -0.431721

  @DF-RHF Final Energy:  -309.15922842466568

   => Energetics <=

    Nuclear Repulsion Energy =            325.4567385267541795
    One-Electron Energy =               -1064.8606367350669188
    Two-Electron Energy =                 430.2446697836470548
    Total Energy =                       -309.1592284246656845
  Basis Set: (AUG-CC-PVTZ AUX)
    Blend: AUG-CC-PVTZ-RI
    Molecular point group: c1

    Geometry (in Angstrom), charge = 0, multiplicity = 1:

       Center              X                  Y                   Z               Mass
    ------------   -----------------  -----------------  -----------------  -----------------
         O           -2.527874802452    -0.446485753561    -0.016853857988    15.994914619570
         C           -0.284257802452     0.210975246439    -0.431990857988    12.000000000000
         C            0.838865197548     1.258443246439    -0.199474857988    12.000000000000
         C            0.285824197548    -1.120501753561     0.084350142012    12.000000000000
         C            2.000052697548     0.498405746439     0.348119342012    12.000000000000
         C            1.795679197548    -0.964902753561    -0.097481857988    12.000000000000
         C           -1.585674802452     0.596620246439     0.238331142012    12.000000000000
         H           -0.485096802452     0.115278246439    -1.506082857988     1.007825032230
         H            0.518691197548     2.054325246439     0.483865142012     1.007825032230
         H            1.104993197548     1.745876246439    -1.142864857988     1.007825032230
         H           -0.142489802452    -1.983848753561    -0.431398857988     1.007825032230
         H            0.053733197548    -1.231584753561     1.152168142012     1.007825032230
         H            2.024485197548     0.503514246439     1.462398142012     1.007825032230
         H            3.002046197548     0.881367246439     0.043871142012     1.007825032230
         H            2.057142197548    -1.067137753561    -1.158302857988     1.007825032230
         H            2.380837197548    -1.703824753561     0.459977142012     1.007825032230
         H           -1.946380802452     1.560227246439    -0.153385857988     1.007825032230
         H           -1.412219802452     0.718729246439     1.319847142012     1.007825032230
         H           -3.358179802452    -0.210715753561     0.429737142012     1.007825032230

  Basis Set: AUG-CC-PVTZ
    Blend: AUG-CC-PVTZ
  Basis Set: (AUG-CC-PVTZ AUX)
    Blend: AUG-CC-PVTZ-JKFIT
	 Reference Energy          =    -309.1592284246656845 [Eh]
	 Singles Energy            =      -0.0000000000000000 [Eh]
	 Same-Spin Energy          =      -0.3226820098833680 [Eh]
	 Opposite-Spin Energy      =      -1.1097703635657516 [Eh]
	 Correlation Energy        =      -1.4324523734491197 [Eh]
	 Total Energy              =    -310.5916807981147940 [Eh]

	 ================> DF-SCS-MP2 Energies <==================
	-----------------------------------------------------------
	 SCS Same-Spin Scale       =       0.3333333333333333 [-]
	 SCS Opposite-Spin Scale   =       1.2000000000000000 [-]
	 SCS Same-Spin Energy      =      -0.1075606699611227 [Eh]
	 SCS Opposite-Spin Energy  =      -1.3317244362789020 [Eh]
	 SCS Correlation Energy    =      -1.4392851062400247 [Eh]
	 SCS Total Energy          =    -310.5985135309057341 [Eh]
	-----------------------------------------------------------

  Dipole Moment: [D]
     X:    -0.2141      Y:     1.1705      Z:     0.7391     Total:     1.4008

*** Psi4 exiting successfully. Buy a developer a beer!
