                               Psi4 1.4a3.dev225

  ==> Input File <==

--------------------------------------------------------------------------
#psi4
#
memory 32 gb

molecule  {
0 1
  O       -2.5655710    -0.4559810    -0.0273220
  C       -0.3219540     0.2014800    -0.4424590
  C        0.8011690     1.2489480    -0.2099430
  C        0.2498557    -1.1194418     0.0984956
  C        2.0012720     0.4634390     0.3560030
  C        1.7579830    -0.9743980    -0.1079500
  C       -1.6233710     0.5871250     0.2278630
  H       -0.5227930     0.1057830    -1.5165510
  H        0.4809950     2.0448300     0.4733970
  H        1.0672970     1.7363810    -1.1533330
  H       -0.1801860    -1.9933440    -0.4418670
  H        0.0160370    -1.2410800     1.1417000
  H        1.9867890     0.4940190     1.4519300
  H        2.9643500     0.8718720     0.0334030
  H        2.0194460    -1.0766330    -1.1687710
  H        2.3431410    -1.7133200     0.4495090
  H       -1.9840770     1.5507320    -0.1638540
  H       -1.4499160     0.7092340     1.3093790
  H       -3.3958760    -0.2202110     0.4192690
units angstrom
no_reorient  #important for SAPT in psi4, default
symmetry c1  #important for SAPT in psi4, default
}

set PROPERTIES_ORIGIN ["COM"]
properties('MP2/aug-cc-pvtz', properties = ['dipole'])
--------------------------------------------------------------------------

    Molecular point group: c1
  Charge       = 0
  Multiplicity = 1
  Basis Set: AUG-CC-PVTZ
    Blend: AUG-CC-PVTZ
  Basis Set: (AUG-CC-PVTZ AUX)
    Blend: AUG-CC-PVTZ-JKFIT

    Orbital Energies [Eh]
    ---------------------

    Doubly Occupied:

       1A    -20.556122     2A    -11.271308     3A    -11.216838
       4A    -11.215037     5A    -11.213148     6A    -11.210786
       7A    -11.206670     8A     -1.352822     9A     -1.122365
      10A     -0.997416    11A     -0.956060    12A     -0.873429
      13A     -0.779020    14A     -0.754792    15A     -0.687327
      16A     -0.648196    17A     -0.635494    18A     -0.619754
      19A     -0.570247    20A     -0.562788    21A     -0.524086
      22A     -0.472479    23A     -0.471009    24A     -0.461778
      25A     -0.459383    26A     -0.457368    27A     -0.448614
      28A     -0.432658

  @DF-RHF Final Energy:  -309.16116126411077

   => Energetics <=

    Nuclear Repulsion Energy =            324.9967547992038703
    One-Electron Energy =               -1063.9618456881353268
    Two-Electron Energy =                 429.8039296248206256
    Total Energy =                       -309.1611612641107740
  Basis Set: (AUG-CC-PVTZ AUX)
    Blend: AUG-CC-PVTZ-RI
    Molecular point group: c1

    Geometry (in Angstrom), charge = 0, multiplicity = 1:

       Center              X                  Y                   Z               Mass
    ------------   -----------------  -----------------  -----------------  -----------------
         O           -2.532747658624    -0.444697385900    -0.022005130885    15.994914619570
         C           -0.289130658624     0.212763614100    -0.437142130885    12.000000000000
         C            0.833992341376     1.260231614100    -0.204626130885    12.000000000000
         C            0.282679041376    -1.108158185900     0.103812469115    12.000000000000
         C            2.034095341376     0.474722614100     0.361319869115    12.000000000000
         C            1.790806341376    -0.963114385900    -0.102633130885    12.000000000000
         C           -1.590547658624     0.598408614100     0.233179869115    12.000000000000
         H           -0.489969658624     0.117066614100    -1.511234130885     1.007825032230
         H            0.513818341376     2.056113614100     0.478713869115     1.007825032230
         H            1.100120341376     1.747664614100    -1.148016130885     1.007825032230
         H           -0.147362658624    -1.982060385900    -0.436550130885     1.007825032230
         H            0.048860341376    -1.229796385900     1.147016869115     1.007825032230
         H            2.019612341376     0.505302614100     1.457246869115     1.007825032230
         H            2.997173341376     0.883155614100     0.038719869115     1.007825032230
         H            2.052269341376    -1.065349385900    -1.163454130885     1.007825032230
         H            2.375964341376    -1.702036385900     0.454825869115     1.007825032230
         H           -1.951253658624     1.562015614100    -0.158537130885     1.007825032230
         H           -1.417092658624     0.720517614100     1.314695869115     1.007825032230
         H           -3.363052658624    -0.208927385900     0.424585869115     1.007825032230

  Basis Set: AUG-CC-PVTZ
    Blend: AUG-CC-PVTZ
  Basis Set: (AUG-CC-PVTZ AUX)
    Blend: AUG-CC-PVTZ-JKFIT
	 Reference Energy          =    -309.1611612641107740 [Eh]
	 Singles Energy            =      -0.0000000000000000 [Eh]
	 Same-Spin Energy          =      -0.3224135475700196 [Eh]
	 Opposite-Spin Energy      =      -1.1095268939579752 [Eh]
	 Correlation Energy        =      -1.4319404415279948 [Eh]
	 Total Energy              =    -310.5931017056387873 [Eh]

	 ================> DF-SCS-MP2 Energies <==================
	-----------------------------------------------------------
	 SCS Same-Spin Scale       =       0.3333333333333333 [-]
	 SCS Opposite-Spin Scale   =       1.2000000000000000 [-]
	 SCS Same-Spin Energy      =      -0.1074711825233399 [Eh]
	 SCS Opposite-Spin Energy  =      -1.3314322727495702 [Eh]
	 SCS Correlation Energy    =      -1.4389034552729101 [Eh]
	 SCS Total Energy          =    -310.6000647193836812 [Eh]
	-----------------------------------------------------------

  Dipole Moment: [D]
     X:    -0.1951      Y:     1.1715      Z:     0.7613     Total:     1.4107

*** Psi4 exiting successfully. Buy a developer a beer!
