                               Psi4 1.4a3.dev225

  ==> Input File <==

--------------------------------------------------------------------------
#psi4
#
memory 32 gb

molecule  {
0 1
  O       -2.5655710    -0.4559810    -0.0273220
  C       -0.3219540     0.2014800    -0.4424590
  C        0.8011690     1.2489480    -0.2099430
  C        0.2481280    -1.1299970     0.0738820
  C        2.0339460     0.4859432     0.2568311
  C        1.7579830    -0.9743980    -0.1079500
  C       -1.6233710     0.5871250     0.2278630
  H       -0.5227930     0.1057830    -1.5165510
  H        0.4809950     2.0448300     0.4733970
  H        1.0672970     1.7363810    -1.1533330
  H       -0.1801860    -1.9933440    -0.4418670
  H        0.0160370    -1.2410800     1.1417000
  H        1.9867890     0.4940190     1.4519300
  H        2.9643500     0.8718720     0.0334030
  H        2.0194460    -1.0766330    -1.1687710
  H        2.3431410    -1.7133200     0.4495090
  H       -1.9840770     1.5507320    -0.1638540
  H       -1.4499160     0.7092340     1.3093790
  H       -3.3958760    -0.2202110     0.4192690
units angstrom
no_reorient  #important for SAPT in psi4, default
symmetry c1  #important for SAPT in psi4, default
}

set PROPERTIES_ORIGIN ["COM"]
properties('MP2/aug-cc-pvtz', properties = ['dipole'])
--------------------------------------------------------------------------

    Molecular point group: c1
  Charge       = 0
  Multiplicity = 1
  Basis Set: AUG-CC-PVTZ
    Blend: AUG-CC-PVTZ
  Basis Set: (AUG-CC-PVTZ AUX)
    Blend: AUG-CC-PVTZ-JKFIT

    Orbital Energies [Eh]
    ---------------------

    Doubly Occupied:

       1A    -20.556811     2A    -11.272051     3A    -11.218224
       4A    -11.216813     5A    -11.215633     6A    -11.211999
       7A    -11.208012     8A     -1.353452     9A     -1.123028
      10A     -0.998282    11A     -0.960062    12A     -0.874842
      13A     -0.776545    14A     -0.756395    15A     -0.687916
      16A     -0.655514    17A     -0.634968    18A     -0.622105
      19A     -0.567482    20A     -0.556017    21A     -0.524466
      22A     -0.487475    23A     -0.477098    24A     -0.468251
      25A     -0.461862    26A     -0.449107    27A     -0.438061
      28A     -0.423851

  @DF-RHF Final Energy:  -309.15012358256126

   => Energetics <=

    Nuclear Repulsion Energy =            324.8204280475776500
    One-Electron Energy =               -1063.5484613807500409
    Two-Electron Energy =                 429.5779097506110702
    Total Energy =                       -309.1501235825612639
  Basis Set: (AUG-CC-PVTZ AUX)
    Blend: AUG-CC-PVTZ-RI
    Molecular point group: c1

    Geometry (in Angstrom), charge = 0, multiplicity = 1:

       Center              X                  Y                   Z               Mass
    ------------   -----------------  -----------------  -----------------  -----------------
         O           -2.536457919356    -0.446129993529    -0.007164051990    15.994914619570
         C           -0.292840919356     0.211331006471    -0.422301051990    12.000000000000
         C            0.830282080644     1.258799006471    -0.189785051990    12.000000000000
         C            0.277241080644    -1.120145993529     0.094039948010    12.000000000000
         C            2.063059080644     0.495794206471     0.276989048010    12.000000000000
         C            1.787096080644    -0.964546993529    -0.087792051990    12.000000000000
         C           -1.594257919356     0.596976006471     0.248020948010    12.000000000000
         H           -0.493679919356     0.115634006471    -1.496393051990     1.007825032230
         H            0.510108080644     2.054681006471     0.493554948010     1.007825032230
         H            1.096410080644     1.746232006471    -1.133175051990     1.007825032230
         H           -0.151072919356    -1.983492993529    -0.421709051990     1.007825032230
         H            0.045150080644    -1.231228993529     1.161857948010     1.007825032230
         H            2.015902080644     0.503870006471     1.472087948010     1.007825032230
         H            2.993463080644     0.881723006471     0.053560948010     1.007825032230
         H            2.048559080644    -1.066781993529    -1.148613051990     1.007825032230
         H            2.372254080644    -1.703468993529     0.469666948010     1.007825032230
         H           -1.954963919356     1.560583006471    -0.143696051990     1.007825032230
         H           -1.420802919356     0.719085006471     1.329536948010     1.007825032230
         H           -3.366762919356    -0.210359993529     0.439426948010     1.007825032230

  Basis Set: AUG-CC-PVTZ
    Blend: AUG-CC-PVTZ
  Basis Set: (AUG-CC-PVTZ AUX)
    Blend: AUG-CC-PVTZ-JKFIT
	 Reference Energy          =    -309.1501235825612639 [Eh]
	 Singles Energy            =      -0.0000000000000000 [Eh]
	 Same-Spin Energy          =      -0.3225686620443251 [Eh]
	 Opposite-Spin Energy      =      -1.1101092544865738 [Eh]
	 Correlation Energy        =      -1.4326779165308989 [Eh]
	 Total Energy              =    -310.5828014990921702 [Eh]

	 ================> DF-SCS-MP2 Energies <==================
	-----------------------------------------------------------
	 SCS Same-Spin Scale       =       0.3333333333333333 [-]
	 SCS Opposite-Spin Scale   =       1.2000000000000000 [-]
	 SCS Same-Spin Energy      =      -0.1075228873481084 [Eh]
	 SCS Opposite-Spin Energy  =      -1.3321311053838885 [Eh]
	 SCS Correlation Energy    =      -1.4396539927319969 [Eh]
	 SCS Total Energy          =    -310.5897775752932830 [Eh]
	-----------------------------------------------------------

  Dipole Moment: [D]
     X:    -0.2080      Y:     1.1736      Z:     0.6664     Total:     1.3655

*** Psi4 exiting successfully. Buy a developer a beer!
