                               Psi4 1.4a3.dev225

  ==> Input File <==

--------------------------------------------------------------------------
#psi4
#
memory 32 gb

molecule  {
0 1
  O       -2.5655710    -0.4559810    -0.0273220
  C       -0.3219540     0.2014800    -0.4424590
  C        0.8011690     1.2489480    -0.2099430
  C        0.2481280    -1.1299970     0.0738820
  C        2.0012720     0.4634390     0.3560030
  C        1.7579830    -0.9743980    -0.1079500
  C       -1.6233710     0.5871250     0.2278630
  H       -0.5227930     0.1057830    -1.5165510
  H        0.4809950     2.0448300     0.4733970
  H        1.0672970     1.7363810    -1.1533330
  H       -0.2585545    -2.1513103    -0.5362334
  H        0.0160370    -1.2410800     1.1417000
  H        1.9867890     0.4940190     1.4519300
  H        2.9643500     0.8718720     0.0334030
  H        2.0194460    -1.0766330    -1.1687710
  H        2.3431410    -1.7133200     0.4495090
  H       -1.9840770     1.5507320    -0.1638540
  H       -1.4499160     0.7092340     1.3093790
  H       -3.3958760    -0.2202110     0.4192690
units angstrom
no_reorient  #important for SAPT in psi4, default
symmetry c1  #important for SAPT in psi4, default
}

set PROPERTIES_ORIGIN ["COM"]
properties('MP2/aug-cc-pvtz', properties = ['dipole'])
--------------------------------------------------------------------------

    Molecular point group: c1
  Charge       = 0
  Multiplicity = 1
  Basis Set: AUG-CC-PVTZ
    Blend: AUG-CC-PVTZ
  Basis Set: (AUG-CC-PVTZ AUX)
    Blend: AUG-CC-PVTZ-JKFIT

    Orbital Energies [Eh]
    ---------------------

    Doubly Occupied:

       1A    -20.555895     2A    -11.272275     3A    -11.229916
       4A    -11.219108     5A    -11.217352     6A    -11.215565
       7A    -11.213167     8A     -1.352667     9A     -1.122809
      10A     -0.998902    11A     -0.951771    12A     -0.872719
      13A     -0.777278    14A     -0.751743    15A     -0.686225
      16A     -0.640308    17A     -0.636372    18A     -0.618052
      19A     -0.567873    20A     -0.561272    21A     -0.522815
      22A     -0.472967    23A     -0.470249    24A     -0.463139
      25A     -0.459738    26A     -0.454317    27A     -0.438242
      28A     -0.432014

  @DF-RHF Final Energy:  -309.14160804755068

   => Energetics <=

    Nuclear Repulsion Energy =            324.0207096976806156
    One-Electron Energy =               -1061.9751330317824340
    Two-Electron Energy =                 428.8128152865511993
    Total Energy =                       -309.1416080475506760
  Basis Set: (AUG-CC-PVTZ AUX)
    Blend: AUG-CC-PVTZ-RI
    Molecular point group: c1

    Geometry (in Angstrom), charge = 0, multiplicity = 1:

       Center              X                  Y                   Z               Mass
    ------------   -----------------  -----------------  -----------------  -----------------
         O           -2.531751402089    -0.441841274641    -0.018103915548    15.994914619570
         C           -0.288134402089     0.215619725359    -0.433240915548    12.000000000000
         C            0.834988597911     1.263087725359    -0.200724915548    12.000000000000
         C            0.281947597911    -1.115857274641     0.083100084452    12.000000000000
         C            2.035091597911     0.477578725359     0.365221084452    12.000000000000
         C            1.791802597911    -0.960258274641    -0.098731915548    12.000000000000
         C           -1.589551402089     0.601264725359     0.237081084452    12.000000000000
         H           -0.488973402089     0.119922725359    -1.507332915548     1.007825032230
         H            0.514814597911     2.058969725359     0.482615084452     1.007825032230
         H            1.101116597911     1.750520725359    -1.144114915548     1.007825032230
         H           -0.224734902089    -2.137170574641    -0.527015315548     1.007825032230
         H            0.049856597911    -1.226940274641     1.150918084452     1.007825032230
         H            2.020608597911     0.508158725359     1.461148084452     1.007825032230
         H            2.998169597911     0.886011725359     0.042621084452     1.007825032230
         H            2.053265597911    -1.062493274641    -1.159552915548     1.007825032230
         H            2.376960597911    -1.699180274641     0.458727084452     1.007825032230
         H           -1.950257402089     1.564871725359    -0.154635915548     1.007825032230
         H           -1.416096402089     0.723373725359     1.318597084452     1.007825032230
         H           -3.362056402089    -0.206071274641     0.428487084452     1.007825032230

  Basis Set: AUG-CC-PVTZ
    Blend: AUG-CC-PVTZ
  Basis Set: (AUG-CC-PVTZ AUX)
    Blend: AUG-CC-PVTZ-JKFIT
	 Reference Energy          =    -309.1416080475506760 [Eh]
	 Singles Energy            =      -0.0000000000000000 [Eh]
	 Same-Spin Energy          =      -0.3224871027649306 [Eh]
	 Opposite-Spin Energy      =      -1.1112012561377156 [Eh]
	 Correlation Energy        =      -1.4336883589026463 [Eh]
	 Total Energy              =    -310.5752964064533330 [Eh]

	 ================> DF-SCS-MP2 Energies <==================
	-----------------------------------------------------------
	 SCS Same-Spin Scale       =       0.3333333333333333 [-]
	 SCS Opposite-Spin Scale   =       1.2000000000000000 [-]
	 SCS Same-Spin Energy      =      -0.1074957009216435 [Eh]
	 SCS Opposite-Spin Energy  =      -1.3334415073652586 [Eh]
	 SCS Correlation Energy    =      -1.4409372082869021 [Eh]
	 SCS Total Energy          =    -310.5825452558376014 [Eh]
	-----------------------------------------------------------

  Dipole Moment: [D]
     X:    -0.1311      Y:     1.3191      Z:     0.7834     Total:     1.5398

*** Psi4 exiting successfully. Buy a developer a beer!
