                               Psi4 1.4a3.dev225

  ==> Input File <==

--------------------------------------------------------------------------
#psi4
#
memory 32 gb

molecule  {
0 1
  O       -2.5655710    -0.4559810    -0.0273220
  C       -0.3219540     0.2014800    -0.4424590
  C        0.8011690     1.2489480    -0.2099430
  C        0.2481280    -1.1299970     0.0738820
  C        2.0012720     0.4634390     0.3560030
  C        1.7579830    -0.9743980    -0.1079500
  C       -1.6233710     0.5871250     0.2278630
  H       -0.5227930     0.1057830    -1.5165510
  H        0.4809950     2.0448300     0.4733970
  H        1.0672970     1.7363810    -1.1533330
  H       -0.1801860    -1.9933440    -0.4418670
  H        0.0202631    -1.2390573     1.1222565
  H        1.9867890     0.4940190     1.4519300
  H        2.9643500     0.8718720     0.0334030
  H        2.0194460    -1.0766330    -1.1687710
  H        2.3431410    -1.7133200     0.4495090
  H       -1.9840770     1.5507320    -0.1638540
  H       -1.4499160     0.7092340     1.3093790
  H       -3.3958760    -0.2202110     0.4192690
units angstrom
no_reorient  #important for SAPT in psi4, default
symmetry c1  #important for SAPT in psi4, default
}

set PROPERTIES_ORIGIN ["COM"]
properties('MP2/aug-cc-pvtz', properties = ['dipole'])
--------------------------------------------------------------------------

    Molecular point group: c1
  Charge       = 0
  Multiplicity = 1
  Basis Set: AUG-CC-PVTZ
    Blend: AUG-CC-PVTZ
  Basis Set: (AUG-CC-PVTZ AUX)
    Blend: AUG-CC-PVTZ-JKFIT

    Orbital Energies [Eh]
    ---------------------

    Doubly Occupied:

       1A    -20.556185     2A    -11.271401     3A    -11.216588
       4A    -11.215208     5A    -11.213360     6A    -11.210600
       7A    -11.204362     8A     -1.352862     9A     -1.122101
      10A     -0.997194    11A     -0.957307    12A     -0.873885
      13A     -0.779064    14A     -0.754985    15A     -0.687565
      16A     -0.650044    17A     -0.635311    18A     -0.619529
      19A     -0.570120    20A     -0.562531    21A     -0.523828
      22A     -0.473833    23A     -0.470549    24A     -0.462407
      25A     -0.459940    26A     -0.457824    27A     -0.448942
      28A     -0.432164

  @DF-RHF Final Energy:  -309.16209581853821

   => Energetics <=

    Nuclear Repulsion Energy =            324.9976232530759717
    One-Electron Energy =               -1063.9600696325953777
    Two-Electron Energy =                 429.8003505609812009
    Total Energy =                       -309.1620958185382051
  Basis Set: (AUG-CC-PVTZ AUX)
    Blend: AUG-CC-PVTZ-RI
    Molecular point group: c1

    Geometry (in Angstrom), charge = 0, multiplicity = 1:

       Center              X                  Y                   Z               Mass
    ------------   -----------------  -----------------  -----------------  -----------------
         O           -2.532583072495    -0.443452253041    -0.018858337250    15.994914619570
         C           -0.288966072495     0.214008746959    -0.433995337250    12.000000000000
         C            0.834156927505     1.261476746959    -0.201479337250    12.000000000000
         C            0.281115927505    -1.117468253041     0.082345662750    12.000000000000
         C            2.034259927505     0.475967746959     0.364466662750    12.000000000000
         C            1.790970927505    -0.961869253041    -0.099486337250    12.000000000000
         C           -1.590383072495     0.599653746959     0.236326662750    12.000000000000
         H           -0.489805072495     0.118311746959    -1.508087337250     1.007825032230
         H            0.513982927505     2.057358746959     0.481860662750     1.007825032230
         H            1.100284927505     1.748909746959    -1.144869337250     1.007825032230
         H           -0.147198072495    -1.980815253041    -0.433403337250     1.007825032230
         H            0.053251027505    -1.226528553041     1.130720162750     1.007825032230
         H            2.019776927505     0.506547746959     1.460393662750     1.007825032230
         H            2.997337927505     0.884400746959     0.041866662750     1.007825032230
         H            2.052433927505    -1.064104253041    -1.160307337250     1.007825032230
         H            2.376128927505    -1.700791253041     0.457972662750     1.007825032230
         H           -1.951089072495     1.563260746959    -0.155390337250     1.007825032230
         H           -1.416928072495     0.721762746959     1.317842662750     1.007825032230
         H           -3.362888072495    -0.207682253041     0.427732662750     1.007825032230

  Basis Set: AUG-CC-PVTZ
    Blend: AUG-CC-PVTZ
  Basis Set: (AUG-CC-PVTZ AUX)
    Blend: AUG-CC-PVTZ-JKFIT
	 Reference Energy          =    -309.1620958185382051 [Eh]
	 Singles Energy            =      -0.0000000000000000 [Eh]
	 Same-Spin Energy          =      -0.3223610668816832 [Eh]
	 Opposite-Spin Energy      =      -1.1093377912794968 [Eh]
	 Correlation Energy        =      -1.4316988581611800 [Eh]
	 Total Energy              =    -310.5937946766993605 [Eh]

	 ================> DF-SCS-MP2 Energies <==================
	-----------------------------------------------------------
	 SCS Same-Spin Scale       =       0.3333333333333333 [-]
	 SCS Opposite-Spin Scale   =       1.2000000000000000 [-]
	 SCS Same-Spin Energy      =      -0.1074536889605611 [Eh]
	 SCS Opposite-Spin Energy  =      -1.3312053495353962 [Eh]
	 SCS Correlation Energy    =      -1.4386590384959572 [Eh]
	 SCS Total Energy          =    -310.6007548570341896 [Eh]
	-----------------------------------------------------------

  Dipole Moment: [D]
     X:    -0.1998      Y:     1.1677      Z:     0.7596     Total:     1.4073

*** Psi4 exiting successfully. Buy a developer a beer!
