                               Psi4 1.4a3.dev225

  ==> Input File <==

--------------------------------------------------------------------------
#psi4
#
memory 32 gb

molecule  {
0 1
  O       -2.5655710    -0.4559810    -0.0273220
  C       -0.3229765     0.2237051    -0.4567098
  C        0.8011690     1.2489480    -0.2099430
  C        0.2481280    -1.1299970     0.0738820
  C        2.0012720     0.4634390     0.3560030
  C        1.7579830    -0.9743980    -0.1079500
  C       -1.6233710     0.5871250     0.2278630
  H       -0.5227930     0.1057830    -1.5165510
  H        0.4809950     2.0448300     0.4733970
  H        1.0672970     1.7363810    -1.1533330
  H       -0.1801860    -1.9933440    -0.4418670
  H        0.0160370    -1.2410800     1.1417000
  H        1.9867890     0.4940190     1.4519300
  H        2.9643500     0.8718720     0.0334030
  H        2.0194460    -1.0766330    -1.1687710
  H        2.3431410    -1.7133200     0.4495090
  H       -1.9840770     1.5507320    -0.1638540
  H       -1.4499160     0.7092340     1.3093790
  H       -3.3958760    -0.2202110     0.4192690
units angstrom
no_reorient  #important for SAPT in psi4, default
symmetry c1  #important for SAPT in psi4, default
}

set PROPERTIES_ORIGIN ["COM"]
properties('MP2/aug-cc-pvtz', properties = ['dipole'])
--------------------------------------------------------------------------

    Molecular point group: c1
  Charge       = 0
  Multiplicity = 1
  Basis Set: AUG-CC-PVTZ
    Blend: AUG-CC-PVTZ
  Basis Set: (AUG-CC-PVTZ AUX)
    Blend: AUG-CC-PVTZ-JKFIT

    Orbital Energies [Eh]
    ---------------------

    Doubly Occupied:

       1A    -20.556386     2A    -11.271372     3A    -11.216496
       4A    -11.215056     5A    -11.213590     6A    -11.210555
       7A    -11.207603     8A     -1.352816     9A     -1.120818
      10A     -0.997734    11A     -0.955609    12A     -0.873433
      13A     -0.777941    14A     -0.755622    15A     -0.687209
      16A     -0.650071    17A     -0.635080    18A     -0.618700
      19A     -0.570347    20A     -0.562190    21A     -0.522772
      22A     -0.474661    23A     -0.469437    24A     -0.466142
      25A     -0.458162    26A     -0.457531    27A     -0.449723
      28A     -0.428785

  @DF-RHF Final Energy:  -309.16158636985722

   => Energetics <=

    Nuclear Repulsion Energy =            324.7283810473181234
    One-Electron Energy =               -1063.4282549756856042
    Two-Electron Energy =                 429.5382875585102056
    Total Energy =                       -309.1615863698572184
  Basis Set: (AUG-CC-PVTZ AUX)
    Blend: AUG-CC-PVTZ-RI
    Molecular point group: c1

    Geometry (in Angstrom), charge = 0, multiplicity = 1:

       Center              X                  Y                   Z               Mass
    ------------   -----------------  -----------------  -----------------  -----------------
         O           -2.532417927475    -0.446096531249    -0.017345541300    15.994914619570
         C           -0.289823427475     0.233589568751    -0.446733341300    12.000000000000
         C            0.834322072525     1.258832468751    -0.199966541300    12.000000000000
         C            0.281281072525    -1.120112531249     0.083858458700    12.000000000000
         C            2.034425072525     0.473323468751     0.365979458700    12.000000000000
         C            1.791136072525    -0.964513531249    -0.097973541300    12.000000000000
         C           -1.590217927475     0.597009468751     0.237839458700    12.000000000000
         H           -0.489639927475     0.115667468751    -1.506574541300     1.007825032230
         H            0.514148072525     2.054714468751     0.483373458700     1.007825032230
         H            1.100450072525     1.746265468751    -1.143356541300     1.007825032230
         H           -0.147032927475    -1.983459531249    -0.431890541300     1.007825032230
         H            0.049190072525    -1.231195531249     1.151676458700     1.007825032230
         H            2.019942072525     0.503903468751     1.461906458700     1.007825032230
         H            2.997503072525     0.881756468751     0.043379458700     1.007825032230
         H            2.052599072525    -1.066748531249    -1.158794541300     1.007825032230
         H            2.376294072525    -1.703435531249     0.459485458700     1.007825032230
         H           -1.950923927475     1.560616468751    -0.153877541300     1.007825032230
         H           -1.416762927475     0.719118468751     1.319355458700     1.007825032230
         H           -3.362722927475    -0.210326531249     0.429245458700     1.007825032230

  Basis Set: AUG-CC-PVTZ
    Blend: AUG-CC-PVTZ
  Basis Set: (AUG-CC-PVTZ AUX)
    Blend: AUG-CC-PVTZ-JKFIT
	 Reference Energy          =    -309.1615863698572184 [Eh]
	 Singles Energy            =      -0.0000000000000000 [Eh]
	 Same-Spin Energy          =      -0.3223123748310132 [Eh]
	 Opposite-Spin Energy      =      -1.1094308672232551 [Eh]
	 Correlation Energy        =      -1.4317432420542682 [Eh]
	 Total Energy              =    -310.5933296119114857 [Eh]

	 ================> DF-SCS-MP2 Energies <==================
	-----------------------------------------------------------
	 SCS Same-Spin Scale       =       0.3333333333333333 [-]
	 SCS Opposite-Spin Scale   =       1.2000000000000000 [-]
	 SCS Same-Spin Energy      =      -0.1074374582770044 [Eh]
	 SCS Opposite-Spin Energy  =      -1.3313170406679060 [Eh]
	 SCS Correlation Energy    =      -1.4387544989449104 [Eh]
	 SCS Total Energy          =    -310.6003408688021068 [Eh]
	-----------------------------------------------------------

  Dipole Moment: [D]
     X:    -0.1959      Y:     1.1736      Z:     0.7414     Total:     1.4019

*** Psi4 exiting successfully. Buy a developer a beer!
