                               Psi4 1.4a3.dev225

  ==> Input File <==

--------------------------------------------------------------------------
#psi4
#
memory 32 gb

molecule  {
0 1
  O       -2.5655710    -0.4559810    -0.0273220
  C       -0.3219540     0.2014800    -0.4424590
  C        0.8011690     1.2489480    -0.2099430
  C        0.2481280    -1.1299970     0.0738820
  C        2.0012720     0.4634390     0.3560030
  C        1.7579830    -0.9743980    -0.1079500
  C       -1.6233710     0.5871250     0.2278630
  H       -0.5227930     0.1057830    -1.5165510
  H        0.4809950     2.0448300     0.4733970
  H        1.0672970     1.7363810    -1.1533330
  H       -0.1801860    -1.9933440    -0.4418670
  H        0.0160370    -1.2410800     1.1417000
  H        1.9867890     0.4940190     1.4519300
  H        2.9643500     0.8718720     0.0334030
  H        2.0194460    -1.0766330    -1.1687710
  H        2.3431410    -1.7133200     0.4495090
  H       -1.9840770     1.5507320    -0.1638540
  H       -1.4499160     0.7092340     1.3093790
  H       -3.3531570    -0.2323413     0.3962920
units angstrom
no_reorient  #important for SAPT in psi4, default
symmetry c1  #important for SAPT in psi4, default
}

set PROPERTIES_ORIGIN ["COM"]
properties('MP2/aug-cc-pvtz', properties = ['dipole'])
--------------------------------------------------------------------------

    Molecular point group: c1
  Charge       = 0
  Multiplicity = 1
  Basis Set: AUG-CC-PVTZ
    Blend: AUG-CC-PVTZ
  Basis Set: (AUG-CC-PVTZ AUX)
    Blend: AUG-CC-PVTZ-JKFIT

    Orbital Energies [Eh]
    ---------------------

    Doubly Occupied:

       1A    -20.551301     2A    -11.271979     3A    -11.217056
       4A    -11.215414     5A    -11.213534     6A    -11.210971
       7A    -11.207084     8A     -1.364732     9A     -1.122462
      10A     -0.999366    11A     -0.956766    12A     -0.876291
      13A     -0.778705    14A     -0.754529    15A     -0.697209
      16A     -0.651326    17A     -0.635681    18A     -0.620568
      19A     -0.569638    20A     -0.562625    21A     -0.525350
      22A     -0.474177    23A     -0.471000    24A     -0.463085
      25A     -0.460208    26A     -0.457947    27A     -0.449328
      28A     -0.432926

  @DF-RHF Final Energy:  -309.16269924158280

   => Energetics <=

    Nuclear Repulsion Energy =            325.2243640176206441
    One-Electron Energy =               -1064.3516092585821298
    Two-Electron Energy =                 429.9645459993786289
    Total Energy =                       -309.1626992415827999
  Basis Set: (AUG-CC-PVTZ AUX)
    Blend: AUG-CC-PVTZ-RI
    Molecular point group: c1

    Geometry (in Angstrom), charge = 0, multiplicity = 1:

       Center              X                  Y                   Z               Mass
    ------------   -----------------  -----------------  -----------------  -----------------
         O           -2.532970669333    -0.443309742136    -0.018822757352    15.994914619570
         C           -0.289353669333     0.214151257864    -0.433959757352    12.000000000000
         C            0.833769330667     1.261619257864    -0.201443757352    12.000000000000
         C            0.280728330667    -1.117325742136     0.082381242648    12.000000000000
         C            2.033872330667     0.476110257864     0.364502242648    12.000000000000
         C            1.790583330667    -0.961726742136    -0.099450757352    12.000000000000
         C           -1.590770669333     0.599796257864     0.236362242648    12.000000000000
         H           -0.490192669333     0.118454257864    -1.508051757352     1.007825032230
         H            0.513595330667     2.057501257864     0.481896242648     1.007825032230
         H            1.099897330667     1.749052257864    -1.144833757352     1.007825032230
         H           -0.147585669333    -1.980672742136    -0.433367757352     1.007825032230
         H            0.048637330667    -1.228408742136     1.150199242648     1.007825032230
         H            2.019389330667     0.506690257864     1.460429242648     1.007825032230
         H            2.996950330667     0.884543257864     0.041902242648     1.007825032230
         H            2.052046330667    -1.063961742136    -1.160271757352     1.007825032230
         H            2.375741330667    -1.700648742136     0.458008242648     1.007825032230
         H           -1.951476669333     1.563403257864    -0.155354757352     1.007825032230
         H           -1.417315669333     0.721905257864     1.317878242648     1.007825032230
         H           -3.320556669333    -0.219670042136     0.404791242648     1.007825032230

  Basis Set: AUG-CC-PVTZ
    Blend: AUG-CC-PVTZ
  Basis Set: (AUG-CC-PVTZ AUX)
    Blend: AUG-CC-PVTZ-JKFIT
	 Reference Energy          =    -309.1626992415827999 [Eh]
	 Singles Energy            =      -0.0000000000000000 [Eh]
	 Same-Spin Energy          =      -0.3217914532120120 [Eh]
	 Opposite-Spin Energy      =      -1.1079307221831054 [Eh]
	 Correlation Energy        =      -1.4297221753951175 [Eh]
	 Total Energy              =    -310.5924214169779134 [Eh]

	 ================> DF-SCS-MP2 Energies <==================
	-----------------------------------------------------------
	 SCS Same-Spin Scale       =       0.3333333333333333 [-]
	 SCS Opposite-Spin Scale   =       1.2000000000000000 [-]
	 SCS Same-Spin Energy      =      -0.1072638177373373 [Eh]
	 SCS Opposite-Spin Energy  =      -1.3295168666197263 [Eh]
	 SCS Correlation Energy    =      -1.4367806843570636 [Eh]
	 SCS Total Energy          =    -310.5994799259398746 [Eh]
	-----------------------------------------------------------

  Dipole Moment: [D]
     X:    -0.1578      Y:     1.1693      Z:     0.7309     Total:     1.3879

*** Psi4 exiting successfully. Buy a developer a beer!
