                               Psi4 1.4a3.dev225

  ==> Input File <==

--------------------------------------------------------------------------
#psi4
#
memory 32 gb

molecule  {
0 1
  O       -2.5655710    -0.4559810    -0.0273220
  C       -0.3243951     0.2460409    -0.4707521
  C        0.8011690     1.2489480    -0.2099430
  C        0.2481280    -1.1299970     0.0738820
  C        2.0012720     0.4634390     0.3560030
  C        1.7579830    -0.9743980    -0.1079500
  C       -1.6233710     0.5871250     0.2278630
  H       -0.5227930     0.1057830    -1.5165510
  H        0.4809950     2.0448300     0.4733970
  H        1.0672970     1.7363810    -1.1533330
  H       -0.1801860    -1.9933440    -0.4418670
  H        0.0160370    -1.2410800     1.1417000
  H        1.9867890     0.4940190     1.4519300
  H        2.9643500     0.8718720     0.0334030
  H        2.0194460    -1.0766330    -1.1687710
  H        2.3431410    -1.7133200     0.4495090
  H       -1.9840770     1.5507320    -0.1638540
  H       -1.4499160     0.7092340     1.3093790
  H       -3.3958760    -0.2202110     0.4192690
units angstrom
no_reorient  #important for SAPT in psi4, default
symmetry c1  #important for SAPT in psi4, default
}

set PROPERTIES_ORIGIN ["COM"]
properties('MP2/aug-cc-pvtz', properties = ['dipole'])
--------------------------------------------------------------------------

    Molecular point group: c1
  Charge       = 0
  Multiplicity = 1
  Basis Set: AUG-CC-PVTZ
    Blend: AUG-CC-PVTZ
  Basis Set: (AUG-CC-PVTZ AUX)
    Blend: AUG-CC-PVTZ-JKFIT

    Orbital Energies [Eh]
    ---------------------

    Doubly Occupied:

       1A    -20.556628     2A    -11.271417     3A    -11.216330
       4A    -11.214884     5A    -11.213782     6A    -11.210315
       7A    -11.208245     8A     -1.352820     9A     -1.119847
      10A     -0.998323    11A     -0.954689    12A     -0.873218
      13A     -0.777634    14A     -0.757027    15A     -0.686882
      16A     -0.650003    17A     -0.635066    18A     -0.617879
      19A     -0.571683    20A     -0.562384    21A     -0.522107
      22A     -0.477179    23A     -0.470370    24A     -0.467011
      25A     -0.458172    26A     -0.455964    27A     -0.450893
      28A     -0.423847

  @DF-RHF Final Energy:  -309.15987083924347

   => Energetics <=

    Nuclear Repulsion Energy =            324.5512283745747482
    One-Electron Energy =               -1063.0730049261183012
    Two-Electron Energy =                 429.3619057123000857
    Total Energy =                       -309.1598708392434673
  Basis Set: (AUG-CC-PVTZ AUX)
    Blend: AUG-CC-PVTZ-RI
    Molecular point group: c1

    Geometry (in Angstrom), charge = 0, multiplicity = 1:

       Center              X                  Y                   Z               Mass
    ------------   -----------------  -----------------  -----------------  -----------------
         O           -2.532247846532    -0.448774448856    -0.015661960572    15.994914619570
         C           -0.291071946532     0.253247451144    -0.459092060572    12.000000000000
         C            0.834492153468     1.256154551144    -0.198282960572    12.000000000000
         C            0.281451153468    -1.122790448856     0.085542039428    12.000000000000
         C            2.034595153468     0.470645551144     0.367663039428    12.000000000000
         C            1.791306153468    -0.967191448856    -0.096289960572    12.000000000000
         C           -1.590047846532     0.594331551144     0.239523039428    12.000000000000
         H           -0.489469846532     0.112989551144    -1.504890960572     1.007825032230
         H            0.514318153468     2.052036551144     0.485057039428     1.007825032230
         H            1.100620153468     1.743587551144    -1.141672960572     1.007825032230
         H           -0.146862846532    -1.986137448856    -0.430206960572     1.007825032230
         H            0.049360153468    -1.233873448856     1.153360039428     1.007825032230
         H            2.020112153468     0.501225551144     1.463590039428     1.007825032230
         H            2.997673153468     0.879078551144     0.045063039428     1.007825032230
         H            2.052769153468    -1.069426448856    -1.157110960572     1.007825032230
         H            2.376464153468    -1.706113448856     0.461169039428     1.007825032230
         H           -1.950753846532     1.557938551144    -0.152193960572     1.007825032230
         H           -1.416592846532     0.716440551144     1.321039039428     1.007825032230
         H           -3.362552846532    -0.213004448856     0.430929039428     1.007825032230

  Basis Set: AUG-CC-PVTZ
    Blend: AUG-CC-PVTZ
  Basis Set: (AUG-CC-PVTZ AUX)
    Blend: AUG-CC-PVTZ-JKFIT
	 Reference Energy          =    -309.1598708392434673 [Eh]
	 Singles Energy            =      -0.0000000000000000 [Eh]
	 Same-Spin Energy          =      -0.3223093892838661 [Eh]
	 Opposite-Spin Energy      =      -1.1094979906870039 [Eh]
	 Correlation Energy        =      -1.4318073799708699 [Eh]
	 Total Energy              =    -310.5916782192143160 [Eh]

	 ================> DF-SCS-MP2 Energies <==================
	-----------------------------------------------------------
	 SCS Same-Spin Scale       =       0.3333333333333333 [-]
	 SCS Opposite-Spin Scale   =       1.2000000000000000 [-]
	 SCS Same-Spin Energy      =      -0.1074364630946220 [Eh]
	 SCS Opposite-Spin Energy  =      -1.3313975888244047 [Eh]
	 SCS Correlation Energy    =      -1.4388340519190268 [Eh]
	 SCS Total Energy          =    -310.5987048911624697 [Eh]
	-----------------------------------------------------------

  Dipole Moment: [D]
     X:    -0.1956      Y:     1.1757      Z:     0.7370     Total:     1.4014

*** Psi4 exiting successfully. Buy a developer a beer!
