                               Psi4 1.4a3.dev225

  ==> Input File <==

--------------------------------------------------------------------------
#psi4
#
memory 32 gb

molecule  {
0 1
  O       -2.5655710    -0.4559810    -0.0273220
  C       -0.3219540     0.2014800    -0.4424590
  C        0.8011690     1.2489480    -0.2099430
  C        0.2407131    -1.1126789     0.0671661
  C        2.0012720     0.4634390     0.3560030
  C        1.7579830    -0.9743980    -0.1079500
  C       -1.6233710     0.5871250     0.2278630
  H       -0.5227930     0.1057830    -1.5165510
  H        0.4809950     2.0448300     0.4733970
  H        1.0672970     1.7363810    -1.1533330
  H       -0.1801860    -1.9933440    -0.4418670
  H        0.0160370    -1.2410800     1.1417000
  H        1.9867890     0.4940190     1.4519300
  H        2.9643500     0.8718720     0.0334030
  H        2.0194460    -1.0766330    -1.1687710
  H        2.3431410    -1.7133200     0.4495090
  H       -1.9840770     1.5507320    -0.1638540
  H       -1.4499160     0.7092340     1.3093790
  H       -3.3958760    -0.2202110     0.4192690
units angstrom
no_reorient  #important for SAPT in psi4, default
symmetry c1  #important for SAPT in psi4, default
}

set PROPERTIES_ORIGIN ["COM"]
properties('MP2/aug-cc-pvtz', properties = ['dipole'])
--------------------------------------------------------------------------

    Molecular point group: c1
  Charge       = 0
  Multiplicity = 1
  Basis Set: AUG-CC-PVTZ
    Blend: AUG-CC-PVTZ
  Basis Set: (AUG-CC-PVTZ AUX)
    Blend: AUG-CC-PVTZ-JKFIT

    Orbital Energies [Eh]
    ---------------------

    Doubly Occupied:

       1A    -20.556255     2A    -11.271554     3A    -11.216169
       4A    -11.215337     5A    -11.213278     6A    -11.210975
       7A    -11.207402     8A     -1.352987     9A     -1.123614
      10A     -0.997955    11A     -0.956021    12A     -0.874505
      13A     -0.778306    14A     -0.753960    15A     -0.687952
      16A     -0.650141    17A     -0.635673    18A     -0.619724
      19A     -0.568292    20A     -0.561745    21A     -0.524219
      22A     -0.473029    23A     -0.471864    24A     -0.463376
      25A     -0.458714    26A     -0.456694    27A     -0.447098
      28A     -0.434184

  @DF-RHF Final Energy:  -309.16149162183086

   => Energetics <=

    Nuclear Repulsion Energy =            325.1676088991418396
    One-Electron Energy =               -1064.2961553215798176
    Two-Electron Energy =                 429.9670548006070590
    Total Energy =                       -309.1614916218308622
  Basis Set: (AUG-CC-PVTZ AUX)
    Blend: AUG-CC-PVTZ-RI
    Molecular point group: c1

    Geometry (in Angstrom), charge = 0, multiplicity = 1:

       Center              X                  Y                   Z               Mass
    ------------   -----------------  -----------------  -----------------  -----------------
         O           -2.531651520160    -0.445508213763    -0.018248926958    15.994914619570
         C           -0.288034520160     0.211952786237    -0.433385926958    12.000000000000
         C            0.835088479840     1.259420786237    -0.200869926958    12.000000000000
         C            0.274632579840    -1.102206113763     0.076239173042    12.000000000000
         C            2.035191479840     0.473911786237     0.365076073042    12.000000000000
         C            1.791902479840    -0.963925213763    -0.098876926958    12.000000000000
         C           -1.589451520160     0.597597786237     0.236936073042    12.000000000000
         H           -0.488873520160     0.116255786237    -1.507477926958     1.007825032230
         H            0.514914479840     2.055302786237     0.482470073042     1.007825032230
         H            1.101216479840     1.746853786237    -1.144259926958     1.007825032230
         H           -0.146266520160    -1.982871213763    -0.432793926958     1.007825032230
         H            0.049956479840    -1.230607213763     1.150773073042     1.007825032230
         H            2.020708479840     0.504491786237     1.461003073042     1.007825032230
         H            2.998269479840     0.882344786237     0.042476073042     1.007825032230
         H            2.053365479840    -1.066160213763    -1.159697926958     1.007825032230
         H            2.377060479840    -1.702847213763     0.458582073042     1.007825032230
         H           -1.950157520160     1.561204786237    -0.154780926958     1.007825032230
         H           -1.415996520160     0.719706786237     1.318452073042     1.007825032230
         H           -3.361956520160    -0.209738213763     0.428342073042     1.007825032230

  Basis Set: AUG-CC-PVTZ
    Blend: AUG-CC-PVTZ
  Basis Set: (AUG-CC-PVTZ AUX)
    Blend: AUG-CC-PVTZ-JKFIT
	 Reference Energy          =    -309.1614916218308622 [Eh]
	 Singles Energy            =      -0.0000000000000000 [Eh]
	 Same-Spin Energy          =      -0.3224938035410161 [Eh]
	 Opposite-Spin Energy      =      -1.1095732827283797 [Eh]
	 Correlation Energy        =      -1.4320670862693958 [Eh]
	 Total Energy              =    -310.5935587081002609 [Eh]

	 ================> DF-SCS-MP2 Energies <==================
	-----------------------------------------------------------
	 SCS Same-Spin Scale       =       0.3333333333333333 [-]
	 SCS Opposite-Spin Scale   =       1.2000000000000000 [-]
	 SCS Same-Spin Energy      =      -0.1074979345136720 [Eh]
	 SCS Opposite-Spin Energy  =      -1.3314879392740557 [Eh]
	 SCS Correlation Energy    =      -1.4389858737877277 [Eh]
	 SCS Total Energy          =    -310.6004774956185770 [Eh]
	-----------------------------------------------------------

  Dipole Moment: [D]
     X:    -0.1962      Y:     1.1719      Z:     0.7453     Total:     1.4026

*** Psi4 exiting successfully. Buy a developer a beer!
