                               Psi4 1.4a3.dev225

  ==> Input File <==

--------------------------------------------------------------------------
#psi4
#
memory 32 gb

molecule  {
0 1
  O       -2.5655710    -0.4559810    -0.0273220
  C       -0.2615407     0.1618452    -0.5862802
  C        0.8011690     1.2489480    -0.2099430
  C        0.2481280    -1.1299970     0.0738820
  C        2.0012720     0.4634390     0.3560030
  C        1.7579830    -0.9743980    -0.1079500
  C       -1.6233710     0.5871250     0.2278630
  H       -0.5227930     0.1057830    -1.5165510
  H        0.4809950     2.0448300     0.4733970
  H        1.0672970     1.7363810    -1.1533330
  H       -0.1801860    -1.9933440    -0.4418670
  H        0.0160370    -1.2410800     1.1417000
  H        1.9867890     0.4940190     1.4519300
  H        2.9643500     0.8718720     0.0334030
  H        2.0194460    -1.0766330    -1.1687710
  H        2.3431410    -1.7133200     0.4495090
  H       -1.9840770     1.5507320    -0.1638540
  H       -1.4499160     0.7092340     1.3093790
  H       -3.3958760    -0.2202110     0.4192690
units angstrom
no_reorient  #important for SAPT in psi4, default
symmetry c1  #important for SAPT in psi4, default
}

set PROPERTIES_ORIGIN ["COM"]
properties('MP2/aug-cc-pvtz', properties = ['dipole'])
--------------------------------------------------------------------------

    Molecular point group: c1
  Charge       = 0
  Multiplicity = 1
  Basis Set: AUG-CC-PVTZ
    Blend: AUG-CC-PVTZ
  Basis Set: (AUG-CC-PVTZ AUX)
    Blend: AUG-CC-PVTZ-JKFIT

    Orbital Energies [Eh]
    ---------------------

    Doubly Occupied:

       1A    -20.553715     2A    -11.273869     3A    -11.215337
       4A    -11.214657     5A    -11.212282     6A    -11.209736
       7A    -11.207718     8A     -1.349125     9A     -1.119889
      10A     -0.984009    11A     -0.955917    12A     -0.868427
      13A     -0.781270    14A     -0.770658    15A     -0.682118
      16A     -0.651947    17A     -0.632016    18A     -0.613069
      19A     -0.574007    20A     -0.565039    21A     -0.521839
      22A     -0.485975    23A     -0.473898    24A     -0.464667
      25A     -0.461964    26A     -0.452424    27A     -0.435964
      28A     -0.413396

  @DF-RHF Final Energy:  -309.13339504030444

   => Energetics <=

    Nuclear Repulsion Energy =            323.8465368023320252
    One-Electron Energy =               -1061.6700015901178631
    Two-Electron Energy =                 428.6900697474814024
    Total Energy =                       -309.1333950403044355
  Basis Set: (AUG-CC-PVTZ AUX)
    Blend: AUG-CC-PVTZ-RI
    Molecular point group: c1

    Geometry (in Angstrom), charge = 0, multiplicity = 1:

       Center              X                  Y                   Z               Mass
    ------------   -----------------  -----------------  -----------------  -----------------
         O           -2.539783681580    -0.438679930303    -0.001810890401    15.994914619570
         C           -0.235753381580     0.179146269697    -0.560769090401    12.000000000000
         C            0.826956318420     1.266249069697    -0.184431890401    12.000000000000
         C            0.273915318420    -1.112695930303     0.099393109599    12.000000000000
         C            2.027059318420     0.480740069697     0.381514109599    12.000000000000
         C            1.783770318420    -0.957096930303    -0.082438890401    12.000000000000
         C           -1.597583681580     0.604426069697     0.253374109599    12.000000000000
         H           -0.497005681580     0.123084069697    -1.491039890401     1.007825032230
         H            0.506782318420     2.062131069697     0.498908109599     1.007825032230
         H            1.093084318420     1.753682069697    -1.127821890401     1.007825032230
         H           -0.154398681580    -1.976042930303    -0.416355890401     1.007825032230
         H            0.041824318420    -1.223778930303     1.167211109599     1.007825032230
         H            2.012576318420     0.511320069697     1.477441109599     1.007825032230
         H            2.990137318420     0.889173069697     0.058914109599     1.007825032230
         H            2.045233318420    -1.059331930303    -1.143259890401     1.007825032230
         H            2.368928318420    -1.696018930303     0.475020109599     1.007825032230
         H           -1.958289681580     1.568033069697    -0.138342890401     1.007825032230
         H           -1.424128681580     0.726535069697     1.334890109599     1.007825032230
         H           -3.370088681580    -0.202909930303     0.444780109599     1.007825032230

  Basis Set: AUG-CC-PVTZ
    Blend: AUG-CC-PVTZ
  Basis Set: (AUG-CC-PVTZ AUX)
    Blend: AUG-CC-PVTZ-JKFIT
	 Reference Energy          =    -309.1333950403044355 [Eh]
	 Singles Energy            =      -0.0000000000000000 [Eh]
	 Same-Spin Energy          =      -0.3224477215730447 [Eh]
	 Opposite-Spin Energy      =      -1.1105841604738251 [Eh]
	 Correlation Energy        =      -1.4330318820468699 [Eh]
	 Total Energy              =    -310.5664269223512974 [Eh]

	 ================> DF-SCS-MP2 Energies <==================
	-----------------------------------------------------------
	 SCS Same-Spin Scale       =       0.3333333333333333 [-]
	 SCS Opposite-Spin Scale   =       1.2000000000000000 [-]
	 SCS Same-Spin Energy      =      -0.1074825738576816 [Eh]
	 SCS Opposite-Spin Energy  =      -1.3327009925685902 [Eh]
	 SCS Correlation Energy    =      -1.4401835664262719 [Eh]
	 SCS Total Energy          =    -310.5735786067307345 [Eh]
	-----------------------------------------------------------

  Dipole Moment: [D]
     X:    -0.2389      Y:     1.1416      Z:     0.7051     Total:     1.3629

*** Psi4 exiting successfully. Buy a developer a beer!
