                               Psi4 1.4a3.dev225

  ==> Input File <==

--------------------------------------------------------------------------
#psi4
#
memory 32 gb

molecule  {
0 1
  O       -2.5655710    -0.4559810    -0.0273220
  C       -0.3219540     0.2014800    -0.4424590
  C        0.8011690     1.2489480    -0.2099430
  C        0.2481280    -1.1299970     0.0738820
  C        2.0012720     0.4634390     0.3560030
  C        1.7579830    -0.9743980    -0.1079500
  C       -1.6233710     0.5871250     0.2278630
  H       -0.5227930     0.1057830    -1.5165510
  H        0.4809950     2.0448300     0.4733970
  H        1.0672970     1.7363810    -1.1533330
  H       -0.1801860    -1.9933440    -0.4418670
  H        0.0160370    -1.2410800     1.1417000
  H        1.9867890     0.4940190     1.4519300
  H        2.9643500     0.8718720     0.0334030
  H        2.0194460    -1.0766330    -1.1687710
  H        2.3431410    -1.7133200     0.4495090
  H       -1.9840770     1.5507320    -0.1638540
  H       -1.4656543     0.6981546     1.2112487
  H       -3.3958760    -0.2202110     0.4192690
units angstrom
no_reorient  #important for SAPT in psi4, default
symmetry c1  #important for SAPT in psi4, default
}

set PROPERTIES_ORIGIN ["COM"]
properties('MP2/aug-cc-pvtz', properties = ['dipole'])
--------------------------------------------------------------------------

    Molecular point group: c1
  Charge       = 0
  Multiplicity = 1
  Basis Set: AUG-CC-PVTZ
    Blend: AUG-CC-PVTZ
  Basis Set: (AUG-CC-PVTZ AUX)
    Blend: AUG-CC-PVTZ-JKFIT

    Orbital Energies [Eh]
    ---------------------

    Doubly Occupied:

       1A    -20.554182     2A    -11.258321     3A    -11.215845
       4A    -11.215205     5A    -11.213468     6A    -11.210826
       7A    -11.206901     8A     -1.351698     9A     -1.122114
      10A     -1.000413    11A     -0.956569    12A     -0.881299
      13A     -0.778297    14A     -0.759048    15A     -0.689234
      16A     -0.650316    17A     -0.637060    18A     -0.623434
      19A     -0.569219    20A     -0.561709    21A     -0.526379
      22A     -0.474056    23A     -0.471519    24A     -0.462540
      25A     -0.460039    26A     -0.457742    27A     -0.447894
      28A     -0.434435

  @DF-RHF Final Energy:  -309.15682790531326

   => Energetics <=

    Nuclear Repulsion Energy =            325.3909676096378689
    One-Electron Energy =               -1064.7160690841662927
    Two-Electron Energy =                 430.1682735692151596
    Total Energy =                       -309.1568279053132642
  Basis Set: (AUG-CC-PVTZ AUX)
    Blend: AUG-CC-PVTZ-RI
    Molecular point group: c1

    Geometry (in Angstrom), charge = 0, multiplicity = 1:

       Center              X                  Y                   Z               Mass
    ------------   -----------------  -----------------  -----------------  -----------------
         O           -2.532382044817    -0.443320323971    -0.018066015683    15.994914619570
         C           -0.288765044817     0.214140676029    -0.433203015683    12.000000000000
         C            0.834357955183     1.261608676029    -0.200687015683    12.000000000000
         C            0.281316955183    -1.117336323971     0.083137984317    12.000000000000
         C            2.034460955183     0.476099676029     0.365258984317    12.000000000000
         C            1.791171955183    -0.961737323971    -0.098694015683    12.000000000000
         C           -1.590182044817     0.599785676029     0.237118984317    12.000000000000
         H           -0.489604044817     0.118443676029    -1.507295015683     1.007825032230
         H            0.514183955183     2.057490676029     0.482652984317     1.007825032230
         H            1.100485955183     1.749041676029    -1.144077015683     1.007825032230
         H           -0.146997044817    -1.980683323971    -0.432611015683     1.007825032230
         H            0.049225955183    -1.228419323971     1.150955984317     1.007825032230
         H            2.019977955183     0.506679676029     1.461185984317     1.007825032230
         H            2.997538955183     0.884532676029     0.042658984317     1.007825032230
         H            2.052634955183    -1.063972323971    -1.159515015683     1.007825032230
         H            2.376329955183    -1.700659323971     0.458764984317     1.007825032230
         H           -1.950888044817     1.563392676029    -0.154598015683     1.007825032230
         H           -1.432465344817     0.710815276029     1.220504684317     1.007825032230
         H           -3.362687044817    -0.207550323971     0.428524984317     1.007825032230

  Basis Set: AUG-CC-PVTZ
    Blend: AUG-CC-PVTZ
  Basis Set: (AUG-CC-PVTZ AUX)
    Blend: AUG-CC-PVTZ-JKFIT
	 Reference Energy          =    -309.1568279053132642 [Eh]
	 Singles Energy            =      -0.0000000000000000 [Eh]
	 Same-Spin Energy          =      -0.3222590838314222 [Eh]
	 Opposite-Spin Energy      =      -1.1088511629827535 [Eh]
	 Correlation Energy        =      -1.4311102468141756 [Eh]
	 Total Energy              =    -310.5879381521274354 [Eh]

	 ================> DF-SCS-MP2 Energies <==================
	-----------------------------------------------------------
	 SCS Same-Spin Scale       =       0.3333333333333333 [-]
	 SCS Opposite-Spin Scale   =       1.2000000000000000 [-]
	 SCS Same-Spin Energy      =      -0.1074196946104741 [Eh]
	 SCS Opposite-Spin Energy  =      -1.3306213955793043 [Eh]
	 SCS Correlation Energy    =      -1.4380410901897782 [Eh]
	 SCS Total Energy          =    -310.5948689955030204 [Eh]
	-----------------------------------------------------------

  Dipole Moment: [D]
     X:    -0.1725      Y:     1.1999      Z:     0.8169     Total:     1.4618

*** Psi4 exiting successfully. Buy a developer a beer!
