                               Psi4 1.4a3.dev225

  ==> Input File <==

--------------------------------------------------------------------------
#psi4
#
memory 32 gb

molecule  {
0 1
  O       -2.5655710    -0.4559810    -0.0273220
  C       -0.3219540     0.2014800    -0.4424590
  C        0.8011690     1.2489480    -0.2099430
  C        0.2481280    -1.1299970     0.0738820
  C        2.0012720     0.4634390     0.3560030
  C        1.7579830    -0.9743980    -0.1079500
  C       -1.6233710     0.5871250     0.2278630
  H       -0.5227930     0.1057830    -1.5165510
  H        0.4809950     2.0448300     0.4733970
  H        1.0186765     1.6473289    -0.9809794
  H       -0.1801860    -1.9933440    -0.4418670
  H        0.0160370    -1.2410800     1.1417000
  H        1.9867890     0.4940190     1.4519300
  H        2.9643500     0.8718720     0.0334030
  H        2.0194460    -1.0766330    -1.1687710
  H        2.3431410    -1.7133200     0.4495090
  H       -1.9840770     1.5507320    -0.1638540
  H       -1.4499160     0.7092340     1.3093790
  H       -3.3958760    -0.2202110     0.4192690
units angstrom
no_reorient  #important for SAPT in psi4, default
symmetry c1  #important for SAPT in psi4, default
}

set PROPERTIES_ORIGIN ["COM"]
properties('MP2/aug-cc-pvtz', properties = ['dipole'])
--------------------------------------------------------------------------

    Molecular point group: c1
  Charge       = 0
  Multiplicity = 1
  Basis Set: AUG-CC-PVTZ
    Blend: AUG-CC-PVTZ
  Basis Set: (AUG-CC-PVTZ AUX)
    Blend: AUG-CC-PVTZ-JKFIT

    Orbital Energies [Eh]
    ---------------------

    Doubly Occupied:

       1A    -20.555454     2A    -11.270651     3A    -11.215506
       4A    -11.211926     5A    -11.210173     6A    -11.206048
       7A    -11.189749     8A     -1.352173     9A     -1.124716
      10A     -0.996466    11A     -0.969847    12A     -0.878645
      13A     -0.785187    14A     -0.758778    15A     -0.694131
      16A     -0.652844    17A     -0.634550    18A     -0.619982
      19A     -0.582207    20A     -0.561219    21A     -0.524344
      22A     -0.475774    23A     -0.469437    24A     -0.465821
      25A     -0.459417    26A     -0.457703    27A     -0.450647
      28A     -0.432887

  @DF-RHF Final Energy:  -309.12872027763075

   => Energetics <=

    Nuclear Repulsion Energy =            326.0157028695394956
    One-Electron Energy =               -1065.8762817287279177
    Two-Electron Energy =                 430.7318585815576739
    Total Energy =                       -309.1287202776307481
  Basis Set: (AUG-CC-PVTZ AUX)
    Blend: AUG-CC-PVTZ-RI
    Molecular point group: c1

    Geometry (in Angstrom), charge = 0, multiplicity = 1:

       Center              X                  Y                   Z               Mass
    ------------   -----------------  -----------------  -----------------  -----------------
         O           -2.532050943842    -0.442535192896    -0.020789601182    15.994914619570
         C           -0.288433943842     0.214925807104    -0.435926601182    12.000000000000
         C            0.834689056158     1.262393807104    -0.203410601182    12.000000000000
         C            0.281648056158    -1.116551192896     0.080414398818    12.000000000000
         C            2.034792056158     0.476884807104     0.362535398818    12.000000000000
         C            1.791503056158    -0.960952192896    -0.101417601182    12.000000000000
         C           -1.589850943842     0.600570807104     0.234395398818    12.000000000000
         H           -0.489272943842     0.119228807104    -1.510018601182     1.007825032230
         H            0.514515056158     2.058275807104     0.479929398818     1.007825032230
         H            1.052196556158     1.660774707104    -0.974447001182     1.007825032230
         H           -0.146665943842    -1.979898192896    -0.435334601182     1.007825032230
         H            0.049557056158    -1.227634192896     1.148232398818     1.007825032230
         H            2.020309056158     0.507464807104     1.458462398818     1.007825032230
         H            2.997870056158     0.885317807104     0.039935398818     1.007825032230
         H            2.052966056158    -1.063187192896    -1.162238601182     1.007825032230
         H            2.376661056158    -1.699874192896     0.456041398818     1.007825032230
         H           -1.950556943842     1.564177807104    -0.157321601182     1.007825032230
         H           -1.416395943842     0.722679807104     1.315911398818     1.007825032230
         H           -3.362355943842    -0.206765192896     0.425801398818     1.007825032230

  Basis Set: AUG-CC-PVTZ
    Blend: AUG-CC-PVTZ
  Basis Set: (AUG-CC-PVTZ AUX)
    Blend: AUG-CC-PVTZ-JKFIT
	 Reference Energy          =    -309.1287202776307481 [Eh]
	 Singles Energy            =      -0.0000000000000000 [Eh]
	 Same-Spin Energy          =      -0.3224568087021449 [Eh]
	 Opposite-Spin Energy      =      -1.1086675987795733 [Eh]
	 Correlation Energy        =      -1.4311244074817182 [Eh]
	 Total Energy              =    -310.5598446851124663 [Eh]

	 ================> DF-SCS-MP2 Energies <==================
	-----------------------------------------------------------
	 SCS Same-Spin Scale       =       0.3333333333333333 [-]
	 SCS Opposite-Spin Scale   =       1.2000000000000000 [-]
	 SCS Same-Spin Energy      =      -0.1074856029007150 [Eh]
	 SCS Opposite-Spin Energy  =      -1.3304011185354880 [Eh]
	 SCS Correlation Energy    =      -1.4378867214362030 [Eh]
	 SCS Total Energy          =    -310.5666069990669484 [Eh]
	-----------------------------------------------------------

  Dipole Moment: [D]
     X:    -0.1735      Y:     1.2461      Z:     0.6793     Total:     1.4298

*** Psi4 exiting successfully. Buy a developer a beer!
