                               Psi4 1.4a3.dev225

  ==> Input File <==

--------------------------------------------------------------------------
#psi4
#
memory 32 gb

molecule  {
0 1
  O       -2.5655710    -0.4559810    -0.0273220
  C       -0.3539671     0.2412560    -0.4606931
  C        0.8011690     1.2489480    -0.2099430
  C        0.2481280    -1.1299970     0.0738820
  C        2.0012720     0.4634390     0.3560030
  C        1.7579830    -0.9743980    -0.1079500
  C       -1.6233710     0.5871250     0.2278630
  H       -0.5227930     0.1057830    -1.5165510
  H        0.4809950     2.0448300     0.4733970
  H        1.0672970     1.7363810    -1.1533330
  H       -0.1801860    -1.9933440    -0.4418670
  H        0.0160370    -1.2410800     1.1417000
  H        1.9867890     0.4940190     1.4519300
  H        2.9643500     0.8718720     0.0334030
  H        2.0194460    -1.0766330    -1.1687710
  H        2.3431410    -1.7133200     0.4495090
  H       -1.9840770     1.5507320    -0.1638540
  H       -1.4499160     0.7092340     1.3093790
  H       -3.3958760    -0.2202110     0.4192690
units angstrom
no_reorient  #important for SAPT in psi4, default
symmetry c1  #important for SAPT in psi4, default
}

set PROPERTIES_ORIGIN ["COM"]
properties('MP2/aug-cc-pvtz', properties = ['dipole'])
--------------------------------------------------------------------------

    Molecular point group: c1
  Charge       = 0
  Multiplicity = 1
  Basis Set: AUG-CC-PVTZ
    Blend: AUG-CC-PVTZ
  Basis Set: (AUG-CC-PVTZ AUX)
    Blend: AUG-CC-PVTZ-JKFIT

    Orbital Energies [Eh]
    ---------------------

    Doubly Occupied:

       1A    -20.556578     2A    -11.270499     3A    -11.216392
       4A    -11.215783     5A    -11.213901     6A    -11.210641
       7A    -11.208478     8A     -1.353536     9A     -1.117908
      10A     -1.002180    11A     -0.953608    12A     -0.873407
      13A     -0.777056    14A     -0.757165    15A     -0.687430
      16A     -0.649930    17A     -0.634977    18A     -0.618562
      19A     -0.571081    20A     -0.563082    21A     -0.522416
      22A     -0.473092    23A     -0.470493    24A     -0.465612
      25A     -0.458811    26A     -0.456103    27A     -0.455293
      28A     -0.423124

  @DF-RHF Final Energy:  -309.15955569565972

   => Energetics <=

    Nuclear Repulsion Energy =            324.5599854062909344
    One-Electron Energy =               -1063.0848022234993095
    Two-Electron Energy =                 429.3652611215486559
    Total Energy =                       -309.1595556956597193
  Basis Set: (AUG-CC-PVTZ AUX)
    Blend: AUG-CC-PVTZ-RI
    Molecular point group: c1

    Geometry (in Angstrom), charge = 0, multiplicity = 1:

       Center              X                  Y                   Z               Mass
    ------------   -----------------  -----------------  -----------------  -----------------
         O           -2.528702355460    -0.448200770368    -0.016867969455    15.994914619570
         C           -0.317098455460     0.249036229632    -0.450239069455    12.000000000000
         C            0.838037644540     1.256728229632    -0.199488969455    12.000000000000
         C            0.284996644540    -1.122216770368     0.084336030545    12.000000000000
         C            2.038140644540     0.471219229632     0.366457030545    12.000000000000
         C            1.794851644540    -0.966617770368    -0.097495969455    12.000000000000
         C           -1.586502355460     0.594905229632     0.238317030545    12.000000000000
         H           -0.485924355460     0.113563229632    -1.506096969455     1.007825032230
         H            0.517863644540     2.052610229632     0.483851030545     1.007825032230
         H            1.104165644540     1.744161229632    -1.142878969455     1.007825032230
         H           -0.143317355460    -1.985563770368    -0.431412969455     1.007825032230
         H            0.052905644540    -1.233299770368     1.152154030545     1.007825032230
         H            2.023657644540     0.501799229632     1.462384030545     1.007825032230
         H            3.001218644540     0.879652229632     0.043857030545     1.007825032230
         H            2.056314644540    -1.068852770368    -1.158316969455     1.007825032230
         H            2.380009644540    -1.705539770368     0.459963030545     1.007825032230
         H           -1.947208355460     1.558512229632    -0.153399969455     1.007825032230
         H           -1.413047355460     0.717014229632     1.319833030545     1.007825032230
         H           -3.359007355460    -0.212430770368     0.429723030545     1.007825032230

  Basis Set: AUG-CC-PVTZ
    Blend: AUG-CC-PVTZ
  Basis Set: (AUG-CC-PVTZ AUX)
    Blend: AUG-CC-PVTZ-JKFIT
	 Reference Energy          =    -309.1595556956597193 [Eh]
	 Singles Energy            =      -0.0000000000000000 [Eh]
	 Same-Spin Energy          =      -0.3223480157157177 [Eh]
	 Opposite-Spin Energy      =      -1.1095776055072517 [Eh]
	 Correlation Energy        =      -1.4319256212229694 [Eh]
	 Total Energy              =    -310.5914813168826640 [Eh]

	 ================> DF-SCS-MP2 Energies <==================
	-----------------------------------------------------------
	 SCS Same-Spin Scale       =       0.3333333333333333 [-]
	 SCS Opposite-Spin Scale   =       1.2000000000000000 [-]
	 SCS Same-Spin Energy      =      -0.1074493385719059 [Eh]
	 SCS Opposite-Spin Energy  =      -1.3314931266087020 [Eh]
	 SCS Correlation Energy    =      -1.4389424651806080 [Eh]
	 SCS Total Energy          =    -310.5984981608403359 [Eh]
	-----------------------------------------------------------

  Dipole Moment: [D]
     X:    -0.1904      Y:     1.1798      Z:     0.7424     Total:     1.4069

*** Psi4 exiting successfully. Buy a developer a beer!
