                               Psi4 1.4a3.dev225

  ==> Input File <==

--------------------------------------------------------------------------
#psi4
#
memory 32 gb

molecule  {
0 1
  O       -2.5655710    -0.4559810    -0.0273220
  C       -0.3219540     0.2014800    -0.4424590
  C        0.8011690     1.2489480    -0.2099430
  C        0.2481280    -1.1299970     0.0738820
  C        2.0012720     0.4634390     0.3560030
  C        1.7579830    -0.9743980    -0.1079500
  C       -1.6233710     0.5871250     0.2278630
  H       -0.5227930     0.1057830    -1.5165510
  H        0.4809950     2.0448300     0.4733970
  H        1.0672970     1.7363810    -1.1533330
  H       -0.1801860    -1.9933440    -0.4418670
  H        0.0160370    -1.2410800     1.1417000
  H        1.9867890     0.4940190     1.4519300
  H        2.9643500     0.8718720     0.0334030
  H        2.0194460    -1.0766330    -1.1687710
  H        2.3431410    -1.7133200     0.4495090
  H       -1.9840770     1.5507320    -0.1638540
  H       -1.4530637     0.7070181     1.2897529
  H       -3.3958760    -0.2202110     0.4192690
units angstrom
no_reorient  #important for SAPT in psi4, default
symmetry c1  #important for SAPT in psi4, default
}

set PROPERTIES_ORIGIN ["COM"]
properties('MP2/aug-cc-pvtz', properties = ['dipole'])
--------------------------------------------------------------------------

    Molecular point group: c1
  Charge       = 0
  Multiplicity = 1
  Basis Set: AUG-CC-PVTZ
    Blend: AUG-CC-PVTZ
  Basis Set: (AUG-CC-PVTZ AUX)
    Blend: AUG-CC-PVTZ-JKFIT

    Orbital Energies [Eh]
    ---------------------

    Doubly Occupied:

       1A    -20.555714     2A    -11.268820     3A    -11.216591
       4A    -11.215282     5A    -11.213419     6A    -11.210826
       7A    -11.206898     8A     -1.352555     9A     -1.121944
      10A     -0.997767    11A     -0.956565    12A     -0.875013
      13A     -0.778302    14A     -0.755052    15A     -0.687837
      16A     -0.650161    17A     -0.635394    18A     -0.620456
      19A     -0.569250    20A     -0.561776    21A     -0.524100
      22A     -0.474014    23A     -0.470504    24A     -0.462502
      25A     -0.459879    26A     -0.457625    27A     -0.448389
      28A     -0.432710

  @DF-RHF Final Energy:  -309.16216720967464

   => Energetics <=

    Nuclear Repulsion Energy =            324.9965445767564347
    One-Electron Energy =               -1063.9587351350096469
    Two-Electron Energy =                 429.8000233485786339
    Total Energy =                       -309.1621672096746352
  Basis Set: (AUG-CC-PVTZ AUX)
    Blend: AUG-CC-PVTZ-RI
    Molecular point group: c1

    Geometry (in Angstrom), charge = 0, multiplicity = 1:

       Center              X                  Y                   Z               Mass
    ------------   -----------------  -----------------  -----------------  -----------------
         O           -2.532508823437    -0.443409573276    -0.018856498594    15.994914619570
         C           -0.288891823437     0.214051426724    -0.433993498594    12.000000000000
         C            0.834231176563     1.261519426724    -0.201477498594    12.000000000000
         C            0.281190176563    -1.117425573276     0.082347501406    12.000000000000
         C            2.034334176563     0.476010426724     0.364468501406    12.000000000000
         C            1.791045176563    -0.961826573276    -0.099484498594    12.000000000000
         C           -1.590308823437     0.599696426724     0.236328501406    12.000000000000
         H           -0.489730823437     0.118354426724    -1.508085498594     1.007825032230
         H            0.514057176563     2.057401426724     0.481862501406     1.007825032230
         H            1.100359176563     1.748952426724    -1.144867498594     1.007825032230
         H           -0.147123823437    -1.980772573276    -0.433401498594     1.007825032230
         H            0.049099176563    -1.228508573276     1.150165501406     1.007825032230
         H            2.019851176563     0.506590426724     1.460395501406     1.007825032230
         H            2.997412176563     0.884443426724     0.041868501406     1.007825032230
         H            2.052508176563    -1.064061573276    -1.160305498594     1.007825032230
         H            2.376203176563    -1.700748573276     0.457974501406     1.007825032230
         H           -1.951014823437     1.563303426724    -0.155388498594     1.007825032230
         H           -1.420001523437     0.719589526724     1.298218401406     1.007825032230
         H           -3.362813823437    -0.207639573276     0.427734501406     1.007825032230

  Basis Set: AUG-CC-PVTZ
    Blend: AUG-CC-PVTZ
  Basis Set: (AUG-CC-PVTZ AUX)
    Blend: AUG-CC-PVTZ-JKFIT
	 Reference Energy          =    -309.1621672096746352 [Eh]
	 Singles Energy            =      -0.0000000000000000 [Eh]
	 Same-Spin Energy          =      -0.3223465325866264 [Eh]
	 Opposite-Spin Energy      =      -1.1093219169550266 [Eh]
	 Correlation Energy        =      -1.4316684495416530 [Eh]
	 Total Energy              =    -310.5938356592162677 [Eh]

	 ================> DF-SCS-MP2 Energies <==================
	-----------------------------------------------------------
	 SCS Same-Spin Scale       =       0.3333333333333333 [-]
	 SCS Opposite-Spin Scale   =       1.2000000000000000 [-]
	 SCS Same-Spin Energy      =      -0.1074488441955421 [Eh]
	 SCS Opposite-Spin Energy  =      -1.3311863003460318 [Eh]
	 SCS Correlation Energy    =      -1.4386351445415739 [Eh]
	 SCS Total Energy          =    -310.6008023542162277 [Eh]
	-----------------------------------------------------------

  Dipole Moment: [D]
     X:    -0.1907      Y:     1.1774      Z:     0.7625     Total:     1.4156

*** Psi4 exiting successfully. Buy a developer a beer!
