                               Psi4 1.4a3.dev225

  ==> Input File <==

--------------------------------------------------------------------------
#psi4
#
memory 32 gb

molecule  {
0 1
  O       -2.5655710    -0.4559810    -0.0273220
  C       -0.3219540     0.2014800    -0.4424590
  C        0.8011690     1.2489480    -0.2099430
  C        0.2481280    -1.1299970     0.0738820
  C        2.0012720     0.4634390     0.3560030
  C        1.7579830    -0.9743980    -0.1079500
  C       -1.6233710     0.5871250     0.2278630
  H       -0.5227930     0.1057830    -1.5165510
  H        0.4809950     2.0448300     0.4733970
  H        1.0672970     1.7363810    -1.1533330
  H       -0.1801860    -1.9933440    -0.4418670
  H        0.0160370    -1.2410800     1.1417000
  H        1.9867890     0.4940190     1.4519300
  H        2.9643500     0.8718720     0.0334030
  H        2.0194460    -1.0766330    -1.1687710
  H        2.3431410    -1.7133200     0.4495090
  H       -1.9840770     1.5507320    -0.1638540
  H       -1.4813925     0.6870751     1.1131184
  H       -3.3958760    -0.2202110     0.4192690
units angstrom
no_reorient  #important for SAPT in psi4, default
symmetry c1  #important for SAPT in psi4, default
}

set PROPERTIES_ORIGIN ["COM"]
properties('MP2/aug-cc-pvtz', properties = ['dipole'])
--------------------------------------------------------------------------

    Molecular point group: c1
  Charge       = 0
  Multiplicity = 1
  Basis Set: AUG-CC-PVTZ
    Blend: AUG-CC-PVTZ
  Basis Set: (AUG-CC-PVTZ AUX)
    Blend: AUG-CC-PVTZ-JKFIT

    Orbital Energies [Eh]
    ---------------------

    Doubly Occupied:

       1A    -20.552774     2A    -11.245301     3A    -11.215542
       4A    -11.214804     5A    -11.213539     6A    -11.210861
       7A    -11.206962     8A     -1.351211     9A     -1.122572
      10A     -1.005825    11A     -0.956611    12A     -0.891877
      13A     -0.778360    14A     -0.764890    15A     -0.691607
      16A     -0.650956    17A     -0.639915    18A     -0.625617
      19A     -0.569248    20A     -0.561848    21A     -0.529160
      22A     -0.474232    23A     -0.472702    24A     -0.462700
      25A     -0.460116    26A     -0.457808    27A     -0.447511
      28A     -0.435975

  @DF-RHF Final Energy:  -309.13083953422182

   => Energetics <=

    Nuclear Repulsion Energy =            325.9448576264454687
    One-Electron Energy =               -1065.7303496398919833
    Two-Electron Energy =                 430.6546524792246942
    Total Energy =                       -309.1308395342218205
  Basis Set: (AUG-CC-PVTZ AUX)
    Blend: AUG-CC-PVTZ-RI
    Molecular point group: c1

    Geometry (in Angstrom), charge = 0, multiplicity = 1:

       Center              X                  Y                   Z               Mass
    ------------   -----------------  -----------------  -----------------  -----------------
         O           -2.532223572045    -0.443208761081    -0.017077911540    15.994914619570
         C           -0.288606572045     0.214252238919    -0.432214911540    12.000000000000
         C            0.834516427955     1.261720238919    -0.199698911540    12.000000000000
         C            0.281475427955    -1.117224761081     0.084126088460    12.000000000000
         C            2.034619427955     0.476211238919     0.366247088460    12.000000000000
         C            1.791330427955    -0.961625761081    -0.097705911540    12.000000000000
         C           -1.590023572045     0.599897238919     0.238107088460    12.000000000000
         H           -0.489445572045     0.118555238919    -1.506306911540     1.007825032230
         H            0.514342427955     2.057602238919     0.483641088460     1.007825032230
         H            1.100644427955     1.749153238919    -1.143088911540     1.007825032230
         H           -0.146838572045    -1.980571761081    -0.431622911540     1.007825032230
         H            0.049384427955    -1.228307761081     1.151944088460     1.007825032230
         H            2.020136427955     0.506791238919     1.462174088460     1.007825032230
         H            2.997697427955     0.884644238919     0.043647088460     1.007825032230
         H            2.052793427955    -1.063860761081    -1.158526911540     1.007825032230
         H            2.376488427955    -1.700547761081     0.459753088460     1.007825032230
         H           -1.950729572045     1.563504238919    -0.153609911540     1.007825032230
         H           -1.448045072045     0.699847338919     1.123362488460     1.007825032230
         H           -3.362528572045    -0.207438761081     0.429513088460     1.007825032230

  Basis Set: AUG-CC-PVTZ
    Blend: AUG-CC-PVTZ
  Basis Set: (AUG-CC-PVTZ AUX)
    Blend: AUG-CC-PVTZ-JKFIT
	 Reference Energy          =    -309.1308395342218205 [Eh]
	 Singles Energy            =      -0.0000000000000000 [Eh]
	 Same-Spin Energy          =      -0.3222196851059501 [Eh]
	 Opposite-Spin Energy      =      -1.1085842645708197 [Eh]
	 Correlation Energy        =      -1.4308039496767697 [Eh]
	 Total Energy              =    -310.5616434838985924 [Eh]

	 ================> DF-SCS-MP2 Energies <==================
	-----------------------------------------------------------
	 SCS Same-Spin Scale       =       0.3333333333333333 [-]
	 SCS Opposite-Spin Scale   =       1.2000000000000000 [-]
	 SCS Same-Spin Energy      =      -0.1074065617019834 [Eh]
	 SCS Opposite-Spin Energy  =      -1.3303011174849837 [Eh]
	 SCS Correlation Energy    =      -1.4377076791869670 [Eh]
	 SCS Total Energy          =    -310.5685472134088059 [Eh]
	-----------------------------------------------------------

  Dipole Moment: [D]
     X:    -0.1532      Y:     1.2225      Z:     0.8640     Total:     1.5048

*** Psi4 exiting successfully. Buy a developer a beer!
