                               Psi4 1.4a3.dev225

  ==> Input File <==

--------------------------------------------------------------------------
#psi4
#
memory 32 gb

molecule  {
0 1
  O       -2.5655710    -0.4559810    -0.0273220
  C       -0.3219540     0.2014800    -0.4424590
  C        0.8011690     1.2489480    -0.2099430
  C        0.2481280    -1.1299970     0.0738820
  C        2.0012720     0.4634390     0.3560030
  C        1.7579830    -0.9743980    -0.1079500
  C       -1.6233710     0.5871250     0.2278630
  H       -0.5227930     0.1057830    -1.5165510
  H        0.4809950     2.0448300     0.4733970
  H        1.0672970     1.7363810    -1.1533330
  H       -0.1801860    -1.9933440    -0.4418670
  H        0.0160370    -1.2410800     1.1417000
  H        1.9865248     0.4945768     1.4719205
  H        2.9643500     0.8718720     0.0334030
  H        2.0194460    -1.0766330    -1.1687710
  H        2.3431410    -1.7133200     0.4495090
  H       -1.9840770     1.5507320    -0.1638540
  H       -1.4499160     0.7092340     1.3093790
  H       -3.3958760    -0.2202110     0.4192690
units angstrom
no_reorient  #important for SAPT in psi4, default
symmetry c1  #important for SAPT in psi4, default
}

set PROPERTIES_ORIGIN ["COM"]
properties('MP2/aug-cc-pvtz', properties = ['dipole'])
--------------------------------------------------------------------------

    Molecular point group: c1
  Charge       = 0
  Multiplicity = 1
  Basis Set: AUG-CC-PVTZ
    Blend: AUG-CC-PVTZ
  Basis Set: (AUG-CC-PVTZ AUX)
    Blend: AUG-CC-PVTZ-JKFIT

    Orbital Energies [Eh]
    ---------------------

    Doubly Occupied:

       1A    -20.556188     2A    -11.271442     3A    -11.216920
       4A    -11.216108     5A    -11.215346     6A    -11.211084
       7A    -11.206960     8A     -1.352866     9A     -1.121809
      10A     -0.996995    11A     -0.956386    12A     -0.873525
      13A     -0.776989    14A     -0.754161    15A     -0.687572
      16A     -0.650271    17A     -0.634498    18A     -0.619556
      19A     -0.569310    20A     -0.560747    21A     -0.523379
      22A     -0.474155    23A     -0.470438    24A     -0.462702
      25A     -0.459980    26A     -0.456405    27A     -0.448319
      28A     -0.432104

  @DF-RHF Final Energy:  -309.16153734827742

   => Energetics <=

    Nuclear Repulsion Energy =            324.8129978476874840
    One-Electron Energy =               -1063.5966458689501906
    Two-Electron Energy =                 429.6221106729852863
    Total Energy =                       -309.1615373482774203
  Basis Set: (AUG-CC-PVTZ AUX)
    Blend: AUG-CC-PVTZ-RI
    Molecular point group: c1

    Geometry (in Angstrom), charge = 0, multiplicity = 1:

       Center              X                  Y                   Z               Mass
    ------------   -----------------  -----------------  -----------------  -----------------
         O           -2.532537858285    -0.443437502513    -0.019255410312    15.994914619570
         C           -0.288920858285     0.214023497487    -0.434392410312    12.000000000000
         C            0.834202141715     1.261491497487    -0.201876410312    12.000000000000
         C            0.281161141715    -1.117453502513     0.081948589688    12.000000000000
         C            2.034305141715     0.475982497487     0.364069589688    12.000000000000
         C            1.791016141715    -0.961854502513    -0.099883410312    12.000000000000
         C           -1.590337858285     0.599668497487     0.235929589688    12.000000000000
         H           -0.489759858285     0.118326497487    -1.508484410312     1.007825032230
         H            0.514028141715     2.057373497487     0.481463589688     1.007825032230
         H            1.100330141715     1.748924497487    -1.145266410312     1.007825032230
         H           -0.147152858285    -1.980800502513    -0.433800410312     1.007825032230
         H            0.049070141715    -1.228536502513     1.149766589688     1.007825032230
         H            2.019557941715     0.507120297487     1.479987089688     1.007825032230
         H            2.997383141715     0.884415497487     0.041469589688     1.007825032230
         H            2.052479141715    -1.064089502513    -1.160704410312     1.007825032230
         H            2.376174141715    -1.700776502513     0.457575589688     1.007825032230
         H           -1.951043858285     1.563275497487    -0.155787410312     1.007825032230
         H           -1.416882858285     0.721777497487     1.317445589688     1.007825032230
         H           -3.362842858285    -0.207667502513     0.427335589688     1.007825032230

  Basis Set: AUG-CC-PVTZ
    Blend: AUG-CC-PVTZ
  Basis Set: (AUG-CC-PVTZ AUX)
    Blend: AUG-CC-PVTZ-JKFIT
	 Reference Energy          =    -309.1615373482774203 [Eh]
	 Singles Energy            =      -0.0000000000000000 [Eh]
	 Same-Spin Energy          =      -0.3223716725353321 [Eh]
	 Opposite-Spin Energy      =      -1.1095950620945954 [Eh]
	 Correlation Energy        =      -1.4319667346299274 [Eh]
	 Total Energy              =    -310.5935040829073728 [Eh]

	 ================> DF-SCS-MP2 Energies <==================
	-----------------------------------------------------------
	 SCS Same-Spin Scale       =       0.3333333333333333 [-]
	 SCS Opposite-Spin Scale   =       1.2000000000000000 [-]
	 SCS Same-Spin Energy      =      -0.1074572241784440 [Eh]
	 SCS Opposite-Spin Energy  =      -1.3315140745135143 [Eh]
	 SCS Correlation Energy    =      -1.4389712986919583 [Eh]
	 SCS Total Energy          =    -310.6005086469693879 [Eh]
	-----------------------------------------------------------

  Dipole Moment: [D]
     X:    -0.1991      Y:     1.1694      Z:     0.7318     Total:     1.3938

*** Psi4 exiting successfully. Buy a developer a beer!
