                               Psi4 1.4a3.dev225

  ==> Input File <==

--------------------------------------------------------------------------
#psi4
#
memory 32 gb

molecule  {
0 1
  O       -2.5655710    -0.4559810    -0.0273220
  C       -0.3219540     0.2014800    -0.4424590
  C        0.8011690     1.2489480    -0.2099430
  C        0.2481280    -1.1299970     0.0738820
  C        2.0095579     0.4697266     0.3314032
  C        1.7579830    -0.9743980    -0.1079500
  C       -1.6233710     0.5871250     0.2278630
  H       -0.5227930     0.1057830    -1.5165510
  H        0.4809950     2.0448300     0.4733970
  H        1.0672970     1.7363810    -1.1533330
  H       -0.1801860    -1.9933440    -0.4418670
  H        0.0160370    -1.2410800     1.1417000
  H        1.9867890     0.4940190     1.4519300
  H        2.9643500     0.8718720     0.0334030
  H        2.0194460    -1.0766330    -1.1687710
  H        2.3431410    -1.7133200     0.4495090
  H       -1.9840770     1.5507320    -0.1638540
  H       -1.4499160     0.7092340     1.3093790
  H       -3.3958760    -0.2202110     0.4192690
units angstrom
no_reorient  #important for SAPT in psi4, default
symmetry c1  #important for SAPT in psi4, default
}

set PROPERTIES_ORIGIN ["COM"]
properties('MP2/aug-cc-pvtz', properties = ['dipole'])
--------------------------------------------------------------------------

    Molecular point group: c1
  Charge       = 0
  Multiplicity = 1
  Basis Set: AUG-CC-PVTZ
    Blend: AUG-CC-PVTZ
  Basis Set: (AUG-CC-PVTZ AUX)
    Blend: AUG-CC-PVTZ-JKFIT

    Orbital Energies [Eh]
    ---------------------

    Doubly Occupied:

       1A    -20.556291     2A    -11.271532     3A    -11.217117
       4A    -11.215247     5A    -11.213889     6A    -11.210954
       7A    -11.207125     8A     -1.352959     9A     -1.122136
      10A     -0.997408    11A     -0.957408    12A     -0.873871
      13A     -0.777288    14A     -0.754634    15A     -0.687649
      16A     -0.651435    17A     -0.634576    18A     -0.620565
      19A     -0.568679    20A     -0.560251    21A     -0.523614
      22A     -0.476161    23A     -0.472376    24A     -0.464685
      25A     -0.460568    26A     -0.453019    27A     -0.447399
      28A     -0.431673

  @DF-RHF Final Energy:  -309.16123551761291

   => Energetics <=

    Nuclear Repulsion Energy =            324.8866650675779510
    One-Electron Energy =               -1063.7347855030236587
    Two-Electron Energy =                 429.6868849178327991
    Total Energy =                       -309.1612355176129086
  Basis Set: (AUG-CC-PVTZ AUX)
    Blend: AUG-CC-PVTZ-RI
    Molecular point group: c1

    Geometry (in Angstrom), charge = 0, multiplicity = 1:

       Center              X                  Y                   Z               Mass
    ------------   -----------------  -----------------  -----------------  -----------------
         O           -2.533533944285    -0.444185728328    -0.016104763297    15.994914619570
         C           -0.289916944285     0.213275271672    -0.431241763297    12.000000000000
         C            0.833206055715     1.260743271672    -0.198725763297    12.000000000000
         C            0.280165055715    -1.118201728328     0.085099236703    12.000000000000
         C            2.041594955715     0.481521871672     0.342620436703    12.000000000000
         C            1.790020055715    -0.962602728328    -0.096732763297    12.000000000000
         C           -1.591333944285     0.598920271672     0.239080236703    12.000000000000
         H           -0.490755944285     0.117578271672    -1.505333763297     1.007825032230
         H            0.513032055715     2.056625271672     0.484614236703     1.007825032230
         H            1.099334055715     1.748176271672    -1.142115763297     1.007825032230
         H           -0.148148944285    -1.981548728328    -0.430649763297     1.007825032230
         H            0.048074055715    -1.229284728328     1.152917236703     1.007825032230
         H            2.018826055715     0.505814271672     1.463147236703     1.007825032230
         H            2.996387055715     0.883667271672     0.044620236703     1.007825032230
         H            2.051483055715    -1.064837728328    -1.157553763297     1.007825032230
         H            2.375178055715    -1.701524728328     0.460726236703     1.007825032230
         H           -1.952039944285     1.562527271672    -0.152636763297     1.007825032230
         H           -1.417878944285     0.721029271672     1.320596236703     1.007825032230
         H           -3.363838944285    -0.208415728328     0.430486236703     1.007825032230

  Basis Set: AUG-CC-PVTZ
    Blend: AUG-CC-PVTZ
  Basis Set: (AUG-CC-PVTZ AUX)
    Blend: AUG-CC-PVTZ-JKFIT
	 Reference Energy          =    -309.1612355176129086 [Eh]
	 Singles Energy            =      -0.0000000000000000 [Eh]
	 Same-Spin Energy          =      -0.3223888228512908 [Eh]
	 Opposite-Spin Energy      =      -1.1095235636151224 [Eh]
	 Correlation Energy        =      -1.4319123864664132 [Eh]
	 Total Energy              =    -310.5931479040793306 [Eh]

	 ================> DF-SCS-MP2 Energies <==================
	-----------------------------------------------------------
	 SCS Same-Spin Scale       =       0.3333333333333333 [-]
	 SCS Opposite-Spin Scale   =       1.2000000000000000 [-]
	 SCS Same-Spin Energy      =      -0.1074629409504303 [Eh]
	 SCS Opposite-Spin Energy  =      -1.3314282763381469 [Eh]
	 SCS Correlation Energy    =      -1.4388912172885771 [Eh]
	 SCS Total Energy          =    -310.6001267349014938 [Eh]
	-----------------------------------------------------------

  Dipole Moment: [D]
     X:    -0.1953      Y:     1.1733      Z:     0.7302     Total:     1.3956

*** Psi4 exiting successfully. Buy a developer a beer!
