                               Psi4 1.4a3.dev225

  ==> Input File <==

--------------------------------------------------------------------------
#psi4
#
memory 32 gb

molecule  {
0 1
  O       -2.5655710    -0.4559810    -0.0273220
  C       -0.3219540     0.2014800    -0.4424590
  C        0.7867076     1.2354608    -0.2129369
  C        0.2481280    -1.1299970     0.0738820
  C        2.0012720     0.4634390     0.3560030
  C        1.7579830    -0.9743980    -0.1079500
  C       -1.6233710     0.5871250     0.2278630
  H       -0.5227930     0.1057830    -1.5165510
  H        0.4809950     2.0448300     0.4733970
  H        1.0672970     1.7363810    -1.1533330
  H       -0.1801860    -1.9933440    -0.4418670
  H        0.0160370    -1.2410800     1.1417000
  H        1.9867890     0.4940190     1.4519300
  H        2.9643500     0.8718720     0.0334030
  H        2.0194460    -1.0766330    -1.1687710
  H        2.3431410    -1.7133200     0.4495090
  H       -1.9840770     1.5507320    -0.1638540
  H       -1.4499160     0.7092340     1.3093790
  H       -3.3958760    -0.2202110     0.4192690
units angstrom
no_reorient  #important for SAPT in psi4, default
symmetry c1  #important for SAPT in psi4, default
}

set PROPERTIES_ORIGIN ["COM"]
properties('MP2/aug-cc-pvtz', properties = ['dipole'])
--------------------------------------------------------------------------

    Molecular point group: c1
  Charge       = 0
  Multiplicity = 1
  Basis Set: AUG-CC-PVTZ
    Blend: AUG-CC-PVTZ
  Basis Set: (AUG-CC-PVTZ AUX)
    Blend: AUG-CC-PVTZ-JKFIT

    Orbital Energies [Eh]
    ---------------------

    Doubly Occupied:

       1A    -20.556246     2A    -11.271577     3A    -11.216265
       4A    -11.215663     5A    -11.213641     6A    -11.210717
       7A    -11.207024     8A     -1.352950     9A     -1.123578
      10A     -0.998191    11A     -0.955534    12A     -0.874445
      13A     -0.778577    14A     -0.753741    15A     -0.687792
      16A     -0.650797    17A     -0.635190    18A     -0.619726
      19A     -0.568266    20A     -0.561364    21A     -0.523506
      22A     -0.473903    23A     -0.471071    24A     -0.466068
      25A     -0.458410    26A     -0.457316    27A     -0.447351
      28A     -0.431882

  @DF-RHF Final Energy:  -309.16150930941831

   => Energetics <=

    Nuclear Repulsion Energy =            325.1616421363015661
    One-Electron Energy =               -1064.2847264868989896
    Two-Electron Energy =                 429.9615750411791169
    Total Energy =                       -309.1615093094183067
  Basis Set: (AUG-CC-PVTZ AUX)
    Blend: AUG-CC-PVTZ-RI
    Molecular point group: c1

    Geometry (in Angstrom), charge = 0, multiplicity = 1:

       Center              X                  Y                   Z               Mass
    ------------   -----------------  -----------------  -----------------  -----------------
         O           -2.530806690495    -0.441814858017    -0.018695170626    15.994914619570
         C           -0.287189690495     0.215646141983    -0.433832170626    12.000000000000
         C            0.821471909505     1.249626941983    -0.204310070626    12.000000000000
         C            0.282892309505    -1.115830858017     0.082508829374    12.000000000000
         C            2.036036309505     0.477605141983     0.364629829374    12.000000000000
         C            1.792747309505    -0.960231858017    -0.099323170626    12.000000000000
         C           -1.588606690495     0.601291141983     0.236489829374    12.000000000000
         H           -0.488028690495     0.119949141983    -1.507924170626     1.007825032230
         H            0.515759309505     2.058996141983     0.482023829374     1.007825032230
         H            1.102061309505     1.750547141983    -1.144706170626     1.007825032230
         H           -0.145421690495    -1.979177858017    -0.433240170626     1.007825032230
         H            0.050801309505    -1.226913858017     1.150326829374     1.007825032230
         H            2.021553309505     0.508185141983     1.460556829374     1.007825032230
         H            2.999114309505     0.886038141983     0.042029829374     1.007825032230
         H            2.054210309505    -1.062466858017    -1.160144170626     1.007825032230
         H            2.377905309505    -1.699153858017     0.458135829374     1.007825032230
         H           -1.949312690495     1.564898141983    -0.155227170626     1.007825032230
         H           -1.415151690495     0.723400141983     1.318005829374     1.007825032230
         H           -3.361111690495    -0.206044858017     0.427895829374     1.007825032230

  Basis Set: AUG-CC-PVTZ
    Blend: AUG-CC-PVTZ
  Basis Set: (AUG-CC-PVTZ AUX)
    Blend: AUG-CC-PVTZ-JKFIT
	 Reference Energy          =    -309.1615093094183067 [Eh]
	 Singles Energy            =      -0.0000000000000000 [Eh]
	 Same-Spin Energy          =      -0.3224825076157060 [Eh]
	 Opposite-Spin Energy      =      -1.1095792770171968 [Eh]
	 Correlation Energy        =      -1.4320617846329029 [Eh]
	 Total Energy              =    -310.5935710940511854 [Eh]

	 ================> DF-SCS-MP2 Energies <==================
	-----------------------------------------------------------
	 SCS Same-Spin Scale       =       0.3333333333333333 [-]
	 SCS Opposite-Spin Scale   =       1.2000000000000000 [-]
	 SCS Same-Spin Energy      =      -0.1074941692052353 [Eh]
	 SCS Opposite-Spin Energy  =      -1.3314951324206361 [Eh]
	 SCS Correlation Energy    =      -1.4389893016258715 [Eh]
	 SCS Total Energy          =    -310.6004986110442019 [Eh]
	-----------------------------------------------------------

  Dipole Moment: [D]
     X:    -0.1970      Y:     1.1669      Z:     0.7467     Total:     1.3993

*** Psi4 exiting successfully. Buy a developer a beer!
