                               Psi4 1.4a3.dev225

  ==> Input File <==

--------------------------------------------------------------------------
#psi4
#
memory 32 gb

molecule  {
0 1
  O       -2.5655710    -0.4559810    -0.0273220
  C       -0.2885726     0.1629802    -0.4239416
  C        0.8011690     1.2489480    -0.2099430
  C        0.2481280    -1.1299970     0.0738820
  C        2.0012720     0.4634390     0.3560030
  C        1.7579830    -0.9743980    -0.1079500
  C       -1.6233710     0.5871250     0.2278630
  H       -0.5227930     0.1057830    -1.5165510
  H        0.4809950     2.0448300     0.4733970
  H        1.0672970     1.7363810    -1.1533330
  H       -0.1801860    -1.9933440    -0.4418670
  H        0.0160370    -1.2410800     1.1417000
  H        1.9867890     0.4940190     1.4519300
  H        2.9643500     0.8718720     0.0334030
  H        2.0194460    -1.0766330    -1.1687710
  H        2.3431410    -1.7133200     0.4495090
  H       -1.9840770     1.5507320    -0.1638540
  H       -1.4499160     0.7092340     1.3093790
  H       -3.3958760    -0.2202110     0.4192690
units angstrom
no_reorient  #important for SAPT in psi4, default
symmetry c1  #important for SAPT in psi4, default
}

set PROPERTIES_ORIGIN ["COM"]
properties('MP2/aug-cc-pvtz', properties = ['dipole'])
--------------------------------------------------------------------------

    Molecular point group: c1
  Charge       = 0
  Multiplicity = 1
  Basis Set: AUG-CC-PVTZ
    Blend: AUG-CC-PVTZ
  Basis Set: (AUG-CC-PVTZ AUX)
    Blend: AUG-CC-PVTZ-JKFIT

    Orbital Energies [Eh]
    ---------------------

    Doubly Occupied:

       1A    -20.555747     2A    -11.272385     3A    -11.217976
       4A    -11.215005     5A    -11.213038     6A    -11.211153
       7A    -11.205035     8A     -1.352100     9A     -1.127002
      10A     -0.992796    11A     -0.960056    12A     -0.874078
      13A     -0.779798    14A     -0.751021    15A     -0.687960
      16A     -0.650528    17A     -0.635510    18A     -0.620367
      19A     -0.569184    20A     -0.559661    21A     -0.525356
      22A     -0.480031    23A     -0.471673    24A     -0.464821
      25A     -0.459019    26A     -0.453726    27A     -0.442427
      28A     -0.432700

  @DF-RHF Final Energy:  -309.15856128937634

   => Energetics <=

    Nuclear Repulsion Energy =            325.2620359053691459
    One-Electron Energy =               -1064.4808887218273412
    Two-Electron Energy =                 430.0602915270818016
    Total Energy =                       -309.1585612893763368
  Basis Set: (AUG-CC-PVTZ AUX)
    Blend: AUG-CC-PVTZ-RI
    Molecular point group: c1

    Geometry (in Angstrom), charge = 0, multiplicity = 1:

       Center              X                  Y                   Z               Mass
    ------------   -----------------  -----------------  -----------------  -----------------
         O           -2.536542732029    -0.438816009444    -0.021274236029    15.994914619570
         C           -0.259544332029     0.180145190556    -0.417893836029    12.000000000000
         C            0.830197267971     1.266112990556    -0.203895236029    12.000000000000
         C            0.277156267971    -1.112832009444     0.079929763971    12.000000000000
         C            2.030300267971     0.480603990556     0.362050763971    12.000000000000
         C            1.787011267971    -0.957233009444    -0.101902236029    12.000000000000
         C           -1.594342732029     0.604289990556     0.233910763971    12.000000000000
         H           -0.493764732029     0.122947990556    -1.510503236029     1.007825032230
         H            0.510023267971     2.061994990556     0.479444763971     1.007825032230
         H            1.096325267971     1.753545990556    -1.147285236029     1.007825032230
         H           -0.151157732029    -1.976179009444    -0.435819236029     1.007825032230
         H            0.045065267971    -1.223915009444     1.147747763971     1.007825032230
         H            2.015817267971     0.511183990556     1.457977763971     1.007825032230
         H            2.993378267971     0.889036990556     0.039450763971     1.007825032230
         H            2.048474267971    -1.059468009444    -1.162723236029     1.007825032230
         H            2.372169267971    -1.696155009444     0.455556763971     1.007825032230
         H           -1.955048732029     1.567896990556    -0.157806236029     1.007825032230
         H           -1.420887732029     0.726398990556     1.315426763971     1.007825032230
         H           -3.366847732029    -0.203046009444     0.425316763971     1.007825032230

  Basis Set: AUG-CC-PVTZ
    Blend: AUG-CC-PVTZ
  Basis Set: (AUG-CC-PVTZ AUX)
    Blend: AUG-CC-PVTZ-JKFIT
	 Reference Energy          =    -309.1585612893763368 [Eh]
	 Singles Energy            =      -0.0000000000000000 [Eh]
	 Same-Spin Energy          =      -0.3226755488628518 [Eh]
	 Opposite-Spin Energy      =      -1.1098381733792528 [Eh]
	 Correlation Energy        =      -1.4325137222421045 [Eh]
	 Total Energy              =    -310.5910750116184431 [Eh]

	 ================> DF-SCS-MP2 Energies <==================
	-----------------------------------------------------------
	 SCS Same-Spin Scale       =       0.3333333333333333 [-]
	 SCS Opposite-Spin Scale   =       1.2000000000000000 [-]
	 SCS Same-Spin Energy      =      -0.1075585162876173 [Eh]
	 SCS Opposite-Spin Energy  =      -1.3318058080551034 [Eh]
	 SCS Correlation Energy    =      -1.4393643243427205 [Eh]
	 SCS Total Energy          =    -310.5979256137190418 [Eh]
	-----------------------------------------------------------

  Dipole Moment: [D]
     X:    -0.1957      Y:     1.1594      Z:     0.7526     Total:     1.3960

*** Psi4 exiting successfully. Buy a developer a beer!
