                               Psi4 1.3.2 release

  ==> Input File <==

--------------------------------------------------------------------------
#psi4
#
memory 32 gb

molecule  {
0 1
  C        0.3190000     0.8067150     0.0000000
  C       -0.8580000    -0.1272850     0.0000000
  C        0.5390000    -0.6792850     0.0000000
  H        0.5379163     1.3600866    -0.9058413
  H        0.5379163     1.3600866     0.9058413
  H       -1.4390000    -0.2132850     0.9110000
  H       -1.4390000    -0.2132850    -0.9110000
  H        0.9040000    -1.1402850    -0.9110000
  H        0.9040000    -1.1402850     0.9110000
units angstrom
no_reorient  #important for SAPT in psi4, default
symmetry c1  #important for SAPT in psi4, default
}

set PROPERTIES_ORIGIN ["COM"]
properties('MP2/aug-cc-pvtz', properties = ['dipole'])
--------------------------------------------------------------------------

    Molecular point group: c1
  Charge       = 0
  Multiplicity = 1
  Basis Set: AUG-CC-PVTZ
    Blend: AUG-CC-PVTZ
  Basis Set: (AUG-CC-PVTZ AUX)
    Blend: AUG-CC-PVTZ-JKFIT

    Orbital Energies [Eh]
    ---------------------

    Doubly Occupied:

       1A    -11.223390     2A    -11.222428     3A    -11.222248
       4A     -1.131782     5A     -0.817359     6A     -0.816792
       7A     -0.666243     8A     -0.627901     9A     -0.510742
      10A     -0.509751    11A     -0.420239    12A     -0.419549

  @DF-RHF Final Energy:  -117.10163019688393

   => Energetics <=

    Nuclear Repulsion Energy =             75.8627564982609925
    One-Electron Energy =                -306.7519243734767542
    Two-Electron Energy =                 113.7875376783318444
    Total Energy =                       -117.1016301968839315
  Basis Set: (AUG-CC-PVTZ AUX)
    Blend: AUG-CC-PVTZ-RI
    Molecular point group: c1

    Geometry (in Angstrom), charge = 0, multiplicity = 1:

       Center              X                  Y                   Z               Mass
    ------------   -----------------  -----------------  -----------------  -----------------
         C            0.318860198177     0.806361224396     0.000000000000    12.000000000000
         C           -0.858139801823    -0.127638775604     0.000000000000    12.000000000000
         C            0.538860198177    -0.679638775604     0.000000000000    12.000000000000
         H            0.537776498177     1.359732824396    -0.905841300000     1.007825032230
         H            0.537776498177     1.359732824396     0.905841300000     1.007825032230
         H           -1.439139801823    -0.213638775604     0.911000000000     1.007825032230
         H           -1.439139801823    -0.213638775604    -0.911000000000     1.007825032230
         H            0.903860198177    -1.140638775604    -0.911000000000     1.007825032230
         H            0.903860198177    -1.140638775604     0.911000000000     1.007825032230

  Basis Set: AUG-CC-PVTZ
    Blend: AUG-CC-PVTZ
  Basis Set: (AUG-CC-PVTZ AUX)
    Blend: AUG-CC-PVTZ-JKFIT
	 Reference Energy          =    -117.1016301968839315 [Eh]
	 Singles Energy            =      -0.0000000000000000 [Eh]
	 Same-Spin Energy          =      -0.1241809649965067 [Eh]
	 Opposite-Spin Energy      =      -0.4546287402626668 [Eh]
	 Correlation Energy        =      -0.5788097052591735 [Eh]
	 Total Energy              =    -117.6804399021431067 [Eh]

	 ================> DF-SCS-MP2 Energies <==================
	-----------------------------------------------------------
	 SCS Same-Spin Scale       =       0.3333333333333333 [-]
	 SCS Opposite-Spin Scale   =       1.2000000000000000 [-]
	 SCS Same-Spin Energy      =      -0.0413936549988356 [Eh]
	 SCS Opposite-Spin Energy  =      -0.5455544883152001 [Eh]
	 SCS Correlation Energy    =      -0.5869481433140357 [Eh]
	 SCS Total Energy          =    -117.6885783401979637 [Eh]
	-----------------------------------------------------------

  Dipole Moment: [D]
     X:    -0.0000      Y:    -0.0003      Z:     0.0000     Total:     0.0003

*** Psi4 exiting successfully. Buy a developer a beer!
