                               Psi4 1.3.2 release

  ==> Input File <==

--------------------------------------------------------------------------
#psi4
#
memory 32 gb

molecule  {
0 1
  C        0.3190000     0.8067150     0.0000000
  C       -0.9363330    -0.1894456     0.0000000
  C        0.5390000    -0.6792850     0.0000000
  H        0.5350000     1.3527150    -0.9110000
  H        0.5350000     1.3527150     0.9110000
  H       -1.4390000    -0.2132850     0.9110000
  H       -1.4390000    -0.2132850    -0.9110000
  H        0.9040000    -1.1402850    -0.9110000
  H        0.9040000    -1.1402850     0.9110000
units angstrom
no_reorient  #important for SAPT in psi4, default
symmetry c1  #important for SAPT in psi4, default
}

set PROPERTIES_ORIGIN ["COM"]
properties('MP2/aug-cc-pvtz', properties = ['dipole'])
--------------------------------------------------------------------------

    Molecular point group: c1
  Charge       = 0
  Multiplicity = 1
  Basis Set: AUG-CC-PVTZ
    Blend: AUG-CC-PVTZ
  Basis Set: (AUG-CC-PVTZ AUX)
    Blend: AUG-CC-PVTZ-JKFIT

    Orbital Energies [Eh]
    ---------------------

    Doubly Occupied:

       1A    -11.229480     2A    -11.227433     3A    -11.222587
       4A     -1.108306     5A     -0.831557     6A     -0.812573
       7A     -0.668243     8A     -0.612704     9A     -0.537924
      10A     -0.511072    11A     -0.426498    12A     -0.391178

  @DF-RHF Final Energy:  -117.09274668733212

   => Energetics <=

    Nuclear Repulsion Energy =             74.7434441752232743
    One-Electron Energy =                -304.5132725339249191
    Two-Electron Energy =                 112.6770816713695353
    Total Energy =                       -117.0927466873321237
  Basis Set: (AUG-CC-PVTZ AUX)
    Blend: AUG-CC-PVTZ-RI
    Molecular point group: c1

    Geometry (in Angstrom), charge = 0, multiplicity = 1:

       Center              X                  Y                   Z               Mass
    ------------   -----------------  -----------------  -----------------  -----------------
         C            0.341355866375     0.824454944928     0.000000000000    12.000000000000
         C           -0.913977133625    -0.171705655072     0.000000000000    12.000000000000
         C            0.561355866375    -0.661545055072     0.000000000000    12.000000000000
         H            0.557355866375     1.370454944928    -0.911000000000     1.007825032230
         H            0.557355866375     1.370454944928     0.911000000000     1.007825032230
         H           -1.416644133625    -0.195545055072     0.911000000000     1.007825032230
         H           -1.416644133625    -0.195545055072    -0.911000000000     1.007825032230
         H            0.926355866375    -1.122545055072    -0.911000000000     1.007825032230
         H            0.926355866375    -1.122545055072     0.911000000000     1.007825032230

  Basis Set: AUG-CC-PVTZ
    Blend: AUG-CC-PVTZ
  Basis Set: (AUG-CC-PVTZ AUX)
    Blend: AUG-CC-PVTZ-JKFIT
	 Reference Energy          =    -117.0927466873321237 [Eh]
	 Singles Energy            =      -0.0000000000000000 [Eh]
	 Same-Spin Energy          =      -0.1241023496232088 [Eh]
	 Opposite-Spin Energy      =      -0.4558190751733517 [Eh]
	 Correlation Energy        =      -0.5799214247965605 [Eh]
	 Total Energy              =    -117.6726681121286902 [Eh]

	 ================> DF-SCS-MP2 Energies <==================
	-----------------------------------------------------------
	 SCS Same-Spin Scale       =       0.3333333333333333 [-]
	 SCS Opposite-Spin Scale   =       1.2000000000000000 [-]
	 SCS Same-Spin Energy      =      -0.0413674498744029 [Eh]
	 SCS Opposite-Spin Energy  =      -0.5469828902080220 [Eh]
	 SCS Correlation Energy    =      -0.5883503400824249 [Eh]
	 SCS Total Energy          =    -117.6810970274145518 [Eh]
	-----------------------------------------------------------

  Dipole Moment: [D]
     X:     0.0983      Y:     0.0007      Z:     0.0000     Total:     0.0983

*** Psi4 exiting successfully. Buy a developer a beer!
