                               Psi4 1.3.2 release

  ==> Input File <==

--------------------------------------------------------------------------
#psi4
#
memory 32 gb

molecule  {
0 1
  C        0.3190000     0.8067150     0.0000000
  C       -0.8580000    -0.1272850     0.0000000
  C        0.5390000    -0.6792850     0.0000000
  H        0.4951414     1.2519614    -0.7428929
  H        0.5350000     1.3527150     0.9110000
  H       -1.4390000    -0.2132850     0.9110000
  H       -1.4390000    -0.2132850    -0.9110000
  H        0.9040000    -1.1402850    -0.9110000
  H        0.9040000    -1.1402850     0.9110000
units angstrom
no_reorient  #important for SAPT in psi4, default
symmetry c1  #important for SAPT in psi4, default
}

set PROPERTIES_ORIGIN ["COM"]
properties('MP2/aug-cc-pvtz', properties = ['dipole'])
--------------------------------------------------------------------------

    Molecular point group: c1
  Charge       = 0
  Multiplicity = 1
  Basis Set: AUG-CC-PVTZ
    Blend: AUG-CC-PVTZ
  Basis Set: (AUG-CC-PVTZ AUX)
    Blend: AUG-CC-PVTZ-JKFIT

    Orbital Energies [Eh]
    ---------------------

    Doubly Occupied:

       1A    -11.221901     2A    -11.221198     3A    -11.198578
       4A     -1.136170     5A     -0.850876     6A     -0.815806
       7A     -0.678941     8A     -0.632404     9A     -0.529157
      10A     -0.509967    11A     -0.420568    12A     -0.418524

  @DF-RHF Final Energy:  -117.06552151985684

   => Energetics <=

    Nuclear Repulsion Energy =             76.8191982841277508
    One-Electron Energy =                -308.5012572451629467
    Two-Electron Energy =                 114.6165374411783375
    Total Energy =                       -117.0655215198568442
  Basis Set: (AUG-CC-PVTZ AUX)
    Blend: AUG-CC-PVTZ-RI
    Molecular point group: c1

    Geometry (in Angstrom), charge = 0, multiplicity = 1:

       Center              X                  Y                   Z               Mass
    ------------   -----------------  -----------------  -----------------  -----------------
         C            0.319955372379     0.809129571818    -0.004029365809    12.000000000000
         C           -0.857044627621    -0.124870428182    -0.004029365809    12.000000000000
         C            0.539955372379    -0.676870428182    -0.004029365809    12.000000000000
         H            0.496096772379     1.254375971818    -0.746922265809     1.007825032230
         H            0.535955372379     1.355129571818     0.906970634191     1.007825032230
         H           -1.438044627621    -0.210870428182     0.906970634191     1.007825032230
         H           -1.438044627621    -0.210870428182    -0.915029365809     1.007825032230
         H            0.904955372379    -1.137870428182    -0.915029365809     1.007825032230
         H            0.904955372379    -1.137870428182     0.906970634191     1.007825032230

  Basis Set: AUG-CC-PVTZ
    Blend: AUG-CC-PVTZ
  Basis Set: (AUG-CC-PVTZ AUX)
    Blend: AUG-CC-PVTZ-JKFIT
	 Reference Energy          =    -117.0655215198568442 [Eh]
	 Singles Energy            =      -0.0000000000000000 [Eh]
	 Same-Spin Energy          =      -0.1243519516652615 [Eh]
	 Opposite-Spin Energy      =      -0.4545033635016897 [Eh]
	 Correlation Energy        =      -0.5788553151669512 [Eh]
	 Total Energy              =    -117.6443768350237917 [Eh]

	 ================> DF-SCS-MP2 Energies <==================
	-----------------------------------------------------------
	 SCS Same-Spin Scale       =       0.3333333333333333 [-]
	 SCS Opposite-Spin Scale   =       1.2000000000000000 [-]
	 SCS Same-Spin Energy      =      -0.0414506505550871 [Eh]
	 SCS Opposite-Spin Energy  =      -0.5454040362020277 [Eh]
	 SCS Correlation Energy    =      -0.5868546867571148 [Eh]
	 SCS Total Energy          =    -117.6523762066139653 [Eh]
	-----------------------------------------------------------

  Dipole Moment: [D]
     X:     0.0170      Y:     0.0428      Z:    -0.0247     Total:     0.0522

*** Psi4 exiting successfully. Buy a developer a beer!
