                               Psi4 1.3.2 release

  ==> Input File <==

--------------------------------------------------------------------------
#psi4
#
memory 32 gb

molecule  {
0 1
  C        0.3282875     0.7935386     0.0499076
  C       -0.8580000    -0.1272850     0.0000000
  C        0.5390000    -0.6792850     0.0000000
  H        0.5350000     1.3527150    -0.9110000
  H        0.5350000     1.3527150     0.9110000
  H       -1.4390000    -0.2132850     0.9110000
  H       -1.4614276    -0.2382651    -0.8935528
  H        0.9040000    -1.1402850    -0.9110000
  H        0.9040000    -1.1402850     0.9110000
units angstrom
no_reorient  #important for SAPT in psi4, default
symmetry c1  #important for SAPT in psi4, default
}

set PROPERTIES_ORIGIN ["COM"]
properties('MP2/aug-cc-pvtz', properties = ['dipole'])
--------------------------------------------------------------------------

    Molecular point group: c1
  Charge       = 0
  Multiplicity = 1
  Basis Set: AUG-CC-PVTZ
    Blend: AUG-CC-PVTZ
  Basis Set: (AUG-CC-PVTZ AUX)
    Blend: AUG-CC-PVTZ-JKFIT

    Orbital Energies [Eh]
    ---------------------

    Doubly Occupied:

       1A    -11.223886     2A    -11.222521     3A    -11.221807
       4A     -1.134317     5A     -0.818487     6A     -0.816657
       7A     -0.665717     8A     -0.630937     9A     -0.509573
      10A     -0.506774    11A     -0.424960    12A     -0.416311

  @DF-RHF Final Energy:  -117.09809475564286

   => Energetics <=

    Nuclear Repulsion Energy =             75.9667501703050334
    One-Electron Energy =                -306.9457952941692156
    Two-Electron Energy =                 113.8809503682213204
    Total Energy =                       -117.0980947556428617
  Basis Set: (AUG-CC-PVTZ AUX)
    Blend: AUG-CC-PVTZ-RI
    Molecular point group: c1

    Geometry (in Angstrom), charge = 0, multiplicity = 1:

       Center              X                  Y                   Z               Mass
    ------------   -----------------  -----------------  -----------------  -----------------
         C            0.326174459627     0.797897435779     0.035246015222    12.000000000000
         C           -0.860113040373    -0.122926164221    -0.014661584778    12.000000000000
         C            0.536886959627    -0.674926164221    -0.014661584778    12.000000000000
         H            0.532886959627     1.357073835779    -0.925661584778     1.007825032230
         H            0.532886959627     1.357073835779     0.896338415222     1.007825032230
         H           -1.441113040373    -0.208926164221     0.896338415222     1.007825032230
         H           -1.463540640373    -0.233906264221    -0.908214384778     1.007825032230
         H            0.901886959627    -1.135926164221    -0.925661584778     1.007825032230
         H            0.901886959627    -1.135926164221     0.896338415222     1.007825032230

  Basis Set: AUG-CC-PVTZ
    Blend: AUG-CC-PVTZ
  Basis Set: (AUG-CC-PVTZ AUX)
    Blend: AUG-CC-PVTZ-JKFIT
	 Reference Energy          =    -117.0980947556428617 [Eh]
	 Singles Energy            =      -0.0000000000000000 [Eh]
	 Same-Spin Energy          =      -0.1242533691215699 [Eh]
	 Opposite-Spin Energy      =      -0.4547378514840479 [Eh]
	 Correlation Energy        =      -0.5789912206056178 [Eh]
	 Total Energy              =    -117.6770859762484776 [Eh]

	 ================> DF-SCS-MP2 Energies <==================
	-----------------------------------------------------------
	 SCS Same-Spin Scale       =       0.3333333333333333 [-]
	 SCS Opposite-Spin Scale   =       1.2000000000000000 [-]
	 SCS Same-Spin Energy      =      -0.0414177897071900 [Eh]
	 SCS Opposite-Spin Energy  =      -0.5456854217808574 [Eh]
	 SCS Correlation Energy    =      -0.5871032114880474 [Eh]
	 SCS Total Energy          =    -117.6851979671309039 [Eh]
	-----------------------------------------------------------

  Dipole Moment: [D]
     X:     0.0077      Y:    -0.0117      Z:     0.0209     Total:     0.0251

*** Psi4 exiting successfully. Buy a developer a beer!
