                               Psi4 1.3.2 release

  ==> Input File <==

--------------------------------------------------------------------------
#psi4
#
memory 32 gb

molecule  {
0 1
  C        0.3662687     0.7438356     0.0000000
  C       -0.8580000    -0.1272850     0.0000000
  C        0.5659749    -0.6054152     0.0000000
  H        0.5350000     1.3527150    -0.9110000
  H        0.5350000     1.3527150     0.9110000
  H       -1.4390000    -0.2132850     0.9110000
  H       -1.4390000    -0.2132850    -0.9110000
  H        0.9040000    -1.1402850    -0.9110000
  H        0.9040000    -1.1402850     0.9110000
units angstrom
no_reorient  #important for SAPT in psi4, default
symmetry c1  #important for SAPT in psi4, default
}

set PROPERTIES_ORIGIN ["COM"]
properties('MP2/aug-cc-pvtz', properties = ['dipole'])
--------------------------------------------------------------------------

    Molecular point group: c1
  Charge       = 0
  Multiplicity = 1
  Basis Set: AUG-CC-PVTZ
    Blend: AUG-CC-PVTZ
  Basis Set: (AUG-CC-PVTZ AUX)
    Blend: AUG-CC-PVTZ-JKFIT

    Orbital Energies [Eh]
    ---------------------

    Doubly Occupied:

       1A    -11.223044     2A    -11.221688     3A    -11.215606
       4A     -1.160695     5A     -0.822196     6A     -0.803782
       7A     -0.668981     8A     -0.640351     9A     -0.508211
      10A     -0.485427    11A     -0.467435    12A     -0.393490

  @DF-RHF Final Energy:  -117.08639967698323

   => Energetics <=

    Nuclear Repulsion Energy =             77.0501361093296282
    One-Electron Energy =                -309.0512651020095518
    Two-Electron Energy =                 114.9147293156966896
    Total Energy =                       -117.0863996769832340
  Basis Set: (AUG-CC-PVTZ AUX)
    Blend: AUG-CC-PVTZ-RI
    Molecular point group: c1

    Geometry (in Angstrom), charge = 0, multiplicity = 1:

       Center              X                  Y                   Z               Mass
    ------------   -----------------  -----------------  -----------------  -----------------
         C            0.345079928974     0.740698596755     0.000000000000    12.000000000000
         C           -0.879188771026    -0.130422003245     0.000000000000    12.000000000000
         C            0.544786128974    -0.608552203245     0.000000000000    12.000000000000
         H            0.513811228974     1.349577996755    -0.911000000000     1.007825032230
         H            0.513811228974     1.349577996755     0.911000000000     1.007825032230
         H           -1.460188771026    -0.216422003245     0.911000000000     1.007825032230
         H           -1.460188771026    -0.216422003245    -0.911000000000     1.007825032230
         H            0.882811228974    -1.143422003245    -0.911000000000     1.007825032230
         H            0.882811228974    -1.143422003245     0.911000000000     1.007825032230

  Basis Set: AUG-CC-PVTZ
    Blend: AUG-CC-PVTZ
  Basis Set: (AUG-CC-PVTZ AUX)
    Blend: AUG-CC-PVTZ-JKFIT
	 Reference Energy          =    -117.0863996769832340 [Eh]
	 Singles Energy            =      -0.0000000000000000 [Eh]
	 Same-Spin Energy          =      -0.1249400486240076 [Eh]
	 Opposite-Spin Energy      =      -0.4548310821777654 [Eh]
	 Correlation Energy        =      -0.5797711308017730 [Eh]
	 Total Energy              =    -117.6661708077850079 [Eh]

	 ================> DF-SCS-MP2 Energies <==================
	-----------------------------------------------------------
	 SCS Same-Spin Scale       =       0.3333333333333333 [-]
	 SCS Opposite-Spin Scale   =       1.2000000000000000 [-]
	 SCS Same-Spin Energy      =      -0.0416466828746692 [Eh]
	 SCS Opposite-Spin Energy  =      -0.5457972986133185 [Eh]
	 SCS Correlation Energy    =      -0.5874439814879877 [Eh]
	 SCS Total Energy          =    -117.6738436584712275 [Eh]
	-----------------------------------------------------------

  Dipole Moment: [D]
     X:     0.1212      Y:     0.0177      Z:     0.0000     Total:     0.1225

*** Psi4 exiting successfully. Buy a developer a beer!
