                               Psi4 1.3.2 release

  ==> Input File <==

--------------------------------------------------------------------------
#psi4
#
memory 32 gb

molecule  {
0 1
  C        0.3190000     0.8067150     0.0000000
  C       -0.8580000    -0.1272850     0.0000000
  C        0.5390000    -0.6792850     0.0000000
  H        0.5291184     1.3378476    -0.9211088
  H        0.5291184     1.3378476     0.9211088
  H       -1.4390000    -0.2132850     0.9110000
  H       -1.4390000    -0.2132850    -0.9110000
  H        0.9040000    -1.1402850    -0.9110000
  H        0.9040000    -1.1402850     0.9110000
units angstrom
no_reorient  #important for SAPT in psi4, default
symmetry c1  #important for SAPT in psi4, default
}

set PROPERTIES_ORIGIN ["COM"]
properties('MP2/aug-cc-pvtz', properties = ['dipole'])
--------------------------------------------------------------------------

    Molecular point group: c1
  Charge       = 0
  Multiplicity = 1
  Basis Set: AUG-CC-PVTZ
    Blend: AUG-CC-PVTZ
  Basis Set: (AUG-CC-PVTZ AUX)
    Blend: AUG-CC-PVTZ-JKFIT

    Orbital Energies [Eh]
    ---------------------

    Doubly Occupied:

       1A    -11.223136     2A    -11.222159     3A    -11.221902
       4A     -1.132252     5A     -0.816611     6A     -0.815894
       7A     -0.668388     8A     -0.625570     9A     -0.512922
      10A     -0.510576    11A     -0.419591    12A     -0.418368

  @DF-RHF Final Energy:  -117.10151516165580

   => Energetics <=

    Nuclear Repulsion Energy =             75.9024327410351134
    One-Electron Energy =                -306.8331555540017916
    Two-Electron Energy =                 113.8292076513108810
    Total Energy =                       -117.1015151616557972
  Basis Set: (AUG-CC-PVTZ AUX)
    Blend: AUG-CC-PVTZ-RI
    Molecular point group: c1

    Geometry (in Angstrom), charge = 0, multiplicity = 1:

       Center              X                  Y                   Z               Mass
    ------------   -----------------  -----------------  -----------------  -----------------
         C            0.319281952612     0.807427319358     0.000000000000    12.000000000000
         C           -0.857718047388    -0.126572680642     0.000000000000    12.000000000000
         C            0.539281952612    -0.678572680642     0.000000000000    12.000000000000
         H            0.529400352612     1.338559919358    -0.921108800000     1.007825032230
         H            0.529400352612     1.338559919358     0.921108800000     1.007825032230
         H           -1.438718047388    -0.212572680642     0.911000000000     1.007825032230
         H           -1.438718047388    -0.212572680642    -0.911000000000     1.007825032230
         H            0.904281952612    -1.139572680642    -0.911000000000     1.007825032230
         H            0.904281952612    -1.139572680642     0.911000000000     1.007825032230

  Basis Set: AUG-CC-PVTZ
    Blend: AUG-CC-PVTZ
  Basis Set: (AUG-CC-PVTZ AUX)
    Blend: AUG-CC-PVTZ-JKFIT
	 Reference Energy          =    -117.1015151616557972 [Eh]
	 Singles Energy            =      -0.0000000000000000 [Eh]
	 Same-Spin Energy          =      -0.1242439177750720 [Eh]
	 Opposite-Spin Energy      =      -0.4547117712919940 [Eh]
	 Correlation Energy        =      -0.5789556890670660 [Eh]
	 Total Energy              =    -117.6804708507228696 [Eh]

	 ================> DF-SCS-MP2 Energies <==================
	-----------------------------------------------------------
	 SCS Same-Spin Scale       =       0.3333333333333333 [-]
	 SCS Opposite-Spin Scale   =       1.2000000000000000 [-]
	 SCS Same-Spin Energy      =      -0.0414146392583573 [Eh]
	 SCS Opposite-Spin Energy  =      -0.5456541255503927 [Eh]
	 SCS Correlation Energy    =      -0.5870687648087500 [Eh]
	 SCS Total Energy          =    -117.6885839264645455 [Eh]
	-----------------------------------------------------------

  Dipole Moment: [D]
     X:    -0.0003      Y:    -0.0011      Z:    -0.0000     Total:     0.0011

*** Psi4 exiting successfully. Buy a developer a beer!
