                               Psi4 1.3.2 release

  ==> Input File <==

--------------------------------------------------------------------------
#psi4
#
memory 32 gb

molecule  {
0 1
  C        0.2685052     0.8670344     0.0000000
  C       -0.8580000    -0.1272850     0.0000000
  C        0.5081960    -0.7516418     0.0000000
  H        0.5350000     1.3527150    -0.9110000
  H        0.5350000     1.3527150     0.9110000
  H       -1.4390000    -0.2132850     0.9110000
  H       -1.4390000    -0.2132850    -0.9110000
  H        0.9040000    -1.1402850    -0.9110000
  H        0.9040000    -1.1402850     0.9110000
units angstrom
no_reorient  #important for SAPT in psi4, default
symmetry c1  #important for SAPT in psi4, default
}

set PROPERTIES_ORIGIN ["COM"]
properties('MP2/aug-cc-pvtz', properties = ['dipole'])
--------------------------------------------------------------------------

    Molecular point group: c1
  Charge       = 0
  Multiplicity = 1
  Basis Set: AUG-CC-PVTZ
    Blend: AUG-CC-PVTZ
  Basis Set: (AUG-CC-PVTZ AUX)
    Blend: AUG-CC-PVTZ-JKFIT

    Orbital Energies [Eh]
    ---------------------

    Doubly Occupied:

       1A    -11.230000     2A    -11.224656     3A    -11.224281
       4A     -1.112270     5A     -0.828672     6A     -0.814521
       7A     -0.667280     8A     -0.615076     9A     -0.531194
      10A     -0.513834    11A     -0.444740    12A     -0.377075

  @DF-RHF Final Energy:  -117.09321974373005

   => Energetics <=

    Nuclear Repulsion Energy =             74.8930980649356002
    One-Electron Energy =                -304.8054357249323516
    Two-Electron Energy =                 112.8191179162667055
    Total Energy =                       -117.0932197437300459
  Basis Set: (AUG-CC-PVTZ AUX)
    Blend: AUG-CC-PVTZ-RI
    Molecular point group: c1

    Geometry (in Angstrom), charge = 0, multiplicity = 1:

       Center              X                  Y                   Z               Mass
    ------------   -----------------  -----------------  -----------------  -----------------
         C            0.291707491617     0.870469421569     0.000000000000    12.000000000000
         C           -0.834797708383    -0.123849978431     0.000000000000    12.000000000000
         C            0.531398291617    -0.748206778431     0.000000000000    12.000000000000
         H            0.558202291617     1.356150021569    -0.911000000000     1.007825032230
         H            0.558202291617     1.356150021569     0.911000000000     1.007825032230
         H           -1.415797708383    -0.209849978431     0.911000000000     1.007825032230
         H           -1.415797708383    -0.209849978431    -0.911000000000     1.007825032230
         H            0.927202291617    -1.136849978431    -0.911000000000     1.007825032230
         H            0.927202291617    -1.136849978431     0.911000000000     1.007825032230

  Basis Set: AUG-CC-PVTZ
    Blend: AUG-CC-PVTZ
  Basis Set: (AUG-CC-PVTZ AUX)
    Blend: AUG-CC-PVTZ-JKFIT
	 Reference Energy          =    -117.0932197437300459 [Eh]
	 Singles Energy            =      -0.0000000000000000 [Eh]
	 Same-Spin Energy          =      -0.1242479784135706 [Eh]
	 Opposite-Spin Energy      =      -0.4559005129079944 [Eh]
	 Correlation Energy        =      -0.5801484913215651 [Eh]
	 Total Energy              =    -117.6733682350516119 [Eh]

	 ================> DF-SCS-MP2 Energies <==================
	-----------------------------------------------------------
	 SCS Same-Spin Scale       =       0.3333333333333333 [-]
	 SCS Opposite-Spin Scale   =       1.2000000000000000 [-]
	 SCS Same-Spin Energy      =      -0.0414159928045235 [Eh]
	 SCS Opposite-Spin Energy  =      -0.5470806154895933 [Eh]
	 SCS Correlation Energy    =      -0.5884966082941169 [Eh]
	 SCS Total Energy          =    -117.6817163520241678 [Eh]
	-----------------------------------------------------------

  Dipole Moment: [D]
     X:    -0.0710      Y:    -0.0114      Z:     0.0000     Total:     0.0719

*** Psi4 exiting successfully. Buy a developer a beer!
