                               Psi4 1.3.2 release

  ==> Input File <==

--------------------------------------------------------------------------
#psi4
#
memory 32 gb

molecule  {
0 1
  C        0.3190000     0.8067150     0.0000000
  C       -0.8580000    -0.1272850     0.0000000
  C        0.5390000    -0.6792850     0.0000000
  H        0.5522430     1.3963016    -0.8790213
  H        0.5522430     1.3963016     0.8790213
  H       -1.4390000    -0.2132850     0.9110000
  H       -1.4390000    -0.2132850    -0.9110000
  H        0.9040000    -1.1402850    -0.9110000
  H        0.9040000    -1.1402850     0.9110000
units angstrom
no_reorient  #important for SAPT in psi4, default
symmetry c1  #important for SAPT in psi4, default
}

set PROPERTIES_ORIGIN ["COM"]
properties('MP2/aug-cc-pvtz', properties = ['dipole'])
--------------------------------------------------------------------------

    Molecular point group: c1
  Charge       = 0
  Multiplicity = 1
  Basis Set: AUG-CC-PVTZ
    Blend: AUG-CC-PVTZ
  Basis Set: (AUG-CC-PVTZ AUX)
    Blend: AUG-CC-PVTZ-JKFIT

    Orbital Energies [Eh]
    ---------------------

    Doubly Occupied:

       1A    -11.224146     2A    -11.223331     3A    -11.222134
       4A     -1.131106     5A     -0.819998     6A     -0.817131
       7A     -0.662914     8A     -0.631785     9A     -0.511027
      10A     -0.503723    11A     -0.423281    12A     -0.419535

  @DF-RHF Final Energy:  -117.10068396553503

   => Energetics <=

    Nuclear Repulsion Energy =             75.8008713921077373
    One-Electron Energy =                -306.6228858874381444
    Two-Electron Energy =                 113.7213305297953667
    Total Energy =                       -117.1006839655350262
  Basis Set: (AUG-CC-PVTZ AUX)
    Blend: AUG-CC-PVTZ-RI
    Molecular point group: c1

    Geometry (in Angstrom), charge = 0, multiplicity = 1:

       Center              X                  Y                   Z               Mass
    ------------   -----------------  -----------------  -----------------  -----------------
         C            0.318173403686     0.804625146827     0.000000000000    12.000000000000
         C           -0.858826596314    -0.129374853173     0.000000000000    12.000000000000
         C            0.538173403686    -0.681374853173     0.000000000000    12.000000000000
         H            0.551416403686     1.394211746827    -0.879021300000     1.007825032230
         H            0.551416403686     1.394211746827     0.879021300000     1.007825032230
         H           -1.439826596314    -0.215374853173     0.911000000000     1.007825032230
         H           -1.439826596314    -0.215374853173    -0.911000000000     1.007825032230
         H            0.903173403686    -1.142374853173    -0.911000000000     1.007825032230
         H            0.903173403686    -1.142374853173     0.911000000000     1.007825032230

  Basis Set: AUG-CC-PVTZ
    Blend: AUG-CC-PVTZ
  Basis Set: (AUG-CC-PVTZ AUX)
    Blend: AUG-CC-PVTZ-JKFIT
	 Reference Energy          =    -117.1006839655350262 [Eh]
	 Singles Energy            =      -0.0000000000000000 [Eh]
	 Same-Spin Energy          =      -0.1241243324368382 [Eh]
	 Opposite-Spin Energy      =      -0.4545720273196005 [Eh]
	 Correlation Energy        =      -0.5786963597564387 [Eh]
	 Total Energy              =    -117.6793803252914614 [Eh]

	 ================> DF-SCS-MP2 Energies <==================
	-----------------------------------------------------------
	 SCS Same-Spin Scale       =       0.3333333333333333 [-]
	 SCS Opposite-Spin Scale   =       1.2000000000000000 [-]
	 SCS Same-Spin Energy      =      -0.0413747774789461 [Eh]
	 SCS Opposite-Spin Energy  =      -0.5454864327835206 [Eh]
	 SCS Correlation Energy    =      -0.5868612102624666 [Eh]
	 SCS Total Energy          =    -117.6875451757974957 [Eh]
	-----------------------------------------------------------

  Dipole Moment: [D]
     X:     0.0003      Y:     0.0007      Z:     0.0000     Total:     0.0008

*** Psi4 exiting successfully. Buy a developer a beer!
