                               Psi4 1.3.2 release

  ==> Input File <==

--------------------------------------------------------------------------
#psi4
#
memory 32 gb

molecule  {
0 1
  C        0.3214568     0.8035270     0.0124793
  C       -0.8580000    -0.1272850     0.0000000
  C        0.5390000    -0.6792850     0.0000000
  H        0.5350000     1.3527150    -0.9110000
  H        0.5350000     1.3527150     0.9110000
  H       -1.4390000    -0.2132850     0.9110000
  H       -1.4446743    -0.2195410    -0.9067414
  H        0.9040000    -1.1402850    -0.9110000
  H        0.9040000    -1.1402850     0.9110000
units angstrom
no_reorient  #important for SAPT in psi4, default
symmetry c1  #important for SAPT in psi4, default
}

set PROPERTIES_ORIGIN ["COM"]
properties('MP2/aug-cc-pvtz', properties = ['dipole'])
--------------------------------------------------------------------------

    Molecular point group: c1
  Charge       = 0
  Multiplicity = 1
  Basis Set: AUG-CC-PVTZ
    Blend: AUG-CC-PVTZ
  Basis Set: (AUG-CC-PVTZ AUX)
    Blend: AUG-CC-PVTZ-JKFIT

    Orbital Energies [Eh]
    ---------------------

    Doubly Occupied:

       1A    -11.223288     2A    -11.222324     3A    -11.222097
       4A     -1.132492     5A     -0.817132     6A     -0.816561
       7A     -0.666656     8A     -0.627852     9A     -0.510324
      10A     -0.510064    11A     -0.421040    12A     -0.418843

  @DF-RHF Final Energy:  -117.10142084238039

   => Energetics <=

    Nuclear Repulsion Energy =             75.8978280864714350
    One-Electron Energy =                -306.8211538720724434
    Two-Electron Energy =                 113.8219049432206162
    Total Energy =                       -117.1014208423803922
  Basis Set: (AUG-CC-PVTZ AUX)
    Blend: AUG-CC-PVTZ-RI
    Molecular point group: c1

    Geometry (in Angstrom), charge = 0, multiplicity = 1:

       Center              X                  Y                   Z               Mass
    ------------   -----------------  -----------------  -----------------  -----------------
         C            0.320891648466     0.804586395129     0.008815692462    12.000000000000
         C           -0.858565151534    -0.126225604871    -0.003663607538    12.000000000000
         C            0.538434848466    -0.678225604871    -0.003663607538    12.000000000000
         H            0.534434848466     1.353774395129    -0.914663607538     1.007825032230
         H            0.534434848466     1.353774395129     0.907336392462     1.007825032230
         H           -1.439565151534    -0.212225604871     0.907336392462     1.007825032230
         H           -1.445239451534    -0.218481604871    -0.910405007538     1.007825032230
         H            0.903434848466    -1.139225604871    -0.914663607538     1.007825032230
         H            0.903434848466    -1.139225604871     0.907336392462     1.007825032230

  Basis Set: AUG-CC-PVTZ
    Blend: AUG-CC-PVTZ
  Basis Set: (AUG-CC-PVTZ AUX)
    Blend: AUG-CC-PVTZ-JKFIT
	 Reference Energy          =    -117.1014208423803922 [Eh]
	 Singles Energy            =      -0.0000000000000000 [Eh]
	 Same-Spin Energy          =      -0.1242025293235463 [Eh]
	 Opposite-Spin Energy      =      -0.4546385643089896 [Eh]
	 Correlation Energy        =      -0.5788410936325359 [Eh]
	 Total Energy              =    -117.6802619360129256 [Eh]

	 ================> DF-SCS-MP2 Energies <==================
	-----------------------------------------------------------
	 SCS Same-Spin Scale       =       0.3333333333333333 [-]
	 SCS Opposite-Spin Scale   =       1.2000000000000000 [-]
	 SCS Same-Spin Energy      =      -0.0414008431078488 [Eh]
	 SCS Opposite-Spin Energy  =      -0.5455662771707874 [Eh]
	 SCS Correlation Energy    =      -0.5869671202786362 [Eh]
	 SCS Total Energy          =    -117.6883879626590215 [Eh]
	-----------------------------------------------------------

  Dipole Moment: [D]
     X:     0.0023      Y:    -0.0020      Z:     0.0049     Total:     0.0058

*** Psi4 exiting successfully. Buy a developer a beer!
