                               Psi4 1.3.2 release

  ==> Input File <==

--------------------------------------------------------------------------
#psi4
#
memory 32 gb

molecule  {
0 1
  C        0.3190000     0.8067150     0.0000000
  C       -0.8580000    -0.1272850     0.0000000
  C        0.5390000    -0.6792850     0.0000000
  H        0.5231727     1.3228183    -0.9309371
  H        0.5231727     1.3228183     0.9309371
  H       -1.4390000    -0.2132850     0.9110000
  H       -1.4390000    -0.2132850    -0.9110000
  H        0.9040000    -1.1402850    -0.9110000
  H        0.9040000    -1.1402850     0.9110000
units angstrom
no_reorient  #important for SAPT in psi4, default
symmetry c1  #important for SAPT in psi4, default
}

set PROPERTIES_ORIGIN ["COM"]
properties('MP2/aug-cc-pvtz', properties = ['dipole'])
--------------------------------------------------------------------------

    Molecular point group: c1
  Charge       = 0
  Multiplicity = 1
  Basis Set: AUG-CC-PVTZ
    Blend: AUG-CC-PVTZ
  Basis Set: (AUG-CC-PVTZ AUX)
    Blend: AUG-CC-PVTZ-JKFIT

    Orbital Energies [Eh]
    ---------------------

    Doubly Occupied:

       1A    -11.223103     2A    -11.221978     3A    -11.221564
       4A     -1.132595     5A     -0.816493     6A     -0.814969
       7A     -0.669876     8A     -0.624016     9A     -0.514844
      10A     -0.510481    11A     -0.419620    12A     -0.417118

  @DF-RHF Final Energy:  -117.10115919894055

   => Energetics <=

    Nuclear Repulsion Energy =             75.9299501026815591
    One-Electron Energy =                -306.8889057356023500
    Two-Electron Energy =                 113.8577964339802264
    Total Energy =                       -117.1011591989405503
  Basis Set: (AUG-CC-PVTZ AUX)
    Blend: AUG-CC-PVTZ-RI
    Molecular point group: c1

    Geometry (in Angstrom), charge = 0, multiplicity = 1:

       Center              X                  Y                   Z               Mass
    ------------   -----------------  -----------------  -----------------  -----------------
         C            0.319566978054     0.808147795145     0.000000000000    12.000000000000
         C           -0.857433021946    -0.125852204855     0.000000000000    12.000000000000
         C            0.539566978054    -0.677852204855     0.000000000000    12.000000000000
         H            0.523739678054     1.324251095145    -0.930937100000     1.007825032230
         H            0.523739678054     1.324251095145     0.930937100000     1.007825032230
         H           -1.438433021946    -0.211852204855     0.911000000000     1.007825032230
         H           -1.438433021946    -0.211852204855    -0.911000000000     1.007825032230
         H            0.904566978054    -1.138852204855    -0.911000000000     1.007825032230
         H            0.904566978054    -1.138852204855     0.911000000000     1.007825032230

  Basis Set: AUG-CC-PVTZ
    Blend: AUG-CC-PVTZ
  Basis Set: (AUG-CC-PVTZ AUX)
    Blend: AUG-CC-PVTZ-JKFIT
	 Reference Energy          =    -117.1011591989405503 [Eh]
	 Singles Energy            =      -0.0000000000000000 [Eh]
	 Same-Spin Energy          =      -0.1242976682972089 [Eh]
	 Opposite-Spin Energy      =      -0.4547873072714549 [Eh]
	 Correlation Energy        =      -0.5790849755686638 [Eh]
	 Total Energy              =    -117.6802441745092125 [Eh]

	 ================> DF-SCS-MP2 Energies <==================
	-----------------------------------------------------------
	 SCS Same-Spin Scale       =       0.3333333333333333 [-]
	 SCS Opposite-Spin Scale   =       1.2000000000000000 [-]
	 SCS Same-Spin Energy      =      -0.0414325560990696 [Eh]
	 SCS Opposite-Spin Energy  =      -0.5457447687257458 [Eh]
	 SCS Correlation Energy    =      -0.5871773248248154 [Eh]
	 SCS Total Energy          =    -117.6883365237653720 [Eh]
	-----------------------------------------------------------

  Dipole Moment: [D]
     X:    -0.0006      Y:    -0.0017      Z:     0.0000     Total:     0.0018

*** Psi4 exiting successfully. Buy a developer a beer!
