                               Psi4 1.3.2 release

  ==> Input File <==

--------------------------------------------------------------------------
#psi4
#
memory 32 gb

molecule  {
0 1
  C        0.3190000     0.8067150     0.0000000
  C       -0.8580000    -0.1272850     0.0000000
  C        0.5390000    -0.6792850     0.0000000
  H        0.5408158     1.3674161    -0.9006137
  H        0.5408158     1.3674161     0.9006137
  H       -1.4390000    -0.2132850     0.9110000
  H       -1.4390000    -0.2132850    -0.9110000
  H        0.9040000    -1.1402850    -0.9110000
  H        0.9040000    -1.1402850     0.9110000
units angstrom
no_reorient  #important for SAPT in psi4, default
symmetry c1  #important for SAPT in psi4, default
}

set PROPERTIES_ORIGIN ["COM"]
properties('MP2/aug-cc-pvtz', properties = ['dipole'])
--------------------------------------------------------------------------

    Molecular point group: c1
  Charge       = 0
  Multiplicity = 1
  Basis Set: AUG-CC-PVTZ
    Blend: AUG-CC-PVTZ
  Basis Set: (AUG-CC-PVTZ AUX)
    Blend: AUG-CC-PVTZ-JKFIT

    Orbital Energies [Eh]
    ---------------------

    Doubly Occupied:

       1A    -11.223519     2A    -11.222605     3A    -11.222241
       4A     -1.131637     5A     -0.817864     6A     -0.816858
       7A     -0.665553     8A     -0.628678     9A     -0.510794
      10A     -0.508625    11A     -0.420850    12A     -0.419545

  @DF-RHF Final Energy:  -117.10155560405124

   => Energetics <=

    Nuclear Repulsion Energy =             75.8499557177949555
    One-Electron Energy =                -306.7254826509871464
    Two-Electron Energy =                 113.7739713291409487
    Total Energy =                       -117.1015556040512422
  Basis Set: (AUG-CC-PVTZ AUX)
    Blend: AUG-CC-PVTZ-RI
    Molecular point group: c1

    Geometry (in Angstrom), charge = 0, multiplicity = 1:

       Center              X                  Y                   Z               Mass
    ------------   -----------------  -----------------  -----------------  -----------------
         C            0.318721201714     0.806009862238     0.000000000000    12.000000000000
         C           -0.858278798286    -0.127990137762     0.000000000000    12.000000000000
         C            0.538721201714    -0.679990137762     0.000000000000    12.000000000000
         H            0.540537001714     1.366710962238    -0.900613700000     1.007825032230
         H            0.540537001714     1.366710962238     0.900613700000     1.007825032230
         H           -1.439278798286    -0.213990137762     0.911000000000     1.007825032230
         H           -1.439278798286    -0.213990137762    -0.911000000000     1.007825032230
         H            0.903721201714    -1.140990137762    -0.911000000000     1.007825032230
         H            0.903721201714    -1.140990137762     0.911000000000     1.007825032230

  Basis Set: AUG-CC-PVTZ
    Blend: AUG-CC-PVTZ
  Basis Set: (AUG-CC-PVTZ AUX)
    Blend: AUG-CC-PVTZ-JKFIT
	 Reference Energy          =    -117.1015556040512422 [Eh]
	 Singles Energy            =      -0.0000000000000000 [Eh]
	 Same-Spin Energy          =      -0.1241647542018260 [Eh]
	 Opposite-Spin Energy      =      -0.4546092034058458 [Eh]
	 Correlation Energy        =      -0.5787739576076718 [Eh]
	 Total Energy              =    -117.6803295616589082 [Eh]

	 ================> DF-SCS-MP2 Energies <==================
	-----------------------------------------------------------
	 SCS Same-Spin Scale       =       0.3333333333333333 [-]
	 SCS Opposite-Spin Scale   =       1.2000000000000000 [-]
	 SCS Same-Spin Energy      =      -0.0413882514006087 [Eh]
	 SCS Opposite-Spin Energy  =      -0.5455310440870149 [Eh]
	 SCS Correlation Energy    =      -0.5869192954876236 [Eh]
	 SCS Total Energy          =    -117.6884748995388605 [Eh]
	-----------------------------------------------------------

  Dipole Moment: [D]
     X:     0.0000      Y:    -0.0001      Z:     0.0000     Total:     0.0001

*** Psi4 exiting successfully. Buy a developer a beer!
