                               Psi4 1.3.2 release

  ==> Input File <==

--------------------------------------------------------------------------
#psi4
#
memory 32 gb

molecule  {
0 1
  C        0.3351213     0.7860313     0.0000000
  C       -0.8580000    -0.1272850     0.0000000
  C        0.5484210    -0.6548199     0.0000000
  H        0.5350000     1.3527150    -0.9110000
  H        0.5350000     1.3527150     0.9110000
  H       -1.4390000    -0.2132850     0.9110000
  H       -1.4390000    -0.2132850    -0.9110000
  H        0.9040000    -1.1402850    -0.9110000
  H        0.9040000    -1.1402850     0.9110000
units angstrom
no_reorient  #important for SAPT in psi4, default
symmetry c1  #important for SAPT in psi4, default
}

set PROPERTIES_ORIGIN ["COM"]
properties('MP2/aug-cc-pvtz', properties = ['dipole'])
--------------------------------------------------------------------------

    Molecular point group: c1
  Charge       = 0
  Multiplicity = 1
  Basis Set: AUG-CC-PVTZ
    Blend: AUG-CC-PVTZ
  Basis Set: (AUG-CC-PVTZ AUX)
    Blend: AUG-CC-PVTZ-JKFIT

    Orbital Energies [Eh]
    ---------------------

    Doubly Occupied:

       1A    -11.222848     2A    -11.221919     3A    -11.220084
       4A     -1.140394     5A     -0.818177     6A     -0.812586
       7A     -0.667262     8A     -0.631405     9A     -0.509835
      10A     -0.502824    11A     -0.435140    12A     -0.410926

  @DF-RHF Final Energy:  -117.10016435309862

   => Energetics <=

    Nuclear Repulsion Energy =             76.2414472227588078
    One-Electron Energy =                -307.4964247210227768
    Two-Electron Energy =                 114.1548131451653489
    Total Energy =                       -117.1001643530986200
  Basis Set: (AUG-CC-PVTZ AUX)
    Blend: AUG-CC-PVTZ-RI
    Molecular point group: c1

    Geometry (in Angstrom), charge = 0, multiplicity = 1:

       Center              X                  Y                   Z               Mass
    ------------   -----------------  -----------------  -----------------  -----------------
         C            0.327831648822     0.784951711136     0.000000000000    12.000000000000
         C           -0.865289651178    -0.128364588864     0.000000000000    12.000000000000
         C            0.541131348822    -0.655899488864     0.000000000000    12.000000000000
         H            0.527710348822     1.351635411136    -0.911000000000     1.007825032230
         H            0.527710348822     1.351635411136     0.911000000000     1.007825032230
         H           -1.446289651178    -0.214364588864     0.911000000000     1.007825032230
         H           -1.446289651178    -0.214364588864    -0.911000000000     1.007825032230
         H            0.896710348822    -1.141364588864    -0.911000000000     1.007825032230
         H            0.896710348822    -1.141364588864     0.911000000000     1.007825032230

  Basis Set: AUG-CC-PVTZ
    Blend: AUG-CC-PVTZ
  Basis Set: (AUG-CC-PVTZ AUX)
    Blend: AUG-CC-PVTZ-JKFIT
	 Reference Energy          =    -117.1001643530986200 [Eh]
	 Singles Energy            =      -0.0000000000000000 [Eh]
	 Same-Spin Energy          =      -0.1243443150342642 [Eh]
	 Opposite-Spin Energy      =      -0.4545378049113743 [Eh]
	 Correlation Energy        =      -0.5788821199456384 [Eh]
	 Total Energy              =    -117.6790464730442523 [Eh]

	 ================> DF-SCS-MP2 Energies <==================
	-----------------------------------------------------------
	 SCS Same-Spin Scale       =       0.3333333333333333 [-]
	 SCS Opposite-Spin Scale   =       1.2000000000000000 [-]
	 SCS Same-Spin Energy      =      -0.0414481050114214 [Eh]
	 SCS Opposite-Spin Energy  =      -0.5454453658936491 [Eh]
	 SCS Correlation Energy    =      -0.5868934709050705 [Eh]
	 SCS Total Energy          =    -117.6870578240036878 [Eh]
	-----------------------------------------------------------

  Dipole Moment: [D]
     X:     0.0351      Y:     0.0048      Z:     0.0000     Total:     0.0354

*** Psi4 exiting successfully. Buy a developer a beer!
