                               Psi4 1.3.2 release

  ==> Input File <==

--------------------------------------------------------------------------
#psi4
#
memory 32 gb

molecule  {
0 1
  C        0.3190000     0.8067150     0.0000000
  C       -0.8580000    -0.1272850     0.0000000
  C        0.5390000    -0.6792850     0.0000000
  H        0.5465641     1.3819465    -0.8899530
  H        0.5465641     1.3819465     0.8899530
  H       -1.4390000    -0.2132850     0.9110000
  H       -1.4390000    -0.2132850    -0.9110000
  H        0.9040000    -1.1402850    -0.9110000
  H        0.9040000    -1.1402850     0.9110000
units angstrom
no_reorient  #important for SAPT in psi4, default
symmetry c1  #important for SAPT in psi4, default
}

set PROPERTIES_ORIGIN ["COM"]
properties('MP2/aug-cc-pvtz', properties = ['dipole'])
--------------------------------------------------------------------------

    Molecular point group: c1
  Charge       = 0
  Multiplicity = 1
  Basis Set: AUG-CC-PVTZ
    Blend: AUG-CC-PVTZ
  Basis Set: (AUG-CC-PVTZ AUX)
    Blend: AUG-CC-PVTZ-JKFIT

    Orbital Energies [Eh]
    ---------------------

    Doubly Occupied:

       1A    -11.223817     2A    -11.222965     3A    -11.222198
       4A     -1.131362     5A     -0.818907     6A     -0.816993
       7A     -0.664208     8A     -0.630232     9A     -0.510908
      10A     -0.506253    11A     -0.422070    12A     -0.419538

  @DF-RHF Final Energy:  -117.10123510026639

   => Energetics <=

    Nuclear Repulsion Energy =             75.8249901702694871
    One-Electron Energy =                -306.6735509319638027
    Two-Electron Energy =                 113.7473256614279364
    Total Energy =                       -117.1012351002663934
  Basis Set: (AUG-CC-PVTZ AUX)
    Blend: AUG-CC-PVTZ-RI
    Molecular point group: c1

    Geometry (in Angstrom), charge = 0, multiplicity = 1:

       Center              X                  Y                   Z               Mass
    ------------   -----------------  -----------------  -----------------  -----------------
         C            0.318445639248     0.805313302760     0.000000000000    12.000000000000
         C           -0.858554360752    -0.128686697240     0.000000000000    12.000000000000
         C            0.538445639248    -0.680686697240     0.000000000000    12.000000000000
         H            0.546009739248     1.380544802760    -0.889953000000     1.007825032230
         H            0.546009739248     1.380544802760     0.889953000000     1.007825032230
         H           -1.439554360752    -0.214686697240     0.911000000000     1.007825032230
         H           -1.439554360752    -0.214686697240    -0.911000000000     1.007825032230
         H            0.903445639248    -1.141686697240    -0.911000000000     1.007825032230
         H            0.903445639248    -1.141686697240     0.911000000000     1.007825032230

  Basis Set: AUG-CC-PVTZ
    Blend: AUG-CC-PVTZ
  Basis Set: (AUG-CC-PVTZ AUX)
    Blend: AUG-CC-PVTZ-JKFIT
	 Reference Energy          =    -117.1012351002663934 [Eh]
	 Singles Energy            =      -0.0000000000000000 [Eh]
	 Same-Spin Energy          =      -0.1241396109727583 [Eh]
	 Opposite-Spin Energy      =      -0.4545824140488240 [Eh]
	 Correlation Energy        =      -0.5787220250215823 [Eh]
	 Total Energy              =    -117.6799571252879701 [Eh]

	 ================> DF-SCS-MP2 Energies <==================
	-----------------------------------------------------------
	 SCS Same-Spin Scale       =       0.3333333333333333 [-]
	 SCS Opposite-Spin Scale   =       1.2000000000000000 [-]
	 SCS Same-Spin Energy      =      -0.0413798703242528 [Eh]
	 SCS Opposite-Spin Energy  =      -0.5454988968585889 [Eh]
	 SCS Correlation Energy    =      -0.5868787671828417 [Eh]
	 SCS Total Energy          =    -117.6881138674492320 [Eh]
	-----------------------------------------------------------

  Dipole Moment: [D]
     X:     0.0002      Y:     0.0003      Z:     0.0000     Total:     0.0003

*** Psi4 exiting successfully. Buy a developer a beer!
