                               Psi4 1.3.2 release

  ==> Input File <==

--------------------------------------------------------------------------
#psi4
#
memory 32 gb

molecule  {
0 1
  C        0.3323899     0.7865287     0.0748424
  C       -0.8580000    -0.1272850     0.0000000
  C        0.5390000    -0.6792850     0.0000000
  H        0.5350000     1.3527150    -0.9110000
  H        0.5350000     1.3527150     0.9110000
  H       -1.4390000    -0.2132850     0.9110000
  H       -1.4723674    -0.2507063    -0.8844195
  H        0.9040000    -1.1402850    -0.9110000
  H        0.9040000    -1.1402850     0.9110000
units angstrom
no_reorient  #important for SAPT in psi4, default
symmetry c1  #important for SAPT in psi4, default
}

set PROPERTIES_ORIGIN ["COM"]
properties('MP2/aug-cc-pvtz', properties = ['dipole'])
--------------------------------------------------------------------------

    Molecular point group: c1
  Charge       = 0
  Multiplicity = 1
  Basis Set: AUG-CC-PVTZ
    Blend: AUG-CC-PVTZ
  Basis Set: (AUG-CC-PVTZ AUX)
    Blend: AUG-CC-PVTZ-JKFIT

    Orbital Energies [Eh]
    ---------------------

    Doubly Occupied:

       1A    -11.224677     2A    -11.222707     3A    -11.221750
       4A     -1.135655     5A     -0.819794     6A     -0.817222
       7A     -0.665129     8A     -0.633566     9A     -0.509345
      10A     -0.503961    11A     -0.427281    12A     -0.414266

  @DF-RHF Final Energy:  -117.09375210703543

   => Energetics <=

    Nuclear Repulsion Energy =             76.0146496393294626
    One-Electron Energy =                -307.0260968860678759
    Two-Electron Energy =                 113.9176951397029853
    Total Energy =                       -117.0937521070354279
  Basis Set: (AUG-CC-PVTZ AUX)
    Blend: AUG-CC-PVTZ-RI
    Molecular point group: c1

    Geometry (in Angstrom), charge = 0, multiplicity = 1:

       Center              X                  Y                   Z               Mass
    ------------   -----------------  -----------------  -----------------  -----------------
         C            0.329368270644     0.793186331586     0.052845625228    12.000000000000
         C           -0.861021629356    -0.120627368414    -0.021996774772    12.000000000000
         C            0.535978370644    -0.672627368414    -0.021996774772    12.000000000000
         H            0.531978370644     1.359372631586    -0.932996774772     1.007825032230
         H            0.531978370644     1.359372631586     0.889003225228     1.007825032230
         H           -1.442021629356    -0.206627368414     0.889003225228     1.007825032230
         H           -1.475389029356    -0.244048668414    -0.906416274772     1.007825032230
         H            0.900978370644    -1.133627368414    -0.932996774772     1.007825032230
         H            0.900978370644    -1.133627368414     0.889003225228     1.007825032230

  Basis Set: AUG-CC-PVTZ
    Blend: AUG-CC-PVTZ
  Basis Set: (AUG-CC-PVTZ AUX)
    Blend: AUG-CC-PVTZ-JKFIT
	 Reference Energy          =    -117.0937521070354279 [Eh]
	 Singles Energy            =      -0.0000000000000000 [Eh]
	 Same-Spin Energy          =      -0.1243215159848606 [Eh]
	 Opposite-Spin Energy      =      -0.4549179303447456 [Eh]
	 Correlation Energy        =      -0.5792394463296062 [Eh]
	 Total Energy              =    -117.6729915533650370 [Eh]

	 ================> DF-SCS-MP2 Energies <==================
	-----------------------------------------------------------
	 SCS Same-Spin Scale       =       0.3333333333333333 [-]
	 SCS Opposite-Spin Scale   =       1.2000000000000000 [-]
	 SCS Same-Spin Energy      =      -0.0414405053282869 [Eh]
	 SCS Opposite-Spin Energy  =      -0.5459015164136947 [Eh]
	 SCS Correlation Energy    =      -0.5873420217419816 [Eh]
	 SCS Total Energy          =    -117.6810941287774028 [Eh]
	-----------------------------------------------------------

  Dipole Moment: [D]
     X:     0.0096      Y:    -0.0224      Z:     0.0328     Total:     0.0408

*** Psi4 exiting successfully. Buy a developer a beer!
