                               Psi4 1.3.2 release

  ==> Input File <==

--------------------------------------------------------------------------
#psi4
#
memory 32 gb

molecule  {
0 1
  C        0.3023840     0.8243413    -0.0748424
  C       -0.8580000    -0.1272850     0.0000000
  C        0.5390000    -0.6792850     0.0000000
  H        0.5350000     1.3527150    -0.9110000
  H        0.5350000     1.3527150     0.9110000
  H       -1.4390000    -0.2132850     0.9110000
  H       -1.4040401    -0.1756280    -0.9350835
  H        0.9040000    -1.1402850    -0.9110000
  H        0.9040000    -1.1402850     0.9110000
units angstrom
no_reorient  #important for SAPT in psi4, default
symmetry c1  #important for SAPT in psi4, default
}

set PROPERTIES_ORIGIN ["COM"]
properties('MP2/aug-cc-pvtz', properties = ['dipole'])
--------------------------------------------------------------------------

    Molecular point group: c1
  Charge       = 0
  Multiplicity = 1
  Basis Set: AUG-CC-PVTZ
    Blend: AUG-CC-PVTZ
  Basis Set: (AUG-CC-PVTZ AUX)
    Blend: AUG-CC-PVTZ-JKFIT

    Orbital Energies [Eh]
    ---------------------

    Doubly Occupied:

       1A    -11.224646     2A    -11.223563     3A    -11.222360
       4A     -1.129142     5A     -0.821501     6A     -0.815740
       7A     -0.667968     8A     -0.626588     9A     -0.513909
      10A     -0.511749    11A     -0.422052    12A     -0.410543

  @DF-RHF Final Energy:  -117.09329641751013

   => Energetics <=

    Nuclear Repulsion Energy =             75.7548837372782486
    One-Electron Energy =                -306.5168383908551846
    Two-Electron Energy =                 113.6686582360668041
    Total Energy =                       -117.0932964175101318
  Basis Set: (AUG-CC-PVTZ AUX)
    Blend: AUG-CC-PVTZ-RI
    Molecular point group: c1

    Geometry (in Angstrom), charge = 0, multiplicity = 1:

       Center              X                  Y                   Z               Mass
    ------------   -----------------  -----------------  -----------------  -----------------
         C            0.306288172286     0.818407840254    -0.052905475921    12.000000000000
         C           -0.854095827714    -0.133218459746     0.021936924079    12.000000000000
         C            0.542904172286    -0.685218459746     0.021936924079    12.000000000000
         H            0.538904172286     1.346781540254    -0.889063075921     1.007825032230
         H            0.538904172286     1.346781540254     0.932936924079     1.007825032230
         H           -1.435095827714    -0.219218459746     0.932936924079     1.007825032230
         H           -1.400135927714    -0.181561459746    -0.913146575921     1.007825032230
         H            0.907904172286    -1.146218459746    -0.889063075921     1.007825032230
         H            0.907904172286    -1.146218459746     0.932936924079     1.007825032230

  Basis Set: AUG-CC-PVTZ
    Blend: AUG-CC-PVTZ
  Basis Set: (AUG-CC-PVTZ AUX)
    Blend: AUG-CC-PVTZ-JKFIT
	 Reference Energy          =    -117.0932964175101318 [Eh]
	 Singles Energy            =      -0.0000000000000000 [Eh]
	 Same-Spin Energy          =      -0.1243333786924313 [Eh]
	 Opposite-Spin Energy      =      -0.4552402078891558 [Eh]
	 Correlation Energy        =      -0.5795735865815871 [Eh]
	 Total Energy              =    -117.6728700040917204 [Eh]

	 ================> DF-SCS-MP2 Energies <==================
	-----------------------------------------------------------
	 SCS Same-Spin Scale       =       0.3333333333333333 [-]
	 SCS Opposite-Spin Scale   =       1.2000000000000000 [-]
	 SCS Same-Spin Energy      =      -0.0414444595641438 [Eh]
	 SCS Opposite-Spin Energy  =      -0.5462882494669870 [Eh]
	 SCS Correlation Energy    =      -0.5877327090311307 [Eh]
	 SCS Total Energy          =    -117.6810291265412616 [Eh]
	-----------------------------------------------------------

  Dipole Moment: [D]
     X:    -0.0217      Y:    -0.0097      Z:    -0.0261     Total:     0.0353

*** Psi4 exiting successfully. Buy a developer a beer!
