                               Psi4 1.3.2 release

  ==> Input File <==

--------------------------------------------------------------------------
#psi4
#
memory 32 gb

molecule  {
0 1
  C        0.3190000     0.8067150     0.0000000
  C       -0.8580000    -0.1272850     0.0000000
  C        0.5390000    -0.6792850     0.0000000
  H        0.5549293     1.4030918    -0.9950536
  H        0.5350000     1.3527150     0.9110000
  H       -1.4390000    -0.2132850     0.9110000
  H       -1.4390000    -0.2132850    -0.9110000
  H        0.9040000    -1.1402850    -0.9110000
  H        0.9040000    -1.1402850     0.9110000
units angstrom
no_reorient  #important for SAPT in psi4, default
symmetry c1  #important for SAPT in psi4, default
}

set PROPERTIES_ORIGIN ["COM"]
properties('MP2/aug-cc-pvtz', properties = ['dipole'])
--------------------------------------------------------------------------

    Molecular point group: c1
  Charge       = 0
  Multiplicity = 1
  Basis Set: AUG-CC-PVTZ
    Blend: AUG-CC-PVTZ
  Basis Set: (AUG-CC-PVTZ AUX)
    Blend: AUG-CC-PVTZ-JKFIT

    Orbital Energies [Eh]
    ---------------------

    Doubly Occupied:

       1A    -11.234121     2A    -11.223960     3A    -11.223292
       4A     -1.131507     5A     -0.817614     6A     -0.806904
       7A     -0.662946     8A     -0.624009     9A     -0.511402
      10A     -0.499565    11A     -0.420808    12A     -0.418955

  @DF-RHF Final Energy:  -117.09479179436607

   => Energetics <=

    Nuclear Repulsion Energy =             75.4979725763895999
    One-Electron Energy =                -306.0353627949676820
    Two-Electron Energy =                 113.4425984242120080
    Total Energy =                       -117.0947917943660741
  Basis Set: (AUG-CC-PVTZ AUX)
    Blend: AUG-CC-PVTZ-RI
    Molecular point group: c1

    Geometry (in Angstrom), charge = 0, multiplicity = 1:

       Center              X                  Y                   Z               Mass
    ------------   -----------------  -----------------  -----------------  -----------------
         C            0.318522313811     0.805507121211     0.002014684103    12.000000000000
         C           -0.858477686189    -0.128492878789     0.002014684103    12.000000000000
         C            0.538522313811    -0.680492878789     0.002014684103    12.000000000000
         H            0.554451613811     1.401883921211    -0.993038915897     1.007825032230
         H            0.534522313811     1.351507121211     0.913014684103     1.007825032230
         H           -1.439477686189    -0.214492878789     0.913014684103     1.007825032230
         H           -1.439477686189    -0.214492878789    -0.908985315897     1.007825032230
         H            0.903522313811    -1.141492878789    -0.908985315897     1.007825032230
         H            0.903522313811    -1.141492878789     0.913014684103     1.007825032230

  Basis Set: AUG-CC-PVTZ
    Blend: AUG-CC-PVTZ
  Basis Set: (AUG-CC-PVTZ AUX)
    Blend: AUG-CC-PVTZ-JKFIT
	 Reference Energy          =    -117.0947917943660741 [Eh]
	 Singles Energy            =      -0.0000000000000000 [Eh]
	 Same-Spin Energy          =      -0.1241903438758378 [Eh]
	 Opposite-Spin Energy      =      -0.4552540755617397 [Eh]
	 Correlation Energy        =      -0.5794444194375775 [Eh]
	 Total Energy              =    -117.6742362138036526 [Eh]

	 ================> DF-SCS-MP2 Energies <==================
	-----------------------------------------------------------
	 SCS Same-Spin Scale       =       0.3333333333333333 [-]
	 SCS Opposite-Spin Scale   =       1.2000000000000000 [-]
	 SCS Same-Spin Energy      =      -0.0413967812919459 [Eh]
	 SCS Opposite-Spin Energy  =      -0.5463048906740877 [Eh]
	 SCS Correlation Energy    =      -0.5877016719660336 [Eh]
	 SCS Total Energy          =    -117.6824934663321045 [Eh]
	-----------------------------------------------------------

  Dipole Moment: [D]
     X:    -0.0168      Y:    -0.0428      Z:     0.0303     Total:     0.0551

*** Psi4 exiting successfully. Buy a developer a beer!
