                               Psi4 1.3.2 release

  ==> Input File <==

--------------------------------------------------------------------------
#psi4
#
memory 32 gb

molecule  {
0 1
  C        0.3025202     0.8271142     0.0000000
  C       -0.8580000    -0.1272850     0.0000000
  C        0.5291535    -0.7035819     0.0000000
  H        0.5350000     1.3527150    -0.9110000
  H        0.5350000     1.3527150     0.9110000
  H       -1.4390000    -0.2132850     0.9110000
  H       -1.4390000    -0.2132850    -0.9110000
  H        0.9040000    -1.1402850    -0.9110000
  H        0.9040000    -1.1402850     0.9110000
units angstrom
no_reorient  #important for SAPT in psi4, default
symmetry c1  #important for SAPT in psi4, default
}

set PROPERTIES_ORIGIN ["COM"]
properties('MP2/aug-cc-pvtz', properties = ['dipole'])
--------------------------------------------------------------------------

    Molecular point group: c1
  Charge       = 0
  Multiplicity = 1
  Basis Set: AUG-CC-PVTZ
    Blend: AUG-CC-PVTZ
  Basis Set: (AUG-CC-PVTZ AUX)
    Blend: AUG-CC-PVTZ-JKFIT

    Orbital Energies [Eh]
    ---------------------

    Doubly Occupied:

       1A    -11.225136     2A    -11.223207     3A    -11.222762
       4A     -1.124488     5A     -0.820867     6A     -0.815774
       7A     -0.666888     8A     -0.622979     9A     -0.518114
      10A     -0.511800    11A     -0.428063    12A     -0.404725

  @DF-RHF Final Energy:  -117.10059067039364

   => Energetics <=

    Nuclear Repulsion Energy =             75.5311264309012813
    One-Electron Energy =                -306.0938267094009575
    Two-Electron Energy =                 113.4621096081060330
    Total Energy =                       -117.1005906703936432
  Basis Set: (AUG-CC-PVTZ AUX)
    Blend: AUG-CC-PVTZ-RI
    Molecular point group: c1

    Geometry (in Angstrom), charge = 0, multiplicity = 1:

       Center              X                  Y                   Z               Mass
    ------------   -----------------  -----------------  -----------------  -----------------
         C            0.310033601056     0.828226189825     0.000000000000    12.000000000000
         C           -0.850486598944    -0.126173010175     0.000000000000    12.000000000000
         C            0.536666901056    -0.702469910175     0.000000000000    12.000000000000
         H            0.542513401056     1.353826989825    -0.911000000000     1.007825032230
         H            0.542513401056     1.353826989825     0.911000000000     1.007825032230
         H           -1.431486598944    -0.212173010175     0.911000000000     1.007825032230
         H           -1.431486598944    -0.212173010175    -0.911000000000     1.007825032230
         H            0.911513401056    -1.139173010175    -0.911000000000     1.007825032230
         H            0.911513401056    -1.139173010175     0.911000000000     1.007825032230

  Basis Set: AUG-CC-PVTZ
    Blend: AUG-CC-PVTZ
  Basis Set: (AUG-CC-PVTZ AUX)
    Blend: AUG-CC-PVTZ-JKFIT
	 Reference Energy          =    -117.1005906703936432 [Eh]
	 Singles Energy            =      -0.0000000000000000 [Eh]
	 Same-Spin Energy          =      -0.1241421795942964 [Eh]
	 Opposite-Spin Energy      =      -0.4549248977480931 [Eh]
	 Correlation Energy        =      -0.5790670773423896 [Eh]
	 Total Energy              =    -117.6796577477360302 [Eh]

	 ================> DF-SCS-MP2 Energies <==================
	-----------------------------------------------------------
	 SCS Same-Spin Scale       =       0.3333333333333333 [-]
	 SCS Opposite-Spin Scale   =       1.2000000000000000 [-]
	 SCS Same-Spin Energy      =      -0.0413807265314321 [Eh]
	 SCS Opposite-Spin Energy  =      -0.5459098772977118 [Eh]
	 SCS Correlation Energy    =      -0.5872906038291439 [Eh]
	 SCS Total Energy          =    -117.6878812742227893 [Eh]
	-----------------------------------------------------------

  Dipole Moment: [D]
     X:    -0.0297      Y:    -0.0051      Z:    -0.0000     Total:     0.0301

*** Psi4 exiting successfully. Buy a developer a beer!
