                               Psi4 1.3.2 release

  ==> Input File <==

--------------------------------------------------------------------------
#psi4
#
memory 32 gb

molecule  {
0 1
  C        0.3190000     0.8067150     0.0000000
  C       -0.8580000    -0.1272850     0.0000000
  C        0.5390000    -0.6792850     0.0000000
  H        0.5320673     1.3453018    -0.9160893
  H        0.5320673     1.3453018     0.9160893
  H       -1.4390000    -0.2132850     0.9110000
  H       -1.4390000    -0.2132850    -0.9110000
  H        0.9040000    -1.1402850    -0.9110000
  H        0.9040000    -1.1402850     0.9110000
units angstrom
no_reorient  #important for SAPT in psi4, default
symmetry c1  #important for SAPT in psi4, default
}

set PROPERTIES_ORIGIN ["COM"]
properties('MP2/aug-cc-pvtz', properties = ['dipole'])
--------------------------------------------------------------------------

    Molecular point group: c1
  Charge       = 0
  Multiplicity = 1
  Basis Set: AUG-CC-PVTZ
    Blend: AUG-CC-PVTZ
  Basis Set: (AUG-CC-PVTZ AUX)
    Blend: AUG-CC-PVTZ-JKFIT

    Orbital Energies [Eh]
    ---------------------

    Doubly Occupied:

       1A    -11.223193     2A    -11.222215     3A    -11.222073
       4A     -1.132090     5A     -0.816676     6A     -0.816367
       7A     -0.667661     8A     -0.626347     9A     -0.511908
      10A     -0.510624    11A     -0.419583    12A     -0.418986

  @DF-RHF Final Energy:  -117.10160966305870

   => Energetics <=

    Nuclear Repulsion Energy =             75.8889944042929443
    One-Electron Energy =                -306.8057598160263524
    Two-Electron Energy =                 113.8151557486747265
    Total Energy =                       -117.1016096630586958
  Basis Set: (AUG-CC-PVTZ AUX)
    Blend: AUG-CC-PVTZ-RI
    Molecular point group: c1

    Geometry (in Angstrom), charge = 0, multiplicity = 1:

       Center              X                  Y                   Z               Mass
    ------------   -----------------  -----------------  -----------------  -----------------
         C            0.319140588007     0.807069979322     0.000000000000    12.000000000000
         C           -0.857859411993    -0.126930020678     0.000000000000    12.000000000000
         C            0.539140588007    -0.678930020678     0.000000000000    12.000000000000
         H            0.532207888007     1.345656779322    -0.916089300000     1.007825032230
         H            0.532207888007     1.345656779322     0.916089300000     1.007825032230
         H           -1.438859411993    -0.212930020678     0.911000000000     1.007825032230
         H           -1.438859411993    -0.212930020678    -0.911000000000     1.007825032230
         H            0.904140588007    -1.139930020678    -0.911000000000     1.007825032230
         H            0.904140588007    -1.139930020678     0.911000000000     1.007825032230

  Basis Set: AUG-CC-PVTZ
    Blend: AUG-CC-PVTZ
  Basis Set: (AUG-CC-PVTZ AUX)
    Blend: AUG-CC-PVTZ-JKFIT
	 Reference Energy          =    -117.1016096630586958 [Eh]
	 Singles Energy            =      -0.0000000000000000 [Eh]
	 Same-Spin Energy          =      -0.1242205638520609 [Eh]
	 Opposite-Spin Energy      =      -0.4546800411110141 [Eh]
	 Correlation Energy        =      -0.5789006049630749 [Eh]
	 Total Energy              =    -117.6805102680217772 [Eh]

	 ================> DF-SCS-MP2 Energies <==================
	-----------------------------------------------------------
	 SCS Same-Spin Scale       =       0.3333333333333333 [-]
	 SCS Opposite-Spin Scale   =       1.2000000000000000 [-]
	 SCS Same-Spin Energy      =      -0.0414068546173536 [Eh]
	 SCS Opposite-Spin Energy  =      -0.5456160493332169 [Eh]
	 SCS Correlation Energy    =      -0.5870229039505706 [Eh]
	 SCS Total Energy          =    -117.6886325670092646 [Eh]
	-----------------------------------------------------------

  Dipole Moment: [D]
     X:    -0.0002      Y:    -0.0008      Z:    -0.0000     Total:     0.0008

*** Psi4 exiting successfully. Buy a developer a beer!
