                               Psi4 1.3.2 release

  ==> Input File <==

--------------------------------------------------------------------------
#psi4
#
memory 32 gb

molecule  {
0 1
  C        0.3190000     0.8067150     0.0000000
  C       -0.8580000    -0.1272850     0.0000000
  C        0.5390000    -0.6792850     0.0000000
  H        0.5748586     1.4534686    -1.0791071
  H        0.5350000     1.3527150     0.9110000
  H       -1.4390000    -0.2132850     0.9110000
  H       -1.4390000    -0.2132850    -0.9110000
  H        0.9040000    -1.1402850    -0.9110000
  H        0.9040000    -1.1402850     0.9110000
units angstrom
no_reorient  #important for SAPT in psi4, default
symmetry c1  #important for SAPT in psi4, default
}

set PROPERTIES_ORIGIN ["COM"]
properties('MP2/aug-cc-pvtz', properties = ['dipole'])
--------------------------------------------------------------------------

    Molecular point group: c1
  Charge       = 0
  Multiplicity = 1
  Basis Set: AUG-CC-PVTZ
    Blend: AUG-CC-PVTZ
  Basis Set: (AUG-CC-PVTZ AUX)
    Blend: AUG-CC-PVTZ-JKFIT

    Orbital Energies [Eh]
    ---------------------

    Doubly Occupied:

       1A    -11.244850     2A    -11.225372     3A    -11.224693
       4A     -1.131939     5A     -0.818803     6A     -0.800540
       7A     -0.660684     8A     -0.621129     9A     -0.512393
      10A     -0.487612    11A     -0.422516    12A     -0.417798

  @DF-RHF Final Energy:  -117.08053739586943

   => Energetics <=

    Nuclear Repulsion Energy =             75.1651154936556622
    One-Electron Energy =                -305.3546469941511532
    Two-Electron Energy =                 113.1089941046260634
    Total Energy =                       -117.0805373958694275
  Basis Set: (AUG-CC-PVTZ AUX)
    Blend: AUG-CC-PVTZ-RI
    Molecular point group: c1

    Geometry (in Angstrom), charge = 0, multiplicity = 1:

       Center              X                  Y                   Z               Mass
    ------------   -----------------  -----------------  -----------------  -----------------
         C            0.318044627621     0.804299637675     0.004029365809    12.000000000000
         C           -0.858955372379    -0.129700362325     0.004029365809    12.000000000000
         C            0.538044627621    -0.681700362325     0.004029365809    12.000000000000
         H            0.573903227621     1.451053237675    -1.075077734191     1.007825032230
         H            0.534044627621     1.350299637675     0.915029365809     1.007825032230
         H           -1.439955372379    -0.215700362325     0.915029365809     1.007825032230
         H           -1.439955372379    -0.215700362325    -0.906970634191     1.007825032230
         H            0.903044627621    -1.142700362325    -0.906970634191     1.007825032230
         H            0.903044627621    -1.142700362325     0.915029365809     1.007825032230

  Basis Set: AUG-CC-PVTZ
    Blend: AUG-CC-PVTZ
  Basis Set: (AUG-CC-PVTZ AUX)
    Blend: AUG-CC-PVTZ-JKFIT
	 Reference Energy          =    -117.0805373958694275 [Eh]
	 Singles Energy            =      -0.0000000000000000 [Eh]
	 Same-Spin Energy          =      -0.1241861951197974 [Eh]
	 Opposite-Spin Energy      =      -0.4561049792345296 [Eh]
	 Correlation Energy        =      -0.5802911743543270 [Eh]
	 Total Energy              =    -117.6608285702237566 [Eh]

	 ================> DF-SCS-MP2 Energies <==================
	-----------------------------------------------------------
	 SCS Same-Spin Scale       =       0.3333333333333333 [-]
	 SCS Opposite-Spin Scale   =       1.2000000000000000 [-]
	 SCS Same-Spin Energy      =      -0.0413953983732658 [Eh]
	 SCS Opposite-Spin Energy  =      -0.5473259750814354 [Eh]
	 SCS Correlation Energy    =      -0.5887213734547012 [Eh]
	 SCS Total Energy          =    -117.6692587693241308 [Eh]
	-----------------------------------------------------------

  Dipole Moment: [D]
     X:    -0.0387      Y:    -0.0981      Z:     0.0729     Total:     0.1282

*** Psi4 exiting successfully. Buy a developer a beer!
