                               Psi4 1.3.2 release

  ==> Input File <==

--------------------------------------------------------------------------
#psi4
#
memory 32 gb

molecule  {
0 1
  C        0.3190000     0.8067150     0.0000000
  C       -0.8580000    -0.1272850     0.0000000
  C        0.5390000    -0.6792850     0.0000000
  H        0.5150707     1.3023382    -0.8269464
  H        0.5350000     1.3527150     0.9110000
  H       -1.4390000    -0.2132850     0.9110000
  H       -1.4390000    -0.2132850    -0.9110000
  H        0.9040000    -1.1402850    -0.9110000
  H        0.9040000    -1.1402850     0.9110000
units angstrom
no_reorient  #important for SAPT in psi4, default
symmetry c1  #important for SAPT in psi4, default
}

set PROPERTIES_ORIGIN ["COM"]
properties('MP2/aug-cc-pvtz', properties = ['dipole'])
--------------------------------------------------------------------------

    Molecular point group: c1
  Charge       = 0
  Multiplicity = 1
  Basis Set: AUG-CC-PVTZ
    Blend: AUG-CC-PVTZ
  Basis Set: (AUG-CC-PVTZ AUX)
    Blend: AUG-CC-PVTZ-JKFIT

    Orbital Energies [Eh]
    ---------------------

    Doubly Occupied:

       1A    -11.222269     2A    -11.221557     3A    -11.210485
       4A     -1.133408     5A     -0.831332     6A     -0.816138
       7A     -0.672518     8A     -0.629997     9A     -0.520789
      10A     -0.510212    11A     -0.420096    12A     -0.418800

  @DF-RHF Final Energy:  -117.09520962156549

   => Energetics <=

    Nuclear Repulsion Energy =             76.3104482546945775
    One-Electron Energy =                -307.5961128851822082
    Two-Electron Energy =                 114.1904550089221573
    Total Energy =                       -117.0952096215654876
  Basis Set: (AUG-CC-PVTZ AUX)
    Blend: AUG-CC-PVTZ-RI
    Molecular point group: c1

    Geometry (in Angstrom), charge = 0, multiplicity = 1:

       Center              X                  Y                   Z               Mass
    ------------   -----------------  -----------------  -----------------  -----------------
         C            0.319477686189     0.807922088282    -0.002014684103    12.000000000000
         C           -0.857522313811    -0.126077911718    -0.002014684103    12.000000000000
         C            0.539477686189    -0.678077911718    -0.002014684103    12.000000000000
         H            0.515548386189     1.303545288282    -0.828961084103     1.007825032230
         H            0.535477686189     1.353922088282     0.908985315897     1.007825032230
         H           -1.438522313811    -0.212077911718     0.908985315897     1.007825032230
         H           -1.438522313811    -0.212077911718    -0.913014684103     1.007825032230
         H            0.904477686189    -1.139077911718    -0.913014684103     1.007825032230
         H            0.904477686189    -1.139077911718     0.908985315897     1.007825032230

  Basis Set: AUG-CC-PVTZ
    Blend: AUG-CC-PVTZ
  Basis Set: (AUG-CC-PVTZ AUX)
    Blend: AUG-CC-PVTZ-JKFIT
	 Reference Energy          =    -117.0952096215654876 [Eh]
	 Singles Energy            =      -0.0000000000000000 [Eh]
	 Same-Spin Energy          =      -0.1242432243207283 [Eh]
	 Opposite-Spin Energy      =      -0.4543845546891980 [Eh]
	 Correlation Energy        =      -0.5786277790099263 [Eh]
	 Total Energy              =    -117.6738374005754082 [Eh]

	 ================> DF-SCS-MP2 Energies <==================
	-----------------------------------------------------------
	 SCS Same-Spin Scale       =       0.3333333333333333 [-]
	 SCS Opposite-Spin Scale   =       1.2000000000000000 [-]
	 SCS Same-Spin Energy      =      -0.0414144081069094 [Eh]
	 SCS Opposite-Spin Energy  =      -0.5452614656270376 [Eh]
	 SCS Correlation Energy    =      -0.5866758737339470 [Eh]
	 SCS Total Energy          =    -117.6818854952994400 [Eh]
	-----------------------------------------------------------

  Dipole Moment: [D]
     X:     0.0111      Y:     0.0280      Z:    -0.0182     Total:     0.0352

*** Psi4 exiting successfully. Buy a developer a beer!
