                               Psi4 1.3.2 release

  ==> Input File <==

--------------------------------------------------------------------------
#psi4
#
memory 32 gb

molecule  {
0 1
  C        0.3190000     0.8067150     0.0000000
  C       -1.0146660    -0.2516062     0.0000000
  C        0.5390000    -0.6792850     0.0000000
  H        0.5350000     1.3527150    -0.9110000
  H        0.5350000     1.3527150     0.9110000
  H       -1.4390000    -0.2132850     0.9110000
  H       -1.4390000    -0.2132850    -0.9110000
  H        0.9040000    -1.1402850    -0.9110000
  H        0.9040000    -1.1402850     0.9110000
units angstrom
no_reorient  #important for SAPT in psi4, default
symmetry c1  #important for SAPT in psi4, default
}

set PROPERTIES_ORIGIN ["COM"]
properties('MP2/aug-cc-pvtz', properties = ['dipole'])
--------------------------------------------------------------------------

    Molecular point group: c1
  Charge       = 0
  Multiplicity = 1
  Basis Set: AUG-CC-PVTZ
    Blend: AUG-CC-PVTZ
  Basis Set: (AUG-CC-PVTZ AUX)
    Blend: AUG-CC-PVTZ-JKFIT

    Orbital Energies [Eh]
    ---------------------

    Doubly Occupied:

       1A    -11.236758     2A    -11.232679     3A    -11.224245
       4A     -1.089522     5A     -0.844978     6A     -0.810540
       7A     -0.672844     8A     -0.598157     9A     -0.560834
      10A     -0.512422    11A     -0.430360    12A     -0.366756

  @DF-RHF Final Energy:  -117.06948282255870

   => Energetics <=

    Nuclear Repulsion Energy =             73.6728566225347805
    One-Electron Energy =                -302.3244884886968862
    Two-Electron Energy =                 111.5821490436034225
    Total Energy =                       -117.0694828225586974
  Basis Set: (AUG-CC-PVTZ AUX)
    Blend: AUG-CC-PVTZ-RI
    Molecular point group: c1

    Geometry (in Angstrom), charge = 0, multiplicity = 1:

       Center              X                  Y                   Z               Mass
    ------------   -----------------  -----------------  -----------------  -----------------
         C            0.363711732750     0.842195285109     0.000000000000    12.000000000000
         C           -0.969954267250    -0.216125914891     0.000000000000    12.000000000000
         C            0.583711732750    -0.643804714891     0.000000000000    12.000000000000
         H            0.579711732750     1.388195285109    -0.911000000000     1.007825032230
         H            0.579711732750     1.388195285109     0.911000000000     1.007825032230
         H           -1.394288267250    -0.177804714891     0.911000000000     1.007825032230
         H           -1.394288267250    -0.177804714891    -0.911000000000     1.007825032230
         H            0.948711732750    -1.104804714891    -0.911000000000     1.007825032230
         H            0.948711732750    -1.104804714891     0.911000000000     1.007825032230

  Basis Set: AUG-CC-PVTZ
    Blend: AUG-CC-PVTZ
  Basis Set: (AUG-CC-PVTZ AUX)
    Blend: AUG-CC-PVTZ-JKFIT
	 Reference Energy          =    -117.0694828225586974 [Eh]
	 Singles Energy            =      -0.0000000000000000 [Eh]
	 Same-Spin Energy          =      -0.1244222403650047 [Eh]
	 Opposite-Spin Energy      =      -0.4579014841229163 [Eh]
	 Correlation Energy        =      -0.5823237244879209 [Eh]
	 Total Energy              =    -117.6518065470466183 [Eh]

	 ================> DF-SCS-MP2 Energies <==================
	-----------------------------------------------------------
	 SCS Same-Spin Scale       =       0.3333333333333333 [-]
	 SCS Opposite-Spin Scale   =       1.2000000000000000 [-]
	 SCS Same-Spin Energy      =      -0.0414740801216682 [Eh]
	 SCS Opposite-Spin Energy  =      -0.5494817809474994 [Eh]
	 SCS Correlation Energy    =      -0.5909558610691676 [Eh]
	 SCS Total Energy          =    -117.6604386836278593 [Eh]
	-----------------------------------------------------------

  Dipole Moment: [D]
     X:     0.2198      Y:     0.0366      Z:    -0.0000     Total:     0.2228

*** Psi4 exiting successfully. Buy a developer a beer!
