                               Psi4 1.3.2 release

  ==> Input File <==

--------------------------------------------------------------------------
#psi4
#
memory 32 gb

molecule  {
0 1
  C        0.3190000     0.8067150     0.0000000
  C       -0.7013340    -0.0029638     0.0000000
  C        0.5390000    -0.6792850     0.0000000
  H        0.5350000     1.3527150    -0.9110000
  H        0.5350000     1.3527150     0.9110000
  H       -1.4390000    -0.2132850     0.9110000
  H       -1.4390000    -0.2132850    -0.9110000
  H        0.9040000    -1.1402850    -0.9110000
  H        0.9040000    -1.1402850     0.9110000
units angstrom
no_reorient  #important for SAPT in psi4, default
symmetry c1  #important for SAPT in psi4, default
}

set PROPERTIES_ORIGIN ["COM"]
properties('MP2/aug-cc-pvtz', properties = ['dipole'])
--------------------------------------------------------------------------

    Molecular point group: c1
  Charge       = 0
  Multiplicity = 1
  Basis Set: AUG-CC-PVTZ
    Blend: AUG-CC-PVTZ
  Basis Set: (AUG-CC-PVTZ AUX)
    Blend: AUG-CC-PVTZ-JKFIT

    Orbital Energies [Eh]
    ---------------------

    Doubly Occupied:

       1A    -11.227144     2A    -11.214221     3A    -11.212104
       4A     -1.194611     5A     -0.834245     6A     -0.785908
       7A     -0.676365     8A     -0.651232     9A     -0.513692
      10A     -0.485057    11A     -0.449954    12A     -0.398965

  @DF-RHF Final Energy:  -117.05087944083338

   => Energetics <=

    Nuclear Repulsion Energy =             78.4249919204653594
    One-Electron Energy =                -311.6647466953492085
    Two-Electron Energy =                 116.1888753340504792
    Total Energy =                       -117.0508794408333841
  Basis Set: (AUG-CC-PVTZ AUX)
    Blend: AUG-CC-PVTZ-RI
    Molecular point group: c1

    Geometry (in Angstrom), charge = 0, multiplicity = 1:

       Center              X                  Y                   Z               Mass
    ------------   -----------------  -----------------  -----------------  -----------------
         C            0.274288267250     0.771233924385     0.000000000000    12.000000000000
         C           -0.746045732750    -0.038444875615     0.000000000000    12.000000000000
         C            0.494288267250    -0.714766075615     0.000000000000    12.000000000000
         H            0.490288267250     1.317233924385    -0.911000000000     1.007825032230
         H            0.490288267250     1.317233924385     0.911000000000     1.007825032230
         H           -1.483711732750    -0.248766075615     0.911000000000     1.007825032230
         H           -1.483711732750    -0.248766075615    -0.911000000000     1.007825032230
         H            0.859288267250    -1.175766075615    -0.911000000000     1.007825032230
         H            0.859288267250    -1.175766075615     0.911000000000     1.007825032230

  Basis Set: AUG-CC-PVTZ
    Blend: AUG-CC-PVTZ
  Basis Set: (AUG-CC-PVTZ AUX)
    Blend: AUG-CC-PVTZ-JKFIT
	 Reference Energy          =    -117.0508794408333841 [Eh]
	 Singles Energy            =      -0.0000000000000000 [Eh]
	 Same-Spin Energy          =      -0.1258994045282895 [Eh]
	 Opposite-Spin Energy      =      -0.4556511289388955 [Eh]
	 Correlation Energy        =      -0.5815505334671850 [Eh]
	 Total Energy              =    -117.6324299743005639 [Eh]

	 ================> DF-SCS-MP2 Energies <==================
	-----------------------------------------------------------
	 SCS Same-Spin Scale       =       0.3333333333333333 [-]
	 SCS Opposite-Spin Scale   =       1.2000000000000000 [-]
	 SCS Same-Spin Energy      =      -0.0419664681760965 [Eh]
	 SCS Opposite-Spin Energy  =      -0.5467813547266746 [Eh]
	 SCS Correlation Energy    =      -0.5887478229027711 [Eh]
	 SCS Total Energy          =    -117.6396272637361591 [Eh]
	-----------------------------------------------------------

  Dipole Moment: [D]
     X:    -0.0811      Y:     0.0858      Z:     0.0000     Total:     0.1180

*** Psi4 exiting successfully. Buy a developer a beer!
