                               Psi4 1.3.2 release

  ==> Input File <==

--------------------------------------------------------------------------
#psi4
#
memory 32 gb

molecule  {
0 1
  C        0.3238238     0.8002681     0.0249576
  C       -0.8580000    -0.1272850     0.0000000
  C        0.5390000    -0.6792850     0.0000000
  H        0.5350000     1.3527150    -0.9110000
  H        0.5350000     1.3527150     0.9110000
  H       -1.4390000    -0.2132850     0.9110000
  H       -1.4503040    -0.2257900    -0.9024138
  H        0.9040000    -1.1402850    -0.9110000
  H        0.9040000    -1.1402850     0.9110000
units angstrom
no_reorient  #important for SAPT in psi4, default
symmetry c1  #important for SAPT in psi4, default
}

set PROPERTIES_ORIGIN ["COM"]
properties('MP2/aug-cc-pvtz', properties = ['dipole'])
--------------------------------------------------------------------------

    Molecular point group: c1
  Charge       = 0
  Multiplicity = 1
  Basis Set: AUG-CC-PVTZ
    Blend: AUG-CC-PVTZ
  Basis Set: (AUG-CC-PVTZ AUX)
    Blend: AUG-CC-PVTZ-JKFIT

    Orbital Energies [Eh]
    ---------------------

    Doubly Occupied:

       1A    -11.223394     2A    -11.222392     3A    -11.221975
       4A     -1.133075     5A     -0.817514     6A     -0.816474
       7A     -0.666349     8A     -0.628741     9A     -0.510019
      10A     -0.509114    11A     -0.422397    12A     -0.418071

  @DF-RHF Final Energy:  -117.10074792117645

   => Energetics <=

    Nuclear Repulsion Energy =             75.9203651223861016
    One-Electron Energy =                -306.8631923194518549
    Two-Electron Energy =                 113.8420792758893043
    Total Energy =                       -117.1007479211764490
  Basis Set: (AUG-CC-PVTZ AUX)
    Blend: AUG-CC-PVTZ-RI
    Molecular point group: c1

    Geometry (in Angstrom), charge = 0, multiplicity = 1:

       Center              X                  Y                   Z               Mass
    ------------   -----------------  -----------------  -----------------  -----------------
         C            0.322718056406     0.802407352251     0.017629016455    12.000000000000
         C           -0.859105743594    -0.125145747749    -0.007328583545    12.000000000000
         C            0.537894256406    -0.677145747749    -0.007328583545    12.000000000000
         H            0.533894256406     1.354854252251    -0.918328583545     1.007825032230
         H            0.533894256406     1.354854252251     0.903671416455     1.007825032230
         H           -1.440105743594    -0.211145747749     0.903671416455     1.007825032230
         H           -1.451409743594    -0.223650747749    -0.909742383545     1.007825032230
         H            0.902894256406    -1.138145747749    -0.918328583545     1.007825032230
         H            0.902894256406    -1.138145747749     0.903671416455     1.007825032230

  Basis Set: AUG-CC-PVTZ
    Blend: AUG-CC-PVTZ
  Basis Set: (AUG-CC-PVTZ AUX)
    Blend: AUG-CC-PVTZ-JKFIT
	 Reference Energy          =    -117.1007479211764490 [Eh]
	 Singles Energy            =      -0.0000000000000000 [Eh]
	 Same-Spin Energy          =      -0.1242125275287935 [Eh]
	 Opposite-Spin Energy      =      -0.4546484089237775 [Eh]
	 Correlation Energy        =      -0.5788609364525710 [Eh]
	 Total Energy              =    -117.6796088576290202 [Eh]

	 ================> DF-SCS-MP2 Energies <==================
	-----------------------------------------------------------
	 SCS Same-Spin Scale       =       0.3333333333333333 [-]
	 SCS Opposite-Spin Scale   =       1.2000000000000000 [-]
	 SCS Same-Spin Energy      =      -0.0414041758429312 [Eh]
	 SCS Opposite-Spin Energy  =      -0.5455780907085330 [Eh]
	 SCS Correlation Energy    =      -0.5869822665514642 [Eh]
	 SCS Total Energy          =    -117.6877301877279081 [Eh]
	-----------------------------------------------------------

  Dipole Moment: [D]
     X:     0.0044      Y:    -0.0044      Z:     0.0100     Total:     0.0118

*** Psi4 exiting successfully. Buy a developer a beer!
