                               Psi4 1.3.2 release

  ==> Input File <==

--------------------------------------------------------------------------
#psi4
#
memory 32 gb

molecule  {
0 1
  C        0.3138177     0.8128774    -0.0249576
  C       -0.8580000    -0.1272850     0.0000000
  C        0.5390000    -0.6792850     0.0000000
  H        0.5350000     1.3527150    -0.9110000
  H        0.5350000     1.3527150     0.9110000
  H       -1.4390000    -0.2132850     0.9110000
  H       -1.4275190    -0.2007538    -0.9193087
  H        0.9040000    -1.1402850    -0.9110000
  H        0.9040000    -1.1402850     0.9110000
units angstrom
no_reorient  #important for SAPT in psi4, default
symmetry c1  #important for SAPT in psi4, default
}

set PROPERTIES_ORIGIN ["COM"]
properties('MP2/aug-cc-pvtz', properties = ['dipole'])
--------------------------------------------------------------------------

    Molecular point group: c1
  Charge       = 0
  Multiplicity = 1
  Basis Set: AUG-CC-PVTZ
    Blend: AUG-CC-PVTZ
  Basis Set: (AUG-CC-PVTZ AUX)
    Blend: AUG-CC-PVTZ-JKFIT

    Orbital Energies [Eh]
    ---------------------

    Doubly Occupied:

       1A    -11.223505     2A    -11.222602     3A    -11.222136
       4A     -1.130894     5A     -0.817718     6A     -0.816271
       7A     -0.667446     8A     -0.626195     9A     -0.511991
      10A     -0.511446    11A     -0.420713    12A     -0.416717

  @DF-RHF Final Energy:  -117.10073852919153

   => Energetics <=

    Nuclear Repulsion Energy =             75.8331976272237824
    One-Electron Energy =                -306.6926061722271584
    Two-Electron Energy =                 113.7586700158118305
    Total Energy =                       -117.1007385291915313
  Basis Set: (AUG-CC-PVTZ AUX)
    Blend: AUG-CC-PVTZ-RI
    Molecular point group: c1

    Geometry (in Angstrom), charge = 0, multiplicity = 1:

       Center              X                  Y                   Z               Mass
    ------------   -----------------  -----------------  -----------------  -----------------
         C            0.315021515273     0.810817924204    -0.017635667864    12.000000000000
         C           -0.856796184727    -0.129344475796     0.007321932136    12.000000000000
         C            0.540203815273    -0.681344475796     0.007321932136    12.000000000000
         H            0.536203815273     1.350655524204    -0.903678067864     1.007825032230
         H            0.536203815273     1.350655524204     0.918321932136     1.007825032230
         H           -1.437796184727    -0.215344475796     0.918321932136     1.007825032230
         H           -1.426315184727    -0.202813275796    -0.911986767864     1.007825032230
         H            0.905203815273    -1.142344475796    -0.903678067864     1.007825032230
         H            0.905203815273    -1.142344475796     0.918321932136     1.007825032230

  Basis Set: AUG-CC-PVTZ
    Blend: AUG-CC-PVTZ
  Basis Set: (AUG-CC-PVTZ AUX)
    Blend: AUG-CC-PVTZ-JKFIT
	 Reference Energy          =    -117.1007385291915313 [Eh]
	 Singles Energy            =      -0.0000000000000000 [Eh]
	 Same-Spin Energy          =      -0.1242150651658474 [Eh]
	 Opposite-Spin Energy      =      -0.4547517037671548 [Eh]
	 Correlation Energy        =      -0.5789667689330023 [Eh]
	 Total Energy              =    -117.6797052981245315 [Eh]

	 ================> DF-SCS-MP2 Energies <==================
	-----------------------------------------------------------
	 SCS Same-Spin Scale       =       0.3333333333333333 [-]
	 SCS Opposite-Spin Scale   =       1.2000000000000000 [-]
	 SCS Same-Spin Energy      =      -0.0414050217219491 [Eh]
	 SCS Opposite-Spin Energy  =      -0.5457020445205857 [Eh]
	 SCS Correlation Energy    =      -0.5871070662425348 [Eh]
	 SCS Total Energy          =    -117.6878455954340694 [Eh]
	-----------------------------------------------------------

  Dipole Moment: [D]
     X:    -0.0060      Y:    -0.0002      Z:    -0.0093     Total:     0.0110

*** Psi4 exiting successfully. Buy a developer a beer!
