                               Psi4 1.3.2 release

  ==> Input File <==

--------------------------------------------------------------------------
#psi4
#
memory 32 gb

molecule  {
0 1
  C        0.2856869     0.8472227     0.0000000
  C       -0.8580000    -0.1272850     0.0000000
  C        0.5188845    -0.7277033     0.0000000
  H        0.5350000     1.3527150    -0.9110000
  H        0.5350000     1.3527150     0.9110000
  H       -1.4390000    -0.2132850     0.9110000
  H       -1.4390000    -0.2132850    -0.9110000
  H        0.9040000    -1.1402850    -0.9110000
  H        0.9040000    -1.1402850     0.9110000
units angstrom
no_reorient  #important for SAPT in psi4, default
symmetry c1  #important for SAPT in psi4, default
}

set PROPERTIES_ORIGIN ["COM"]
properties('MP2/aug-cc-pvtz', properties = ['dipole'])
--------------------------------------------------------------------------

    Molecular point group: c1
  Charge       = 0
  Multiplicity = 1
  Basis Set: AUG-CC-PVTZ
    Blend: AUG-CC-PVTZ
  Basis Set: (AUG-CC-PVTZ AUX)
    Blend: AUG-CC-PVTZ-JKFIT

    Orbital Energies [Eh]
    ---------------------

    Doubly Occupied:

       1A    -11.227543     2A    -11.223857     3A    -11.223434
       4A     -1.117964     5A     -0.824826     6A     -0.815033
       7A     -0.667020     8A     -0.618966     9A     -0.524936
      10A     -0.512827    11A     -0.436469    12A     -0.390508

  @DF-RHF Final Energy:  -117.09761126916729

   => Energetics <=

    Nuclear Repulsion Energy =             75.2044692285966647
    One-Electron Energy =                -305.4373935131842472
    Two-Electron Energy =                 113.1353130154202802
    Total Energy =                       -117.0976112691672881
  Basis Set: (AUG-CC-PVTZ AUX)
    Blend: AUG-CC-PVTZ-RI
    Molecular point group: c1

    Geometry (in Angstrom), charge = 0, multiplicity = 1:

       Center              X                  Y                   Z               Mass
    ------------   -----------------  -----------------  -----------------  -----------------
         C            0.300935168829     0.849479952437     0.000000000000    12.000000000000
         C           -0.842751731171    -0.125027747563     0.000000000000    12.000000000000
         C            0.534132768829    -0.725446047563     0.000000000000    12.000000000000
         H            0.550248268829     1.354972252437    -0.911000000000     1.007825032230
         H            0.550248268829     1.354972252437     0.911000000000     1.007825032230
         H           -1.423751731171    -0.211027747563     0.911000000000     1.007825032230
         H           -1.423751731171    -0.211027747563    -0.911000000000     1.007825032230
         H            0.919248268829    -1.138027747563    -0.911000000000     1.007825032230
         H            0.919248268829    -1.138027747563     0.911000000000     1.007825032230

  Basis Set: AUG-CC-PVTZ
    Blend: AUG-CC-PVTZ
  Basis Set: (AUG-CC-PVTZ AUX)
    Blend: AUG-CC-PVTZ-JKFIT
	 Reference Energy          =    -117.0976112691672881 [Eh]
	 Singles Energy            =      -0.0000000000000000 [Eh]
	 Same-Spin Energy          =      -0.1241616833534980 [Eh]
	 Opposite-Spin Energy      =      -0.4553442086647943 [Eh]
	 Correlation Energy        =      -0.5795058920182923 [Eh]
	 Total Energy              =    -117.6771171611855777 [Eh]

	 ================> DF-SCS-MP2 Energies <==================
	-----------------------------------------------------------
	 SCS Same-Spin Scale       =       0.3333333333333333 [-]
	 SCS Opposite-Spin Scale   =       1.2000000000000000 [-]
	 SCS Same-Spin Energy      =      -0.0413872277844993 [Eh]
	 SCS Opposite-Spin Energy  =      -0.5464130503977531 [Eh]
	 SCS Correlation Energy    =      -0.5878002781822524 [Eh]
	 SCS Total Energy          =    -117.6854115473495455 [Eh]
	-----------------------------------------------------------

  Dipole Moment: [D]
     X:    -0.0534      Y:    -0.0087      Z:     0.0000     Total:     0.0541

*** Psi4 exiting successfully. Buy a developer a beer!
