                               Psi4 1.3.2 release

  ==> Input File <==

--------------------------------------------------------------------------
#psi4
#
memory 32 gb

molecule  {
0 1
  C        0.3082785     0.8187534    -0.0499076
  C       -0.8580000    -0.1272850     0.0000000
  C        0.5390000    -0.6792850     0.0000000
  H        0.5350000     1.3527150    -0.9110000
  H        0.5350000     1.3527150     0.9110000
  H       -1.4390000    -0.2132850     0.9110000
  H       -1.4158645    -0.1882001    -0.9273373
  H        0.9040000    -1.1402850    -0.9110000
  H        0.9040000    -1.1402850     0.9110000
units angstrom
no_reorient  #important for SAPT in psi4, default
symmetry c1  #important for SAPT in psi4, default
}

set PROPERTIES_ORIGIN ["COM"]
properties('MP2/aug-cc-pvtz', properties = ['dipole'])
--------------------------------------------------------------------------

    Molecular point group: c1
  Charge       = 0
  Multiplicity = 1
  Basis Set: AUG-CC-PVTZ
    Blend: AUG-CC-PVTZ
  Basis Set: (AUG-CC-PVTZ AUX)
    Blend: AUG-CC-PVTZ-JKFIT

    Orbital Energies [Eh]
    ---------------------

    Doubly Occupied:

       1A    -11.223977     2A    -11.223039     3A    -11.222159
       4A     -1.129963     5A     -0.819273     6A     -0.815930
       7A     -0.667799     8A     -0.626013     9A     -0.512788
      10A     -0.512020    11A     -0.421558    12A     -0.413676

  @DF-RHF Final Energy:  -117.09796902430048

   => Energetics <=

    Nuclear Repulsion Energy =             75.7928499511298099
    One-Electron Energy =                -306.6052494418556762
    Two-Electron Energy =                 113.7144304664253696
    Total Energy =                       -117.0979690243004825
  Basis Set: (AUG-CC-PVTZ AUX)
    Blend: AUG-CC-PVTZ-RI
    Molecular point group: c1

    Geometry (in Angstrom), charge = 0, multiplicity = 1:

       Center              X                  Y                   Z               Mass
    ------------   -----------------  -----------------  -----------------  -----------------
         C            0.310783829482     0.814716041557    -0.035272618460    12.000000000000
         C           -0.855494670518    -0.131322358443     0.014634981540    12.000000000000
         C            0.541505329482    -0.683322358443     0.014634981540    12.000000000000
         H            0.537505329482     1.348677641557    -0.896365018460     1.007825032230
         H            0.537505329482     1.348677641557     0.925634981540     1.007825032230
         H           -1.436494670518    -0.217322358443     0.925634981540     1.007825032230
         H           -1.413359170518    -0.192237458443    -0.912702318460     1.007825032230
         H            0.906505329482    -1.144322358443    -0.896365018460     1.007825032230
         H            0.906505329482    -1.144322358443     0.925634981540     1.007825032230

  Basis Set: AUG-CC-PVTZ
    Blend: AUG-CC-PVTZ
  Basis Set: (AUG-CC-PVTZ AUX)
    Blend: AUG-CC-PVTZ-JKFIT
	 Reference Energy          =    -117.0979690243004825 [Eh]
	 Singles Energy            =      -0.0000000000000000 [Eh]
	 Same-Spin Energy          =      -0.1242595146428984 [Eh]
	 Opposite-Spin Energy      =      -0.4549475689259214 [Eh]
	 Correlation Energy        =      -0.5792070835688198 [Eh]
	 Total Energy              =    -117.6771761078693004 [Eh]

	 ================> DF-SCS-MP2 Energies <==================
	-----------------------------------------------------------
	 SCS Same-Spin Scale       =       0.3333333333333333 [-]
	 SCS Opposite-Spin Scale   =       1.2000000000000000 [-]
	 SCS Same-Spin Energy      =      -0.0414198382142995 [Eh]
	 SCS Opposite-Spin Energy  =      -0.5459370827111056 [Eh]
	 SCS Correlation Energy    =      -0.5873569209254051 [Eh]
	 SCS Total Energy          =    -117.6853259452258840 [Eh]
	-----------------------------------------------------------

  Dipole Moment: [D]
     X:    -0.0132      Y:    -0.0032      Z:    -0.0179     Total:     0.0225

*** Psi4 exiting successfully. Buy a developer a beer!
