                               Psi4 1.3.2 release

  ==> Input File <==

--------------------------------------------------------------------------
#psi4
#
memory 32 gb

molecule  {
0 1
  C        0.3190000     0.8067150     0.0000000
  C       -0.7796670    -0.0651244     0.0000000
  C        0.5390000    -0.6792850     0.0000000
  H        0.5350000     1.3527150    -0.9110000
  H        0.5350000     1.3527150     0.9110000
  H       -1.4390000    -0.2132850     0.9110000
  H       -1.4390000    -0.2132850    -0.9110000
  H        0.9040000    -1.1402850    -0.9110000
  H        0.9040000    -1.1402850     0.9110000
units angstrom
no_reorient  #important for SAPT in psi4, default
symmetry c1  #important for SAPT in psi4, default
}

set PROPERTIES_ORIGIN ["COM"]
properties('MP2/aug-cc-pvtz', properties = ['dipole'])
--------------------------------------------------------------------------

    Molecular point group: c1
  Charge       = 0
  Multiplicity = 1
  Basis Set: AUG-CC-PVTZ
    Blend: AUG-CC-PVTZ
  Basis Set: (AUG-CC-PVTZ AUX)
    Blend: AUG-CC-PVTZ-JKFIT

    Orbital Energies [Eh]
    ---------------------

    Doubly Occupied:

       1A    -11.224165     2A    -11.218077     3A    -11.216676
       4A     -1.160756     5A     -0.823782     6A     -0.801316
       7A     -0.669516     8A     -0.640209     9A     -0.511544
      10A     -0.481016    11A     -0.451107    12A     -0.410385

  @DF-RHF Final Energy:  -117.09007822471133

   => Energetics <=

    Nuclear Repulsion Energy =             77.0941230397263126
    One-Electron Energy =                -309.1513068347112494
    Two-Electron Energy =                 114.9671055702736169
    Total Energy =                       -117.0900782247113341
  Basis Set: (AUG-CC-PVTZ AUX)
    Blend: AUG-CC-PVTZ-RI
    Molecular point group: c1

    Geometry (in Angstrom), charge = 0, multiplicity = 1:

       Center              X                  Y                   Z               Mass
    ------------   -----------------  -----------------  -----------------  -----------------
         C            0.296644133625     0.788974264566     0.000000000000    12.000000000000
         C           -0.802022866375    -0.082865135434     0.000000000000    12.000000000000
         C            0.516644133625    -0.697025735434     0.000000000000    12.000000000000
         H            0.512644133625     1.334974264566    -0.911000000000     1.007825032230
         H            0.512644133625     1.334974264566     0.911000000000     1.007825032230
         H           -1.461355866375    -0.231025735434     0.911000000000     1.007825032230
         H           -1.461355866375    -0.231025735434    -0.911000000000     1.007825032230
         H            0.881644133625    -1.158025735434    -0.911000000000     1.007825032230
         H            0.881644133625    -1.158025735434     0.911000000000     1.007825032230

  Basis Set: AUG-CC-PVTZ
    Blend: AUG-CC-PVTZ
  Basis Set: (AUG-CC-PVTZ AUX)
    Blend: AUG-CC-PVTZ-JKFIT
	 Reference Energy          =    -117.0900782247113341 [Eh]
	 Singles Energy            =      -0.0000000000000000 [Eh]
	 Same-Spin Energy          =      -0.1247743309626027 [Eh]
	 Opposite-Spin Energy      =      -0.4545635804498384 [Eh]
	 Correlation Energy        =      -0.5793379114124411 [Eh]
	 Total Energy              =    -117.6694161361237718 [Eh]

	 ================> DF-SCS-MP2 Energies <==================
	-----------------------------------------------------------
	 SCS Same-Spin Scale       =       0.3333333333333333 [-]
	 SCS Opposite-Spin Scale   =       1.2000000000000000 [-]
	 SCS Same-Spin Energy      =      -0.0415914436542009 [Eh]
	 SCS Opposite-Spin Energy  =      -0.5454762965398061 [Eh]
	 SCS Correlation Energy    =      -0.5870677401940070 [Eh]
	 SCS Total Energy          =    -117.6771459649053355 [Eh]
	-----------------------------------------------------------

  Dipole Moment: [D]
     X:    -0.0644      Y:     0.0279      Z:    -0.0000     Total:     0.0702

*** Psi4 exiting successfully. Buy a developer a beer!
