                               Psi4 1.3.2 release

  ==> Input File <==

--------------------------------------------------------------------------
#psi4
#
memory 32 gb

molecule  {
0 1
  C        0.3190000     0.8067150     0.0000000
  C       -0.8580000    -0.1272850     0.0000000
  C        0.5390000    -0.6792850     0.0000000
  H        0.5171649     1.3076319    -0.9404818
  H        0.5171649     1.3076319     0.9404818
  H       -1.4390000    -0.2132850     0.9110000
  H       -1.4390000    -0.2132850    -0.9110000
  H        0.9040000    -1.1402850    -0.9110000
  H        0.9040000    -1.1402850     0.9110000
units angstrom
no_reorient  #important for SAPT in psi4, default
symmetry c1  #important for SAPT in psi4, default
}

set PROPERTIES_ORIGIN ["COM"]
properties('MP2/aug-cc-pvtz', properties = ['dipole'])
--------------------------------------------------------------------------

    Molecular point group: c1
  Charge       = 0
  Multiplicity = 1
  Basis Set: AUG-CC-PVTZ
    Blend: AUG-CC-PVTZ
  Basis Set: (AUG-CC-PVTZ AUX)
    Blend: AUG-CC-PVTZ-JKFIT

    Orbital Energies [Eh]
    ---------------------

    Doubly Occupied:

       1A    -11.223149     2A    -11.221733     3A    -11.221233
       4A     -1.132963     5A     -0.816383     6A     -0.814077
       7A     -0.671409     8A     -0.622461     9A     -0.516623
      10A     -0.510395    11A     -0.419657    12A     -0.415856

  @DF-RHF Final Energy:  -117.10058259123801

   => Energetics <=

    Nuclear Repulsion Energy =             75.9583242180829359
    One-Electron Energy =                -306.9459370384341241
    Two-Electron Energy =                 113.8870302291131793
    Total Energy =                       -117.1005825912380089
  Basis Set: (AUG-CC-PVTZ AUX)
    Blend: AUG-CC-PVTZ-RI
    Molecular point group: c1

    Geometry (in Angstrom), charge = 0, multiplicity = 1:

       Center              X                  Y                   Z               Mass
    ------------   -----------------  -----------------  -----------------  -----------------
         C            0.319854980452     0.808875802004     0.000000000000    12.000000000000
         C           -0.857145019548    -0.125124197996     0.000000000000    12.000000000000
         C            0.539854980452    -0.677124197996     0.000000000000    12.000000000000
         H            0.518019880452     1.309792702004    -0.940481800000     1.007825032230
         H            0.518019880452     1.309792702004     0.940481800000     1.007825032230
         H           -1.438145019548    -0.211124197996     0.911000000000     1.007825032230
         H           -1.438145019548    -0.211124197996    -0.911000000000     1.007825032230
         H            0.904854980452    -1.138124197996    -0.911000000000     1.007825032230
         H            0.904854980452    -1.138124197996     0.911000000000     1.007825032230

  Basis Set: AUG-CC-PVTZ
    Blend: AUG-CC-PVTZ
  Basis Set: (AUG-CC-PVTZ AUX)
    Blend: AUG-CC-PVTZ-JKFIT
	 Reference Energy          =    -117.1005825912380089 [Eh]
	 Singles Energy            =      -0.0000000000000000 [Eh]
	 Same-Spin Energy          =      -0.1243607471043124 [Eh]
	 Opposite-Spin Energy      =      -0.4548788522824561 [Eh]
	 Correlation Energy        =      -0.5792395993867685 [Eh]
	 Total Energy              =    -117.6798221906247761 [Eh]

	 ================> DF-SCS-MP2 Energies <==================
	-----------------------------------------------------------
	 SCS Same-Spin Scale       =       0.3333333333333333 [-]
	 SCS Opposite-Spin Scale   =       1.2000000000000000 [-]
	 SCS Same-Spin Energy      =      -0.0414535823681041 [Eh]
	 SCS Opposite-Spin Energy  =      -0.5458546227389474 [Eh]
	 SCS Correlation Energy    =      -0.5873082051070515 [Eh]
	 SCS Total Energy          =    -117.6878907963450587 [Eh]
	-----------------------------------------------------------

  Dipole Moment: [D]
     X:    -0.0009      Y:    -0.0026      Z:    -0.0000     Total:     0.0027

*** Psi4 exiting successfully. Buy a developer a beer!
