                               Psi4 1.3.2 release

  ==> Input File <==

--------------------------------------------------------------------------
#psi4
#
memory 32 gb

molecule  {
0 1
  C        0.3508791     0.7650693     0.0000000
  C       -0.8580000    -0.1272850     0.0000000
  C        0.5574135    -0.6301941     0.0000000
  H        0.5350000     1.3527150    -0.9110000
  H        0.5350000     1.3527150     0.9110000
  H       -1.4390000    -0.2132850     0.9110000
  H       -1.4390000    -0.2132850    -0.9110000
  H        0.9040000    -1.1402850    -0.9110000
  H        0.9040000    -1.1402850     0.9110000
units angstrom
no_reorient  #important for SAPT in psi4, default
symmetry c1  #important for SAPT in psi4, default
}

set PROPERTIES_ORIGIN ["COM"]
properties('MP2/aug-cc-pvtz', properties = ['dipole'])
--------------------------------------------------------------------------

    Molecular point group: c1
  Charge       = 0
  Multiplicity = 1
  Basis Set: AUG-CC-PVTZ
    Blend: AUG-CC-PVTZ
  Basis Set: (AUG-CC-PVTZ AUX)
    Blend: AUG-CC-PVTZ-JKFIT

    Orbital Energies [Eh]
    ---------------------

    Doubly Occupied:

       1A    -11.222824     2A    -11.221732     3A    -11.217810
       4A     -1.149956     5A     -0.819953     6A     -0.808254
       7A     -0.667912     8A     -0.635817     9A     -0.508962
      10A     -0.494385    11A     -0.451115    12A     -0.402235

  @DF-RHF Final Energy:  -117.09538715208475

   => Energetics <=

    Nuclear Repulsion Energy =             76.6316063247037249
    One-Electron Energy =                -308.2520765169937818
    Two-Electron Energy =                 114.5250830402052884
    Total Energy =                       -117.0953871520847542
  Basis Set: (AUG-CC-PVTZ AUX)
    Blend: AUG-CC-PVTZ-RI
    Molecular point group: c1

    Geometry (in Angstrom), charge = 0, multiplicity = 1:

       Center              X                  Y                   Z               Mass
    ------------   -----------------  -----------------  -----------------  -----------------
         C            0.336525830685     0.762944080007     0.000000000000    12.000000000000
         C           -0.872353269315    -0.129410219993     0.000000000000    12.000000000000
         C            0.543060230685    -0.632319319993     0.000000000000    12.000000000000
         H            0.520646730685     1.350589780007    -0.911000000000     1.007825032230
         H            0.520646730685     1.350589780007     0.911000000000     1.007825032230
         H           -1.453353269315    -0.215410219993     0.911000000000     1.007825032230
         H           -1.453353269315    -0.215410219993    -0.911000000000     1.007825032230
         H            0.889646730685    -1.142410219993    -0.911000000000     1.007825032230
         H            0.889646730685    -1.142410219993     0.911000000000     1.007825032230

  Basis Set: AUG-CC-PVTZ
    Blend: AUG-CC-PVTZ
  Basis Set: (AUG-CC-PVTZ AUX)
    Blend: AUG-CC-PVTZ-JKFIT
	 Reference Energy          =    -117.0953871520847542 [Eh]
	 Singles Energy            =      -0.0000000000000000 [Eh]
	 Same-Spin Energy          =      -0.1245873149484944 [Eh]
	 Opposite-Spin Energy      =      -0.4545934067687682 [Eh]
	 Correlation Energy        =      -0.5791807217172626 [Eh]
	 Total Energy              =    -117.6745678738020189 [Eh]

	 ================> DF-SCS-MP2 Energies <==================
	-----------------------------------------------------------
	 SCS Same-Spin Scale       =       0.3333333333333333 [-]
	 SCS Opposite-Spin Scale   =       1.2000000000000000 [-]
	 SCS Same-Spin Energy      =      -0.0415291049828315 [Eh]
	 SCS Opposite-Spin Energy  =      -0.5455120881225218 [Eh]
	 SCS Correlation Energy    =      -0.5870411931053533 [Eh]
	 SCS Total Energy          =    -117.6824283451901039 [Eh]
	-----------------------------------------------------------

  Dipole Moment: [D]
     X:     0.0756      Y:     0.0109      Z:    -0.0000     Total:     0.0764

*** Psi4 exiting successfully. Buy a developer a beer!
