                               Psi4 1.3.2 release

  ==> Input File <==

--------------------------------------------------------------------------
#psi4
#
memory 32 gb

molecule  {
0 1
  C        0.3271058     0.7964083     0.0000000
  C       -0.8580000    -0.1272850     0.0000000
  C        0.5437639    -0.6670730     0.0000000
  H        0.5350000     1.3527150    -0.9110000
  H        0.5350000     1.3527150     0.9110000
  H       -1.4390000    -0.2132850     0.9110000
  H       -1.4390000    -0.2132850    -0.9110000
  H        0.9040000    -1.1402850    -0.9110000
  H        0.9040000    -1.1402850     0.9110000
units angstrom
no_reorient  #important for SAPT in psi4, default
symmetry c1  #important for SAPT in psi4, default
}

set PROPERTIES_ORIGIN ["COM"]
properties('MP2/aug-cc-pvtz', properties = ['dipole'])
--------------------------------------------------------------------------

    Molecular point group: c1
  Charge       = 0
  Multiplicity = 1
  Basis Set: AUG-CC-PVTZ
    Blend: AUG-CC-PVTZ
  Basis Set: (AUG-CC-PVTZ AUX)
    Blend: AUG-CC-PVTZ-JKFIT

    Orbital Energies [Eh]
    ---------------------

    Doubly Occupied:

       1A    -11.222976     2A    -11.222070     3A    -11.221212
       4A     -1.136031     5A     -0.817445     6A     -0.814702
       7A     -0.667067     8A     -0.629248     9A     -0.510308
      10A     -0.506845    11A     -0.427322    12A     -0.415244

  @DF-RHF Final Energy:  -117.10126745328218

   => Energetics <=

    Nuclear Repulsion Energy =             76.0557733640436737
    One-Electron Energy =                -307.1331431014852456
    Two-Electron Energy =                 113.9761022841594098
    Total Energy =                       -117.1012674532821762
  Basis Set: (AUG-CC-PVTZ AUX)
    Blend: AUG-CC-PVTZ-RI
    Molecular point group: c1

    Geometry (in Angstrom), charge = 0, multiplicity = 1:

       Center              X                  Y                   Z               Mass
    ------------   -----------------  -----------------  -----------------  -----------------
         C            0.323432848709     0.795864141171     0.000000000000    12.000000000000
         C           -0.861672951291    -0.127829158829     0.000000000000    12.000000000000
         C            0.540090948709    -0.667617158829     0.000000000000    12.000000000000
         H            0.531327048709     1.352170841171    -0.911000000000     1.007825032230
         H            0.531327048709     1.352170841171     0.911000000000     1.007825032230
         H           -1.442672951291    -0.213829158829     0.911000000000     1.007825032230
         H           -1.442672951291    -0.213829158829    -0.911000000000     1.007825032230
         H            0.900327048709    -1.140829158829    -0.911000000000     1.007825032230
         H            0.900327048709    -1.140829158829     0.911000000000     1.007825032230

  Basis Set: AUG-CC-PVTZ
    Blend: AUG-CC-PVTZ
  Basis Set: (AUG-CC-PVTZ AUX)
    Blend: AUG-CC-PVTZ-JKFIT
	 Reference Energy          =    -117.1012674532821762 [Eh]
	 Singles Energy            =      -0.0000000000000000 [Eh]
	 Same-Spin Energy          =      -0.1242603568549908 [Eh]
	 Opposite-Spin Energy      =      -0.4545745849086524 [Eh]
	 Correlation Energy        =      -0.5788349417636433 [Eh]
	 Total Energy              =    -117.6801023950458216 [Eh]

	 ================> DF-SCS-MP2 Energies <==================
	-----------------------------------------------------------
	 SCS Same-Spin Scale       =       0.3333333333333333 [-]
	 SCS Opposite-Spin Scale   =       1.2000000000000000 [-]
	 SCS Same-Spin Energy      =      -0.0414201189516636 [Eh]
	 SCS Opposite-Spin Energy  =      -0.5454895018903829 [Eh]
	 SCS Correlation Energy    =      -0.5869096208420466 [Eh]
	 SCS Total Energy          =    -117.6881770741242264 [Eh]
	-----------------------------------------------------------

  Dipole Moment: [D]
     X:     0.0168      Y:     0.0020      Z:    -0.0000     Total:     0.0169

*** Psi4 exiting successfully. Buy a developer a beer!
