                               Psi4 1.3.2 release

  ==> Input File <==

--------------------------------------------------------------------------
#psi4
#
memory 32 gb

molecule  {
0 1
  C        0.3190000     0.8067150     0.0000000
  C       -0.8580000    -0.1272850     0.0000000
  C        0.5390000    -0.6792850     0.0000000
  H        0.5350000     1.3527150    -0.9110000
  H        0.5350000     1.3527150     0.9110000
  H       -1.4390000    -0.2132850     0.9110000
  H       -1.4390000    -0.2132850    -0.9110000
  H        0.9040000    -1.1402850    -0.9110000
  H        0.9040000    -1.1402850     0.9110000
units angstrom
no_reorient  #important for SAPT in psi4, default
symmetry c1  #important for SAPT in psi4, default
}

set PROPERTIES_ORIGIN ["COM"]
properties('MP2/aug-cc-pvtz', properties = ['dipole'])
--------------------------------------------------------------------------

    Molecular point group: c1
  Charge       = 0
  Multiplicity = 1
  Basis Set: AUG-CC-PVTZ
    Blend: AUG-CC-PVTZ
  Basis Set: (AUG-CC-PVTZ AUX)
    Blend: AUG-CC-PVTZ-JKFIT

    Orbital Energies [Eh]
    ---------------------

    Doubly Occupied:

       1A    -11.223279     2A    -11.222266     3A    -11.222226
       4A     -1.131933     5A     -0.816874     6A     -0.816717
       7A     -0.666946     8A     -0.627124     9A     -0.510880
      10A     -0.510650    11A     -0.419663    12A     -0.419516

  @DF-RHF Final Energy:  -117.10164811105511

   => Energetics <=

    Nuclear Repulsion Energy =             75.8757690922918329
    One-Electron Energy =                -306.7786828942730608
    Two-Electron Energy =                 113.8012656909261295
    Total Energy =                       -117.1016481110551126
  Basis Set: (AUG-CC-PVTZ AUX)
    Blend: AUG-CC-PVTZ-RI
    Molecular point group: c1

    Geometry (in Angstrom), charge = 0, multiplicity = 1:

       Center              X                  Y                   Z               Mass
    ------------   -----------------  -----------------  -----------------  -----------------
         C            0.319000000000     0.806714604747     0.000000000000    12.000000000000
         C           -0.858000000000    -0.127285395253     0.000000000000    12.000000000000
         C            0.539000000000    -0.679285395253     0.000000000000    12.000000000000
         H            0.535000000000     1.352714604747    -0.911000000000     1.007825032230
         H            0.535000000000     1.352714604747     0.911000000000     1.007825032230
         H           -1.439000000000    -0.213285395253     0.911000000000     1.007825032230
         H           -1.439000000000    -0.213285395253    -0.911000000000     1.007825032230
         H            0.904000000000    -1.140285395253    -0.911000000000     1.007825032230
         H            0.904000000000    -1.140285395253     0.911000000000     1.007825032230

  Basis Set: AUG-CC-PVTZ
    Blend: AUG-CC-PVTZ
  Basis Set: (AUG-CC-PVTZ AUX)
    Blend: AUG-CC-PVTZ-JKFIT
	 Reference Energy          =    -117.1016481110551126 [Eh]
	 Singles Energy            =      -0.0000000000000000 [Eh]
	 Same-Spin Energy          =      -0.1241995742852629 [Eh]
	 Opposite-Spin Energy      =      -0.4546523582987260 [Eh]
	 Correlation Energy        =      -0.5788519325839889 [Eh]
	 Total Energy              =    -117.6805000436390998 [Eh]

	 ================> DF-SCS-MP2 Energies <==================
	-----------------------------------------------------------
	 SCS Same-Spin Scale       =       0.3333333333333333 [-]
	 SCS Opposite-Spin Scale   =       1.2000000000000000 [-]
	 SCS Same-Spin Energy      =      -0.0413998580950876 [Eh]
	 SCS Opposite-Spin Energy  =      -0.5455828299584712 [Eh]
	 SCS Correlation Energy    =      -0.5869826880535588 [Eh]
	 SCS Total Energy          =    -117.6886307991086653 [Eh]
	-----------------------------------------------------------

  Dipole Moment: [D]
     X:    -0.0001      Y:    -0.0006      Z:    -0.0000     Total:     0.0006

*** Psi4 exiting successfully. Buy a developer a beer!
