                               Psi4 1.3.2 release

  ==> Input File <==

--------------------------------------------------------------------------
#psi4
#
memory 32 gb

molecule  {
0 1
  C        0.3108046     0.8169506     0.0000000
  C       -0.8580000    -0.1272850     0.0000000
  C        0.5341298    -0.6914550     0.0000000
  H        0.5350000     1.3527150    -0.9110000
  H        0.5350000     1.3527150     0.9110000
  H       -1.4390000    -0.2132850     0.9110000
  H       -1.4390000    -0.2132850    -0.9110000
  H        0.9040000    -1.1402850    -0.9110000
  H        0.9040000    -1.1402850     0.9110000
units angstrom
no_reorient  #important for SAPT in psi4, default
symmetry c1  #important for SAPT in psi4, default
}

set PROPERTIES_ORIGIN ["COM"]
properties('MP2/aug-cc-pvtz', properties = ['dipole'])
--------------------------------------------------------------------------

    Molecular point group: c1
  Charge       = 0
  Multiplicity = 1
  Basis Set: AUG-CC-PVTZ
    Blend: AUG-CC-PVTZ
  Basis Set: (AUG-CC-PVTZ AUX)
    Blend: AUG-CC-PVTZ-JKFIT

    Orbital Energies [Eh]
    ---------------------

    Doubly Occupied:

       1A    -11.224036     2A    -11.222862     3A    -11.222490
       4A     -1.128089     5A     -0.818844     6A     -0.816248
       7A     -0.666889     8A     -0.625035     9A     -0.514497
      10A     -0.511289    11A     -0.423816    12A     -0.412100

  @DF-RHF Final Energy:  -117.10139552799967

   => Energetics <=

    Nuclear Repulsion Energy =             75.7010159241945786
    One-Electron Energy =                -306.4324321951047523
    Two-Electron Energy =                 113.6300207429105171
    Total Energy =                       -117.1013955279996708
  Basis Set: (AUG-CC-PVTZ AUX)
    Blend: AUG-CC-PVTZ-RI
    Molecular point group: c1

    Geometry (in Angstrom), charge = 0, multiplicity = 1:

       Center              X                  Y                   Z               Mass
    ------------   -----------------  -----------------  -----------------  -----------------
         C            0.314533460221     0.817502273325     0.000000000000    12.000000000000
         C           -0.854271139779    -0.126733326675     0.000000000000    12.000000000000
         C            0.537858660221    -0.690903326675     0.000000000000    12.000000000000
         H            0.538728860221     1.353266673325    -0.911000000000     1.007825032230
         H            0.538728860221     1.353266673325     0.911000000000     1.007825032230
         H           -1.435271139779    -0.212733326675     0.911000000000     1.007825032230
         H           -1.435271139779    -0.212733326675    -0.911000000000     1.007825032230
         H            0.907728860221    -1.139733326675    -0.911000000000     1.007825032230
         H            0.907728860221    -1.139733326675     0.911000000000     1.007825032230

  Basis Set: AUG-CC-PVTZ
    Blend: AUG-CC-PVTZ
  Basis Set: (AUG-CC-PVTZ AUX)
    Blend: AUG-CC-PVTZ-JKFIT
	 Reference Energy          =    -117.1013955279996708 [Eh]
	 Singles Energy            =      -0.0000000000000000 [Eh]
	 Same-Spin Energy          =      -0.1241606204284368 [Eh]
	 Opposite-Spin Energy      =      -0.4547696127726949 [Eh]
	 Correlation Energy        =      -0.5789302332011317 [Eh]
	 Total Energy              =    -117.6803257612008053 [Eh]

	 ================> DF-SCS-MP2 Energies <==================
	-----------------------------------------------------------
	 SCS Same-Spin Scale       =       0.3333333333333333 [-]
	 SCS Opposite-Spin Scale   =       1.2000000000000000 [-]
	 SCS Same-Spin Energy      =      -0.0413868734761456 [Eh]
	 SCS Opposite-Spin Energy  =      -0.5457235353272338 [Eh]
	 SCS Correlation Energy    =      -0.5871104088033794 [Eh]
	 SCS Total Energy          =    -117.6885059368030539 [Eh]
	-----------------------------------------------------------

  Dipole Moment: [D]
     X:    -0.0156      Y:    -0.0029      Z:    -0.0000     Total:     0.0159

*** Psi4 exiting successfully. Buy a developer a beer!
