                               Psi4 1.3.2 release

  ==> Input File <==

--------------------------------------------------------------------------
#psi4
#
memory 32 gb

molecule  {
0 1
  C        0.3164536     0.8098319    -0.0124793
  C       -0.8580000    -0.1272850     0.0000000
  C        0.5390000    -0.6792850     0.0000000
  H        0.5350000     1.3527150    -0.9110000
  H        0.5350000     1.3527150     0.9110000
  H       -1.4390000    -0.2132850     0.9110000
  H       -1.4332814    -0.2070224    -0.9151892
  H        0.9040000    -1.1402850    -0.9110000
  H        0.9040000    -1.1402850     0.9110000
units angstrom
no_reorient  #important for SAPT in psi4, default
symmetry c1  #important for SAPT in psi4, default
}

set PROPERTIES_ORIGIN ["COM"]
properties('MP2/aug-cc-pvtz', properties = ['dipole'])
--------------------------------------------------------------------------

    Molecular point group: c1
  Charge       = 0
  Multiplicity = 1
  Basis Set: AUG-CC-PVTZ
    Blend: AUG-CC-PVTZ
  Basis Set: (AUG-CC-PVTZ AUX)
    Blend: AUG-CC-PVTZ-JKFIT

    Orbital Energies [Eh]
    ---------------------

    Doubly Occupied:

       1A    -11.223356     2A    -11.222414     3A    -11.222179
       4A     -1.131401     5A     -0.817189     6A     -0.816500
       7A     -0.667211     8A     -0.626569     9A     -0.511510
      10A     -0.511039    11A     -0.420168    12A     -0.418192

  @DF-RHF Final Energy:  -117.10142283278262

   => Energetics <=

    Nuclear Repulsion Energy =             75.8542165893455547
    One-Electron Energy =                -306.7358204982404004
    Two-Electron Energy =                 113.7801810761122283
    Total Energy =                       -117.1014228327826174
  Basis Set: (AUG-CC-PVTZ AUX)
    Blend: AUG-CC-PVTZ-RI
    Molecular point group: c1

    Geometry (in Angstrom), charge = 0, multiplicity = 1:

       Center              X                  Y                   Z               Mass
    ------------   -----------------  -----------------  -----------------  -----------------
         C            0.317043261121     0.808791847772    -0.008817355913    12.000000000000
         C           -0.857410338879    -0.128325052228     0.003661944087    12.000000000000
         C            0.539589661121    -0.680325052228     0.003661944087    12.000000000000
         H            0.535589661121     1.351674947772    -0.907338055913     1.007825032230
         H            0.535589661121     1.351674947772     0.914661944087     1.007825032230
         H           -1.438410338879    -0.214325052228     0.914661944087     1.007825032230
         H           -1.432691738879    -0.208062452228    -0.911527255913     1.007825032230
         H            0.904589661121    -1.141325052228    -0.907338055913     1.007825032230
         H            0.904589661121    -1.141325052228     0.914661944087     1.007825032230

  Basis Set: AUG-CC-PVTZ
    Blend: AUG-CC-PVTZ
  Basis Set: (AUG-CC-PVTZ AUX)
    Blend: AUG-CC-PVTZ-JKFIT
	 Reference Energy          =    -117.1014228327826174 [Eh]
	 Singles Energy            =      -0.0000000000000000 [Eh]
	 Same-Spin Energy          =      -0.1242037307387497 [Eh]
	 Opposite-Spin Energy      =      -0.4546900153220588 [Eh]
	 Correlation Energy        =      -0.5788937460608085 [Eh]
	 Total Energy              =    -117.6803165788434313 [Eh]

	 ================> DF-SCS-MP2 Energies <==================
	-----------------------------------------------------------
	 SCS Same-Spin Scale       =       0.3333333333333333 [-]
	 SCS Opposite-Spin Scale   =       1.2000000000000000 [-]
	 SCS Same-Spin Energy      =      -0.0414012435795832 [Eh]
	 SCS Opposite-Spin Energy  =      -0.5456280183864705 [Eh]
	 SCS Correlation Energy    =      -0.5870292619660537 [Eh]
	 SCS Total Energy          =    -117.6884520947486692 [Eh]
	-----------------------------------------------------------

  Dipole Moment: [D]
     X:    -0.0029      Y:     0.0001      Z:    -0.0047     Total:     0.0055

*** Psi4 exiting successfully. Buy a developer a beer!
