                               Psi4 1.3.2 release

  ==> Input File <==

--------------------------------------------------------------------------
#psi4
#
memory 32 gb

molecule  {
0 1
  F        0.4657023    -0.5165918    -1.1321142
  F        0.4653860     1.2438904     0.0396908
  F        0.4420460    -0.6947950     1.0440010
  C       -0.0607770    -0.0001480    -0.0000920
  C       -1.5558100    -0.0000630    -0.0001080
  H       -1.9180940     0.4562540     0.9212130
  H       -1.9177890     0.5695630    -0.8561490
  H       -1.9178910    -1.0261830    -0.0658340
units angstrom
no_reorient  #important for SAPT in psi4, default
symmetry c1  #important for SAPT in psi4, default
}

set PROPERTIES_ORIGIN ["COM"]
properties('MP2/aug-cc-pvtz', properties = ['dipole'])
--------------------------------------------------------------------------

    Molecular point group: c1
  Charge       = 0
  Multiplicity = 1
  Basis Set: AUG-CC-PVTZ
    Blend: AUG-CC-PVTZ
  Basis Set: (AUG-CC-PVTZ AUX)
    Blend: AUG-CC-PVTZ-JKFIT

    Orbital Energies [Eh]
    ---------------------

    Doubly Occupied:

       1A    -26.335759     2A    -26.329884     3A    -26.329763
       4A    -11.504954     5A    -11.262231     6A     -1.720074
       7A     -1.629097     8A     -1.619918     9A     -1.073402
      10A     -0.920743    11A     -0.818222    12A     -0.811845
      13A     -0.776024    14A     -0.708688    15A     -0.701574
      16A     -0.660434    17A     -0.654691    18A     -0.639896
      19A     -0.591225    20A     -0.590590    21A     -0.572040

  @DF-RHF Final Energy:  -375.97000877916230

   => Energetics <=

    Nuclear Repulsion Energy =            201.1886737859878735
    One-Electron Energy =                -921.8152577278879107
    Two-Electron Energy =                 344.6565751627376812
    Total Energy =                       -375.9700087791622991
  Basis Set: (AUG-CC-PVTZ AUX)
    Blend: AUG-CC-PVTZ-RI
    Molecular point group: c1

    Geometry (in Angstrom), charge = 0, multiplicity = 1:

       Center              X                  Y                   Z               Mass
    ------------   -----------------  -----------------  -----------------  -----------------
         F            0.455115160183    -0.523907025609    -1.121127068898    18.998403162730
         F            0.454798860183     1.236575174391     0.050677931102    18.998403162730
         F            0.431458860183    -0.702110225609     1.054988131102    18.998403162730
         C           -0.071364139817    -0.007463225609     0.010895131102    12.000000000000
         C           -1.566397139817    -0.007378225609     0.010879131102    12.000000000000
         H           -1.928681139817     0.448938774391     0.932200131102     1.007825032230
         H           -1.928376139817     0.562247774391    -0.845161868898     1.007825032230
         H           -1.928478139817    -1.033498225609    -0.054846868898     1.007825032230

  Basis Set: AUG-CC-PVTZ
    Blend: AUG-CC-PVTZ
  Basis Set: (AUG-CC-PVTZ AUX)
    Blend: AUG-CC-PVTZ-JKFIT
	 Reference Energy          =    -375.9700087791622991 [Eh]
	 Singles Energy            =      -0.0000000000000000 [Eh]
	 Same-Spin Energy          =      -0.2988667754560509 [Eh]
	 Opposite-Spin Energy      =      -0.8933854705466859 [Eh]
	 Correlation Energy        =      -1.1922522460027367 [Eh]
	 Total Energy              =    -377.1622610251650372 [Eh]

	 ================> DF-SCS-MP2 Energies <==================
	-----------------------------------------------------------
	 SCS Same-Spin Scale       =       0.3333333333333333 [-]
	 SCS Opposite-Spin Scale   =       1.2000000000000000 [-]
	 SCS Same-Spin Energy      =      -0.0996222584853503 [Eh]
	 SCS Opposite-Spin Energy  =      -1.0720625646560231 [Eh]
	 SCS Correlation Energy    =      -1.1716848231413735 [Eh]
	 SCS Total Energy          =    -377.1416936023036897 [Eh]
	-----------------------------------------------------------

  Dipole Moment: [D]
     X:    -2.4819      Y:    -0.0518      Z:     0.0747     Total:     2.4836

*** Psi4 exiting successfully. Buy a developer a beer!
