                               Psi4 1.3.2 release

  ==> Input File <==

--------------------------------------------------------------------------
#psi4
#
memory 32 gb

molecule  {
0 1
  F        0.4423000    -0.5566670    -1.1237330
  F        0.4419680     1.2516150     0.0798990
  F        0.4420460    -0.6947950     1.0440010
  C       -0.0608341    -0.0059382    -0.0117832
  C       -1.5558100    -0.0000630    -0.0001080
  H       -1.9270522     0.4548340     0.9183446
  H       -1.9177890     0.5695630    -0.8561490
  H       -1.9178910    -1.0261830    -0.0658340
units angstrom
no_reorient  #important for SAPT in psi4, default
symmetry c1  #important for SAPT in psi4, default
}

set PROPERTIES_ORIGIN ["COM"]
properties('MP2/aug-cc-pvtz', properties = ['dipole'])
--------------------------------------------------------------------------

    Molecular point group: c1
  Charge       = 0
  Multiplicity = 1
  Basis Set: AUG-CC-PVTZ
    Blend: AUG-CC-PVTZ
  Basis Set: (AUG-CC-PVTZ AUX)
    Blend: AUG-CC-PVTZ-JKFIT

    Orbital Energies [Eh]
    ---------------------

    Doubly Occupied:

       1A    -26.338708     2A    -26.331025     3A    -26.330950
       4A    -11.505354     5A    -11.260217     6A     -1.720292
       7A     -1.630452     8A     -1.622237     9A     -1.072468
      10A     -0.920887    11A     -0.817619    12A     -0.815439
      13A     -0.776003    14A     -0.707171    15A     -0.704950
      16A     -0.661582    17A     -0.657782    18A     -0.643253
      19A     -0.589259    20A     -0.589080    21A     -0.569448

  @DF-RHF Final Energy:  -375.97075275136035

   => Energetics <=

    Nuclear Repulsion Energy =            201.0532346781502611
    One-Electron Energy =                -921.5196236198127053
    Two-Electron Energy =                 344.4956361903020934
    Total Energy =                       -375.9707527513603509
  Basis Set: (AUG-CC-PVTZ AUX)
    Blend: AUG-CC-PVTZ-RI
    Molecular point group: c1

    Geometry (in Angstrom), charge = 0, multiplicity = 1:

       Center              X                  Y                   Z               Mass
    ------------   -----------------  -----------------  -----------------  -----------------
         F            0.442415532311    -0.555823049393    -1.122028753641    18.998403162730
         F            0.442083532311     1.252458950607     0.081603246359    18.998403162730
         F            0.442161532311    -0.693951049393     1.045705246359    18.998403162730
         C           -0.060718567689    -0.005094249393    -0.010078953641    12.000000000000
         C           -1.555694467689     0.000780950607     0.001596246359    12.000000000000
         H           -1.926936667689     0.455677950607     0.920048846359     1.007825032230
         H           -1.917673467689     0.570406950607    -0.854444753641     1.007825032230
         H           -1.917775467689    -1.025339049393    -0.064129753641     1.007825032230

  Basis Set: AUG-CC-PVTZ
    Blend: AUG-CC-PVTZ
  Basis Set: (AUG-CC-PVTZ AUX)
    Blend: AUG-CC-PVTZ-JKFIT
	 Reference Energy          =    -375.9707527513603509 [Eh]
	 Singles Energy            =      -0.0000000000000000 [Eh]
	 Same-Spin Energy          =      -0.2988839820011071 [Eh]
	 Opposite-Spin Energy      =      -0.8934838241209966 [Eh]
	 Correlation Energy        =      -1.1923678061221037 [Eh]
	 Total Energy              =    -377.1631205574824435 [Eh]

	 ================> DF-SCS-MP2 Energies <==================
	-----------------------------------------------------------
	 SCS Same-Spin Scale       =       0.3333333333333333 [-]
	 SCS Opposite-Spin Scale   =       1.2000000000000000 [-]
	 SCS Same-Spin Energy      =      -0.0996279940003690 [Eh]
	 SCS Opposite-Spin Energy  =      -1.0721805889451959 [Eh]
	 SCS Correlation Energy    =      -1.1718085829455649 [Eh]
	 SCS Total Energy          =    -377.1425613343059240 [Eh]
	-----------------------------------------------------------

  Dipole Moment: [D]
     X:    -2.3946      Y:    -0.0471      Z:    -0.0931     Total:     2.3969

*** Psi4 exiting successfully. Buy a developer a beer!
