                               Psi4 1.4a3.dev225

  ==> Input File <==

--------------------------------------------------------------------------
#psi4
#
memory 32 gb

molecule  {
0 1
  F        0.5247730    -0.8976320    -0.8822590
  F        0.5247660     1.2128770    -0.3362450
  F        0.5247720    -0.3152400     1.2185020
  C        0.0069417     0.0331446     0.0325790
  C       -1.4716790    -0.0000040     0.0000010
  H       -1.8303410     0.7341720     0.7216060
  H       -1.8303400     0.2578370    -0.9966170
  H       -1.8303400    -0.9920200     0.2750120
units angstrom
no_reorient  #important for SAPT in psi4, default
symmetry c1  #important for SAPT in psi4, default
}

set PROPERTIES_ORIGIN ["COM"]
properties('MP2/aug-cc-pvtz', properties = ['dipole'])
--------------------------------------------------------------------------

    Molecular point group: c1
  Charge       = 0
  Multiplicity = 1
  Basis Set: AUG-CC-PVTZ
    Blend: AUG-CC-PVTZ
  Basis Set: (AUG-CC-PVTZ AUX)
    Blend: AUG-CC-PVTZ-JKFIT

    Orbital Energies [Eh]
    ---------------------

    Doubly Occupied:

       1A    -26.341150     2A    -26.341129     3A    -26.314619
       4A    -11.507464     5A    -11.262117     6A     -1.717999
       7A     -1.636937     8A     -1.604111     9A     -1.079261
      10A     -0.919430    11A     -0.817964    12A     -0.808798
      13A     -0.774684    14A     -0.708541    15A     -0.698013
      16A     -0.665856    17A     -0.647750    18A     -0.638086
      19A     -0.593327    20A     -0.592449    21A     -0.572903

  @DF-RHF Final Energy:  -375.96697137041338

   => Energetics <=

    Nuclear Repulsion Energy =            200.5699165632767063
    One-Electron Energy =                -920.5885962347065288
    Two-Electron Energy =                 344.0517083010164470
    Total Energy =                       -375.9669713704133756
  Basis Set: (AUG-CC-PVTZ AUX)
    Blend: AUG-CC-PVTZ-RI
    Molecular point group: c1

    Geometry (in Angstrom), charge = 0, multiplicity = 1:

       Center              X                  Y                   Z               Mass
    ------------   -----------------  -----------------  -----------------  -----------------
         F            0.443855771900    -0.902366317228    -0.886911810419    18.998403162730
         F            0.443848771900     1.208142682772    -0.340897810419    18.998403162730
         F            0.443854771900    -0.319974317228     1.213849189581    18.998403162730
         C           -0.073975528100     0.028410282772     0.027926189581    12.000000000000
         C           -1.552596228100    -0.004738317228    -0.004651810419    12.000000000000
         H           -1.911258228100     0.729437682772     0.716953189581     1.007825032230
         H           -1.911257228100     0.253102682772    -1.001269810419     1.007825032230
         H           -1.911257228100    -0.996754317228     0.270359189581     1.007825032230

  Basis Set: AUG-CC-PVTZ
    Blend: AUG-CC-PVTZ
  Basis Set: (AUG-CC-PVTZ AUX)
    Blend: AUG-CC-PVTZ-JKFIT
	 Reference Energy          =    -375.9669713704133756 [Eh]
	 Singles Energy            =      -0.0000000000000000 [Eh]
	 Same-Spin Energy          =      -0.2993000455258825 [Eh]
	 Opposite-Spin Energy      =      -0.8946265601118766 [Eh]
	 Correlation Energy        =      -1.1939266056377591 [Eh]
	 Total Energy              =    -377.1608979760511602 [Eh]

	 ================> DF-SCS-MP2 Energies <==================
	-----------------------------------------------------------
	 SCS Same-Spin Scale       =       0.3333333333333333 [-]
	 SCS Opposite-Spin Scale   =       1.2000000000000000 [-]
	 SCS Same-Spin Energy      =      -0.0997666818419608 [Eh]
	 SCS Opposite-Spin Energy  =      -1.0735518721342518 [Eh]
	 SCS Correlation Energy    =      -1.1733185539762128 [Eh]
	 SCS Total Energy          =    -377.1402899243896059 [Eh]
	-----------------------------------------------------------

  Dipole Moment: [D]
     X:    -2.5111      Y:     0.2589      Z:     0.2545     Total:     2.5372

*** Psi4 exiting successfully. Buy a developer a beer!
