                               Psi4 1.3.2 release

  ==> Input File <==

--------------------------------------------------------------------------
#psi4
#
memory 32 gb

molecule  {
0 1
  F        0.4423000    -0.5566670    -1.1237330
  F        0.4419680     1.2516150     0.0798990
  F        0.4420460    -0.6947950     1.0440010
  C       -0.0235413    -0.0413392    -0.0832592
  C       -1.5558100    -0.0000630    -0.0001080
  H       -1.9180940     0.4562540     0.9212130
  H       -1.9177890     0.5695630    -0.8561490
  H       -1.9178910    -1.0261830    -0.0658340
units angstrom
no_reorient  #important for SAPT in psi4, default
symmetry c1  #important for SAPT in psi4, default
}

set PROPERTIES_ORIGIN ["COM"]
properties('MP2/aug-cc-pvtz', properties = ['dipole'])
--------------------------------------------------------------------------

    Molecular point group: c1
  Charge       = 0
  Multiplicity = 1
  Basis Set: AUG-CC-PVTZ
    Blend: AUG-CC-PVTZ
  Basis Set: (AUG-CC-PVTZ AUX)
    Blend: AUG-CC-PVTZ-JKFIT

    Orbital Energies [Eh]
    ---------------------

    Doubly Occupied:

       1A    -26.373031     2A    -26.318615     3A    -26.318541
       4A    -11.505405     5A    -11.257502     6A     -1.755688
       7A     -1.642880     8A     -1.603589     9A     -1.059681
      10A     -0.934283    11A     -0.833656    12A     -0.826329
      13A     -0.789351    14A     -0.709633    15A     -0.700730
      16A     -0.672541    17A     -0.655812    18A     -0.633898
      19A     -0.588587    20A     -0.583026    21A     -0.547500

  @DF-RHF Final Energy:  -375.96130136910017

   => Energetics <=

    Nuclear Repulsion Energy =            201.3619617047657471
    One-Electron Energy =                -922.0259716691399490
    Two-Electron Energy =                 344.7027085952739753
    Total Energy =                       -375.9613013691001697
  Basis Set: (AUG-CC-PVTZ AUX)
    Blend: AUG-CC-PVTZ-RI
    Molecular point group: c1

    Geometry (in Angstrom), charge = 0, multiplicity = 1:

       Center              X                  Y                   Z               Mass
    ------------   -----------------  -----------------  -----------------  -----------------
         F            0.436981718387    -0.550783921602    -1.111854574423    18.998403162730
         F            0.436649718387     1.257498078398     0.091777425577    18.998403162730
         F            0.436727718387    -0.688911921602     1.055879425577    18.998403162730
         C           -0.028859581613    -0.035456121602    -0.071380774423    12.000000000000
         C           -1.561128281613     0.005820078398     0.011770425577    12.000000000000
         H           -1.923412281613     0.462137078398     0.933091425577     1.007825032230
         H           -1.923107281613     0.575446078398    -0.844270574423     1.007825032230
         H           -1.923209281613    -1.020299921602    -0.053955574423     1.007825032230

  Basis Set: AUG-CC-PVTZ
    Blend: AUG-CC-PVTZ
  Basis Set: (AUG-CC-PVTZ AUX)
    Blend: AUG-CC-PVTZ-JKFIT
	 Reference Energy          =    -375.9613013691001697 [Eh]
	 Singles Energy            =      -0.0000000000000000 [Eh]
	 Same-Spin Energy          =      -0.2986845382574992 [Eh]
	 Opposite-Spin Energy      =      -0.8928410753808117 [Eh]
	 Correlation Energy        =      -1.1915256136383108 [Eh]
	 Total Energy              =    -377.1528269827384747 [Eh]

	 ================> DF-SCS-MP2 Energies <==================
	-----------------------------------------------------------
	 SCS Same-Spin Scale       =       0.3333333333333333 [-]
	 SCS Opposite-Spin Scale   =       1.2000000000000000 [-]
	 SCS Same-Spin Energy      =      -0.0995615127524997 [Eh]
	 SCS Opposite-Spin Energy  =      -1.0714092904569741 [Eh]
	 SCS Correlation Energy    =      -1.1709708032094739 [Eh]
	 SCS Total Energy          =    -377.1322721723096265 [Eh]
	-----------------------------------------------------------

  Dipole Moment: [D]
     X:    -2.1146      Y:    -0.3343      Z:    -0.6727     Total:     2.2440

*** Psi4 exiting successfully. Buy a developer a beer!
