                               Psi4 1.3.2 release

  ==> Input File <==

--------------------------------------------------------------------------
#psi4
#
memory 32 gb

molecule  {
0 1
  F        0.4313386    -0.5585936    -1.1276246
  F        0.4419680     1.2516150     0.0798990
  F        0.4420460    -0.6947950     1.0440010
  C       -0.0607770    -0.0001480    -0.0000920
  C       -1.5557533    -0.0058531    -0.0117992
  H       -1.9180940     0.4562540     0.9212130
  H       -1.9177890     0.5695630    -0.8561490
  H       -1.9178910    -1.0261830    -0.0658340
units angstrom
no_reorient  #important for SAPT in psi4, default
symmetry c1  #important for SAPT in psi4, default
}

set PROPERTIES_ORIGIN ["COM"]
properties('MP2/aug-cc-pvtz', properties = ['dipole'])
--------------------------------------------------------------------------

    Molecular point group: c1
  Charge       = 0
  Multiplicity = 1
  Basis Set: AUG-CC-PVTZ
    Blend: AUG-CC-PVTZ
  Basis Set: (AUG-CC-PVTZ AUX)
    Blend: AUG-CC-PVTZ-JKFIT

    Orbital Energies [Eh]
    ---------------------

    Doubly Occupied:

       1A    -26.334257     2A    -26.334181     3A    -26.333264
       4A    -11.505237     5A    -11.259793     6A     -1.719790
       7A     -1.627002     8A     -1.626909     9A     -1.072374
      10A     -0.920637    11A     -0.816769    12A     -0.816673
      13A     -0.775431    14A     -0.706694    15A     -0.706047
      16A     -0.660294    17A     -0.660198    18A     -0.644149
      19A     -0.592700    20A     -0.585512    21A     -0.568411

  @DF-RHF Final Energy:  -375.97069036320386

   => Energetics <=

    Nuclear Repulsion Energy =            201.0511174155138576
    One-Electron Energy =                -921.5109699122932625
    Two-Electron Energy =                 344.4891621335755190
    Total Energy =                       -375.9706903632038575
  Basis Set: (AUG-CC-PVTZ AUX)
    Blend: AUG-CC-PVTZ-RI
    Molecular point group: c1

    Geometry (in Angstrom), charge = 0, multiplicity = 1:

       Center              X                  Y                   Z               Mass
    ------------   -----------------  -----------------  -----------------  -----------------
         F            0.433809027525    -0.557331051885    -1.125074787673    18.998403162730
         F            0.444438427525     1.252877548115     0.082448812327    18.998403162730
         F            0.444516427525    -0.693532451885     1.046550812327    18.998403162730
         C           -0.058306572475     0.001114548115     0.002457812327    12.000000000000
         C           -1.553282872475    -0.004590551885    -0.009249387673    12.000000000000
         H           -1.915623572475     0.457516548115     0.923762812327     1.007825032230
         H           -1.915318572475     0.570825548115    -0.853599187673     1.007825032230
         H           -1.915420572475    -1.024920451885    -0.063284187673     1.007825032230

  Basis Set: AUG-CC-PVTZ
    Blend: AUG-CC-PVTZ
  Basis Set: (AUG-CC-PVTZ AUX)
    Blend: AUG-CC-PVTZ-JKFIT
	 Reference Energy          =    -375.9706903632038575 [Eh]
	 Singles Energy            =      -0.0000000000000000 [Eh]
	 Same-Spin Energy          =      -0.2988932636605435 [Eh]
	 Opposite-Spin Energy      =      -0.8935195177629538 [Eh]
	 Correlation Energy        =      -1.1924127814234973 [Eh]
	 Total Energy              =    -377.1631031446273710 [Eh]

	 ================> DF-SCS-MP2 Energies <==================
	-----------------------------------------------------------
	 SCS Same-Spin Scale       =       0.3333333333333333 [-]
	 SCS Opposite-Spin Scale   =       1.2000000000000000 [-]
	 SCS Same-Spin Energy      =      -0.0996310878868478 [Eh]
	 SCS Opposite-Spin Energy  =      -1.0722234213155446 [Eh]
	 SCS Correlation Energy    =      -1.1718545092023924 [Eh]
	 SCS Total Energy          =    -377.1425448724062335 [Eh]
	-----------------------------------------------------------

  Dipole Moment: [D]
     X:    -2.3698      Y:    -0.0000      Z:     0.0020     Total:     2.3698

*** Psi4 exiting successfully. Buy a developer a beer!
