                               Psi4 1.3.2 release

  ==> Input File <==

--------------------------------------------------------------------------
#psi4
#
memory 32 gb

molecule  {
0 1
  F        0.5072350    -0.5442226    -1.0985975
  F        0.4419680     1.2516150     0.0798990
  F        0.4420460    -0.6947950     1.0440010
  C       -0.0607770    -0.0001480    -0.0000920
  C       -1.5537599     0.0346622     0.0700082
  H       -1.9180940     0.4562540     0.9212130
  H       -1.9177890     0.5695630    -0.8561490
  H       -1.9178910    -1.0261830    -0.0658340
units angstrom
no_reorient  #important for SAPT in psi4, default
symmetry c1  #important for SAPT in psi4, default
}

set PROPERTIES_ORIGIN ["COM"]
properties('MP2/aug-cc-pvtz', properties = ['dipole'])
--------------------------------------------------------------------------

    Molecular point group: c1
  Charge       = 0
  Multiplicity = 1
  Basis Set: AUG-CC-PVTZ
    Blend: AUG-CC-PVTZ
  Basis Set: (AUG-CC-PVTZ AUX)
    Blend: AUG-CC-PVTZ-JKFIT

    Orbital Energies [Eh]
    ---------------------

    Doubly Occupied:

       1A    -26.335778     2A    -26.329404     3A    -26.329329
       4A    -11.505444     5A    -11.263999     6A     -1.720394
       7A     -1.624331     8A     -1.624000     9A     -1.074131
      10A     -0.921617    11A     -0.815118    12A     -0.814412
      13A     -0.777960    14A     -0.706925    15A     -0.702984
      16A     -0.657189    17A     -0.656088    18A     -0.640726
      19A     -0.616714    20A     -0.568467    21A     -0.567668

  @DF-RHF Final Energy:  -375.96213889768325

   => Energetics <=

    Nuclear Repulsion Energy =            201.2427677458803430
    One-Electron Energy =                -921.9044585274231167
    Two-Electron Energy =                 344.6995518838595558
    Total Energy =                       -375.9621388976832463
  Basis Set: (AUG-CC-PVTZ AUX)
    Blend: AUG-CC-PVTZ-RI
    Molecular point group: c1

    Geometry (in Angstrom), charge = 0, multiplicity = 1:

       Center              X                  Y                   Z               Mass
    ------------   -----------------  -----------------  -----------------  -----------------
         F            0.492258936747    -0.551996252055    -1.114295501906    18.998403162730
         F            0.426991936747     1.243841347945     0.064200998094    18.998403162730
         F            0.427069936747    -0.702568652055     1.028302998094    18.998403162730
         C           -0.075753063253    -0.007921652055    -0.015790001906    12.000000000000
         C           -1.568735963253     0.026888547945     0.054310198094    12.000000000000
         H           -1.933070063253     0.448480347945     0.905514998094     1.007825032230
         H           -1.932765063253     0.561789347945    -0.871847001906     1.007825032230
         H           -1.932867063253    -1.033956652055    -0.081532001906     1.007825032230

  Basis Set: AUG-CC-PVTZ
    Blend: AUG-CC-PVTZ
  Basis Set: (AUG-CC-PVTZ AUX)
    Blend: AUG-CC-PVTZ-JKFIT
	 Reference Energy          =    -375.9621388976832463 [Eh]
	 Singles Energy            =      -0.0000000000000000 [Eh]
	 Same-Spin Energy          =      -0.2989791861232938 [Eh]
	 Opposite-Spin Energy      =      -0.8937001266410463 [Eh]
	 Correlation Energy        =      -1.1926793127643400 [Eh]
	 Total Energy              =    -377.1548182104475586 [Eh]

	 ================> DF-SCS-MP2 Energies <==================
	-----------------------------------------------------------
	 SCS Same-Spin Scale       =       0.3333333333333333 [-]
	 SCS Opposite-Spin Scale   =       1.2000000000000000 [-]
	 SCS Same-Spin Energy      =      -0.0996597287077646 [Eh]
	 SCS Opposite-Spin Energy  =      -1.0724401519692555 [Eh]
	 SCS Correlation Energy    =      -1.1720998806770200 [Eh]
	 SCS Total Energy          =    -377.1342387783602703 [Eh]
	-----------------------------------------------------------

  Dipole Moment: [D]
     X:    -2.5010      Y:    -0.0168      Z:    -0.0318     Total:     2.5013

*** Psi4 exiting successfully. Buy a developer a beer!
