                               Psi4 1.4a3.dev225

  ==> Input File <==

--------------------------------------------------------------------------
#psi4
#
memory 32 gb

molecule  {
0 1
  F        0.5247730    -0.8976320    -0.8822590
  F        0.5247660     1.2128770    -0.3362450
  F        0.5247720    -0.3152400     1.2185020
  C        0.0327581    -0.0132592    -0.0130302
  C       -1.4716790    -0.0000040     0.0000010
  H       -1.8303410     0.7341720     0.7216060
  H       -1.8303400     0.2578370    -0.9966170
  H       -1.8303400    -0.9920200     0.2750120
units angstrom
no_reorient  #important for SAPT in psi4, default
symmetry c1  #important for SAPT in psi4, default
}

set PROPERTIES_ORIGIN ["COM"]
properties('MP2/aug-cc-pvtz', properties = ['dipole'])
--------------------------------------------------------------------------

    Molecular point group: c1
  Charge       = 0
  Multiplicity = 1
  Basis Set: AUG-CC-PVTZ
    Blend: AUG-CC-PVTZ
  Basis Set: (AUG-CC-PVTZ AUX)
    Blend: AUG-CC-PVTZ-JKFIT

    Orbital Energies [Eh]
    ---------------------

    Doubly Occupied:

       1A    -26.341847     2A    -26.331195     3A    -26.331174
       4A    -11.506011     5A    -11.259799     6A     -1.720497
       7A     -1.632983     8A     -1.621717     9A     -1.069443
      10A     -0.921041    11A     -0.818793    12A     -0.815687
      13A     -0.775418    14A     -0.708046    15A     -0.705000
      16A     -0.663967    17A     -0.658821    18A     -0.644412
      19A     -0.589147    20A     -0.588366    21A     -0.564926

  @DF-RHF Final Energy:  -375.97030641679345

   => Energetics <=

    Nuclear Repulsion Energy =            200.7476352028227211
    One-Electron Energy =                -920.8993004267915694
    Two-Electron Energy =                 344.1813588071753998
    Total Energy =                       -375.9703064167934485
  Basis Set: (AUG-CC-PVTZ AUX)
    Blend: AUG-CC-PVTZ-RI
    Molecular point group: c1

    Geometry (in Angstrom), charge = 0, multiplicity = 1:

       Center              X                  Y                   Z               Mass
    ------------   -----------------  -----------------  -----------------  -----------------
         F            0.440168534930    -0.895738677165    -0.880397659398    18.998403162730
         F            0.440161534930     1.214770322835    -0.334383659398    18.998403162730
         F            0.440167534930    -0.313346677165     1.220363340602    18.998403162730
         C           -0.051846365070    -0.011365877165    -0.011168859398    12.000000000000
         C           -1.556283465070     0.001889322835     0.001862340602    12.000000000000
         H           -1.914945465070     0.736065322835     0.723467340602     1.007825032230
         H           -1.914944465070     0.259730322835    -0.994755659398     1.007825032230
         H           -1.914944465070    -0.990126677165     0.276873340602     1.007825032230

  Basis Set: AUG-CC-PVTZ
    Blend: AUG-CC-PVTZ
  Basis Set: (AUG-CC-PVTZ AUX)
    Blend: AUG-CC-PVTZ-JKFIT
	 Reference Energy          =    -375.9703064167934485 [Eh]
	 Singles Energy            =      -0.0000000000000000 [Eh]
	 Same-Spin Energy          =      -0.2988586190639066 [Eh]
	 Opposite-Spin Energy      =      -0.8936206874515342 [Eh]
	 Correlation Energy        =      -1.1924793065154409 [Eh]
	 Total Energy              =    -377.1627857233089003 [Eh]

	 ================> DF-SCS-MP2 Energies <==================
	-----------------------------------------------------------
	 SCS Same-Spin Scale       =       0.3333333333333333 [-]
	 SCS Opposite-Spin Scale   =       1.2000000000000000 [-]
	 SCS Same-Spin Energy      =      -0.0996195396879689 [Eh]
	 SCS Opposite-Spin Energy  =      -1.0723448249418410 [Eh]
	 SCS Correlation Energy    =      -1.1719643646298099 [Eh]
	 SCS Total Energy          =    -377.1422707814232353 [Eh]
	-----------------------------------------------------------

  Dipole Moment: [D]
     X:    -2.3220      Y:    -0.1048      Z:    -0.1030     Total:     2.3266

*** Psi4 exiting successfully. Buy a developer a beer!
