                               Psi4 1.4a3.dev225

  ==> Input File <==

--------------------------------------------------------------------------
#psi4
#
memory 32 gb

molecule  {
0 1
  F        0.5247730    -0.8976320    -0.8822590
  F        0.5247660     1.2128770    -0.3362450
  F        0.5247720    -0.3152400     1.2185020
  C        0.0253820    -0.0000010     0.0000010
  C       -1.5216790    -0.0000041     0.0000010
  H       -1.8303410     0.7341720     0.7216060
  H       -1.8303400     0.2578370    -0.9966170
  H       -1.8303400    -0.9920200     0.2750120
units angstrom
no_reorient  #important for SAPT in psi4, default
symmetry c1  #important for SAPT in psi4, default
}

set PROPERTIES_ORIGIN ["COM"]
properties('MP2/aug-cc-pvtz', properties = ['dipole'])
--------------------------------------------------------------------------

    Molecular point group: c1
  Charge       = 0
  Multiplicity = 1
  Basis Set: AUG-CC-PVTZ
    Blend: AUG-CC-PVTZ
  Basis Set: (AUG-CC-PVTZ AUX)
    Blend: AUG-CC-PVTZ-JKFIT

    Orbital Energies [Eh]
    ---------------------

    Doubly Occupied:

       1A    -26.334281     2A    -26.334280     3A    -26.334249
       4A    -11.507196     5A    -11.260309     6A     -1.717209
       7A     -1.625874     8A     -1.625873     9A     -1.062899
      10A     -0.921787    11A     -0.814339    12A     -0.814338
      13A     -0.773014    14A     -0.705270    15A     -0.705270
      16A     -0.660276    17A     -0.660276    18A     -0.644237
      19A     -0.598806    20A     -0.598805    21A     -0.552955

  @DF-RHF Final Energy:  -375.96842486399993

   => Energetics <=

    Nuclear Repulsion Energy =            199.7685124844001905
    One-Electron Energy =                -918.9707862477799836
    Two-Electron Energy =                 343.2338488993798933
    Total Energy =                       -375.9684248639999282
  Basis Set: (AUG-CC-PVTZ AUX)
    Blend: AUG-CC-PVTZ-RI
    Molecular point group: c1

    Geometry (in Angstrom), charge = 0, multiplicity = 1:

       Center              X                  Y                   Z               Mass
    ------------   -----------------  -----------------  -----------------  -----------------
         F            0.448363297837    -0.897632270249    -0.882258845404    18.998403162730
         F            0.448356297837     1.212876729751    -0.336244845404    18.998403162730
         F            0.448362297837    -0.315240270249     1.218502154596    18.998403162730
         C           -0.051027702163    -0.000001270249     0.000001154596    12.000000000000
         C           -1.598088702163    -0.000004370249     0.000001154596    12.000000000000
         H           -1.906750702163     0.734171729751     0.721606154596     1.007825032230
         H           -1.906749702163     0.257836729751    -0.996616845404     1.007825032230
         H           -1.906749702163    -0.992020270249     0.275012154596     1.007825032230

  Basis Set: AUG-CC-PVTZ
    Blend: AUG-CC-PVTZ
  Basis Set: (AUG-CC-PVTZ AUX)
    Blend: AUG-CC-PVTZ-JKFIT
	 Reference Energy          =    -375.9684248639999282 [Eh]
	 Singles Energy            =      -0.0000000000000000 [Eh]
	 Same-Spin Energy          =      -0.2987248945836130 [Eh]
	 Opposite-Spin Energy      =      -0.8937536435235396 [Eh]
	 Correlation Energy        =      -1.1924785381071525 [Eh]
	 Total Energy              =    -377.1609034021070670 [Eh]

	 ================> DF-SCS-MP2 Energies <==================
	-----------------------------------------------------------
	 SCS Same-Spin Scale       =       0.3333333333333333 [-]
	 SCS Opposite-Spin Scale   =       1.2000000000000000 [-]
	 SCS Same-Spin Energy      =      -0.0995749648612043 [Eh]
	 SCS Opposite-Spin Energy  =      -1.0725043722282475 [Eh]
	 SCS Correlation Energy    =      -1.1720793370894518 [Eh]
	 SCS Total Energy          =    -377.1405042010893567 [Eh]
	-----------------------------------------------------------

  Dipole Moment: [D]
     X:    -2.3210      Y:    -0.0000      Z:     0.0000     Total:     2.3210

*** Psi4 exiting successfully. Buy a developer a beer!
