                               Psi4 1.3.2 release

  ==> Input File <==

--------------------------------------------------------------------------
#psi4
#
memory 32 gb

molecule  {
0 1
  F        0.4423000    -0.5566670    -1.1237330
  F        0.4419680     1.2516150     0.0798990
  F        0.4420460    -0.6947950     1.0440010
  C       -0.0610051    -0.0117279    -0.0234735
  C       -1.5558100    -0.0000630    -0.0001080
  H       -1.9359822     0.4533793     0.9154063
  H       -1.9177890     0.5695630    -0.8561490
  H       -1.9178910    -1.0261830    -0.0658340
units angstrom
no_reorient  #important for SAPT in psi4, default
symmetry c1  #important for SAPT in psi4, default
}

set PROPERTIES_ORIGIN ["COM"]
properties('MP2/aug-cc-pvtz', properties = ['dipole'])
--------------------------------------------------------------------------

    Molecular point group: c1
  Charge       = 0
  Multiplicity = 1
  Basis Set: AUG-CC-PVTZ
    Blend: AUG-CC-PVTZ
  Basis Set: (AUG-CC-PVTZ AUX)
    Blend: AUG-CC-PVTZ-JKFIT

    Orbital Energies [Eh]
    ---------------------

    Doubly Occupied:

       1A    -26.343815     2A    -26.328481     3A    -26.328406
       4A    -11.505615     5A    -11.260247     6A     -1.721761
       7A     -1.633468     8A     -1.617982     9A     -1.072444
      10A     -0.921450    11A     -0.818873    12A     -0.814859
      13A     -0.776888    14A     -0.707831    15A     -0.703810
      16A     -0.663124    17A     -0.656281    18A     -0.642072
      19A     -0.589650    20A     -0.588846    21A     -0.568916

  @DF-RHF Final Energy:  -375.97013676508880

   => Energetics <=

    Nuclear Repulsion Energy =            201.0377310290469666
    One-Electron Energy =                -921.4860950413913088
    Two-Electron Energy =                 344.4782272472555178
    Total Energy =                       -375.9701367650887960
  Basis Set: (AUG-CC-PVTZ AUX)
    Blend: AUG-CC-PVTZ-RI
    Molecular point group: c1

    Geometry (in Angstrom), charge = 0, multiplicity = 1:

       Center              X                  Y                   Z               Mass
    ------------   -----------------  -----------------  -----------------  -----------------
         F            0.442547073023    -0.554978683840    -1.120323836539    18.998403162730
         F            0.442215073023     1.253303316160     0.083308163461    18.998403162730
         F            0.442293073023    -0.693106683840     1.047410163461    18.998403162730
         C           -0.060758026977    -0.010039583840    -0.020064336539    12.000000000000
         C           -1.555562926977     0.001625316160     0.003301163461    12.000000000000
         H           -1.935735126977     0.455067616160     0.918815463461     1.007825032230
         H           -1.917541926977     0.571251316160    -0.852739836539     1.007825032230
         H           -1.917643926977    -1.024494683840    -0.062424836539     1.007825032230

  Basis Set: AUG-CC-PVTZ
    Blend: AUG-CC-PVTZ
  Basis Set: (AUG-CC-PVTZ AUX)
    Blend: AUG-CC-PVTZ-JKFIT
	 Reference Energy          =    -375.9701367650887960 [Eh]
	 Singles Energy            =      -0.0000000000000000 [Eh]
	 Same-Spin Energy          =      -0.2989030302579379 [Eh]
	 Opposite-Spin Energy      =      -0.8935187285365402 [Eh]
	 Correlation Energy        =      -1.1924217587944781 [Eh]
	 Total Energy              =    -377.1625585238832628 [Eh]

	 ================> DF-SCS-MP2 Energies <==================
	-----------------------------------------------------------
	 SCS Same-Spin Scale       =       0.3333333333333333 [-]
	 SCS Opposite-Spin Scale   =       1.2000000000000000 [-]
	 SCS Same-Spin Energy      =      -0.0996343434193126 [Eh]
	 SCS Opposite-Spin Energy  =      -1.0722224742438482 [Eh]
	 SCS Correlation Energy    =      -1.1718568176631607 [Eh]
	 SCS Total Energy          =    -377.1419935827519794 [Eh]
	-----------------------------------------------------------

  Dipole Moment: [D]
     X:    -2.3987      Y:    -0.0930      Z:    -0.1856     Total:     2.4076

*** Psi4 exiting successfully. Buy a developer a beer!
