                               Psi4 1.3.2 release

  ==> Input File <==

--------------------------------------------------------------------------
#psi4
#
memory 32 gb

molecule  {
0 1
  F        0.4423000    -0.5566670    -1.1237330
  F        0.4419680     1.2516150     0.0798990
  F        0.4420460    -0.6947950     1.0440010
  C       -0.0616869     0.0230084     0.0466638
  C       -1.5558100    -0.0000630    -0.0001080
  H       -1.8819920     0.4615856     0.9319828
  H       -1.9177890     0.5695630    -0.8561490
  H       -1.9178910    -1.0261830    -0.0658340
units angstrom
no_reorient  #important for SAPT in psi4, default
symmetry c1  #important for SAPT in psi4, default
}

set PROPERTIES_ORIGIN ["COM"]
properties('MP2/aug-cc-pvtz', properties = ['dipole'])
--------------------------------------------------------------------------

    Molecular point group: c1
  Charge       = 0
  Multiplicity = 1
  Basis Set: AUG-CC-PVTZ
    Blend: AUG-CC-PVTZ
  Basis Set: (AUG-CC-PVTZ AUX)
    Blend: AUG-CC-PVTZ-JKFIT

    Orbital Energies [Eh]
    ---------------------

    Doubly Occupied:

       1A    -26.343429     2A    -26.343350     3A    -26.312900
       4A    -11.505224     5A    -11.260737     6A     -1.724906
       7A     -1.643282     8A     -1.605001     9A     -1.073551
      10A     -0.922346    11A     -0.823295    12A     -0.812846
      13A     -0.776901    14A     -0.711441    15A     -0.698768
      16A     -0.669808    17A     -0.648982    18A     -0.638442
      19A     -0.594123    20A     -0.590197    21A     -0.563947

  @DF-RHF Final Energy:  -375.96801625201880

   => Energetics <=

    Nuclear Repulsion Energy =            201.1318489004797527
    One-Electron Energy =                -921.6727812193973932
    Two-Electron Energy =                 344.5729160668988129
    Total Energy =                       -375.9680162520187992
  Basis Set: (AUG-CC-PVTZ AUX)
    Blend: AUG-CC-PVTZ-RI
    Molecular point group: c1

    Geometry (in Angstrom), charge = 0, multiplicity = 1:

       Center              X                  Y                   Z               Mass
    ------------   -----------------  -----------------  -----------------  -----------------
         F            0.441996825476    -0.560038345470    -1.130540061845    18.998403162730
         F            0.441664825476     1.248243654530     0.073091938155    18.998403162730
         F            0.441742825476    -0.698166345470     1.037193938155    18.998403162730
         C           -0.061990074524     0.019637054530     0.039856738155    12.000000000000
         C           -1.556113174524    -0.003434345470    -0.006915061845    12.000000000000
         H           -1.882295174524     0.458214254530     0.925175738155     1.007825032230
         H           -1.918092174524     0.566191654530    -0.862956061845     1.007825032230
         H           -1.918194174524    -1.029554345470    -0.072641061845     1.007825032230

  Basis Set: AUG-CC-PVTZ
    Blend: AUG-CC-PVTZ
  Basis Set: (AUG-CC-PVTZ AUX)
    Blend: AUG-CC-PVTZ-JKFIT
	 Reference Energy          =    -375.9680162520187992 [Eh]
	 Singles Energy            =      -0.0000000000000000 [Eh]
	 Same-Spin Energy          =      -0.2990058211045088 [Eh]
	 Opposite-Spin Energy      =      -0.8936850676528247 [Eh]
	 Correlation Energy        =      -1.1926908887573335 [Eh]
	 Total Energy              =    -377.1607071407761396 [Eh]

	 ================> DF-SCS-MP2 Energies <==================
	-----------------------------------------------------------
	 SCS Same-Spin Scale       =       0.3333333333333333 [-]
	 SCS Opposite-Spin Scale   =       1.2000000000000000 [-]
	 SCS Same-Spin Energy      =      -0.0996686070348363 [Eh]
	 SCS Opposite-Spin Energy  =      -1.0724220811833896 [Eh]
	 SCS Correlation Energy    =      -1.1720906882182258 [Eh]
	 SCS Total Energy          =    -377.1401069402370467 [Eh]
	-----------------------------------------------------------

  Dipole Moment: [D]
     X:    -2.3865      Y:     0.1801      Z:     0.3658     Total:     2.4211

*** Psi4 exiting successfully. Buy a developer a beer!
