                               Psi4 1.3.2 release

  ==> Input File <==

--------------------------------------------------------------------------
#psi4
#
memory 32 gb

molecule  {
0 1
  F        0.4641071    -0.5526867    -1.1156935
  F        0.4419680     1.2516150     0.0798990
  F        0.4420460    -0.6947950     1.0440010
  C       -0.0607770    -0.0001480    -0.0000920
  C       -1.5555819     0.0115168     0.0232735
  H       -1.9180940     0.4562540     0.9212130
  H       -1.9177890     0.5695630    -0.8561490
  H       -1.9178910    -1.0261830    -0.0658340
units angstrom
no_reorient  #important for SAPT in psi4, default
symmetry c1  #important for SAPT in psi4, default
}

set PROPERTIES_ORIGIN ["COM"]
properties('MP2/aug-cc-pvtz', properties = ['dipole'])
--------------------------------------------------------------------------

    Molecular point group: c1
  Charge       = 0
  Multiplicity = 1
  Basis Set: AUG-CC-PVTZ
    Blend: AUG-CC-PVTZ
  Basis Set: (AUG-CC-PVTZ AUX)
    Blend: AUG-CC-PVTZ-JKFIT

    Orbital Energies [Eh]
    ---------------------

    Doubly Occupied:

       1A    -26.334278     2A    -26.332138     3A    -26.332062
       4A    -11.505128     5A    -11.261275     6A     -1.719912
       7A     -1.625777     8A     -1.625606     9A     -1.072987
      10A     -0.920794    11A     -0.815902    12A     -0.815755
      13A     -0.775915    14A     -0.706318    15A     -0.705076
      16A     -0.658745    17A     -0.658406    18A     -0.642644
      19A     -0.598312    20A     -0.582437    21A     -0.569700

  @DF-RHF Final Energy:  -375.97007314239835

   => Energetics <=

    Nuclear Repulsion Energy =            201.1142886910990057
    One-Electron Energy =                -921.6503896053698099
    Two-Electron Energy =                 344.5660277718724842
    Total Energy =                       -375.9700731423983484
  Basis Set: (AUG-CC-PVTZ AUX)
    Blend: AUG-CC-PVTZ-RI
    Molecular point group: c1

    Geometry (in Angstrom), charge = 0, multiplicity = 1:

       Center              X                  Y                   Z               Mass
    ------------   -----------------  -----------------  -----------------  -----------------
         F            0.459143395735    -0.555240689471    -1.120850833424    18.998403162730
         F            0.437004295735     1.249061010529     0.074741666576    18.998403162730
         F            0.437082295735    -0.697348989471     1.038843666576    18.998403162730
         C           -0.065740704265    -0.002701989471    -0.005249333424    12.000000000000
         C           -1.560545604265     0.008962810529     0.018116166576    12.000000000000
         H           -1.923057704265     0.453700010529     0.916055666576     1.007825032230
         H           -1.922752704265     0.567009010529    -0.861306333424     1.007825032230
         H           -1.922854704265    -1.028736989471    -0.070991333424     1.007825032230

  Basis Set: AUG-CC-PVTZ
    Blend: AUG-CC-PVTZ
  Basis Set: (AUG-CC-PVTZ AUX)
    Blend: AUG-CC-PVTZ-JKFIT
	 Reference Energy          =    -375.9700731423983484 [Eh]
	 Singles Energy            =      -0.0000000000000000 [Eh]
	 Same-Spin Energy          =      -0.2988780590455393 [Eh]
	 Opposite-Spin Energy      =      -0.8934552588557546 [Eh]
	 Correlation Energy        =      -1.1923333179012938 [Eh]
	 Total Energy              =    -377.1624064602996214 [Eh]

	 ================> DF-SCS-MP2 Energies <==================
	-----------------------------------------------------------
	 SCS Same-Spin Scale       =       0.3333333333333333 [-]
	 SCS Opposite-Spin Scale   =       1.2000000000000000 [-]
	 SCS Same-Spin Energy      =      -0.0996260196818464 [Eh]
	 SCS Opposite-Spin Energy  =      -1.0721463106269056 [Eh]
	 SCS Correlation Energy    =      -1.1717723303087519 [Eh]
	 SCS Total Energy          =    -377.1418454727070753 [Eh]
	-----------------------------------------------------------

  Dipole Moment: [D]
     X:    -2.4316      Y:    -0.0054      Z:    -0.0087     Total:     2.4316

*** Psi4 exiting successfully. Buy a developer a beer!
