                               Psi4 1.3.2 release

  ==> Input File <==

--------------------------------------------------------------------------
#psi4
#
memory 32 gb

molecule  {
0 1
  F        0.4771646    -0.4963152    -1.1357882
  F        0.4768564     1.2394591     0.0195654
  F        0.4420460    -0.6947950     1.0440010
  C       -0.0607770    -0.0001480    -0.0000920
  C       -1.5558100    -0.0000630    -0.0001080
  H       -1.9180940     0.4562540     0.9212130
  H       -1.9177890     0.5695630    -0.8561490
  H       -1.9178910    -1.0261830    -0.0658340
units angstrom
no_reorient  #important for SAPT in psi4, default
symmetry c1  #important for SAPT in psi4, default
}

set PROPERTIES_ORIGIN ["COM"]
properties('MP2/aug-cc-pvtz', properties = ['dipole'])
--------------------------------------------------------------------------

    Molecular point group: c1
  Charge       = 0
  Multiplicity = 1
  Basis Set: AUG-CC-PVTZ
    Blend: AUG-CC-PVTZ
  Basis Set: (AUG-CC-PVTZ AUX)
    Blend: AUG-CC-PVTZ-JKFIT

    Orbital Energies [Eh]
    ---------------------

    Doubly Occupied:

       1A    -26.336860     2A    -26.327843     3A    -26.327722
       4A    -11.504855     5A    -11.263216     6A     -1.720330
       7A     -1.630420     8A     -1.616324     9A     -1.073832
      10A     -0.920759    11A     -0.819143    12A     -0.809442
      13A     -0.776291    14A     -0.710057    15A     -0.699221
      16A     -0.660831    17A     -0.652820    18A     -0.636688
      19A     -0.592084    20A     -0.591219    21A     -0.573338

  @DF-RHF Final Energy:  -375.96860779124478

   => Energetics <=

    Nuclear Repulsion Energy =            201.2759988782286200
    One-Electron Energy =                -922.0026246606810219
    Two-Electron Energy =                 344.7580179912076233
    Total Energy =                       -375.9686077912447786
  Basis Set: (AUG-CC-PVTZ AUX)
    Blend: AUG-CC-PVTZ-RI
    Molecular point group: c1

    Geometry (in Angstrom), charge = 0, multiplicity = 1:

       Center              X                  Y                   Z               Mass
    ------------   -----------------  -----------------  -----------------  -----------------
         F            0.461391891254    -0.507213383365    -1.119419520752    18.998403162730
         F            0.461083691254     1.228560916635     0.035934079248    18.998403162730
         F            0.426273291254    -0.705693183365     1.060369679248    18.998403162730
         C           -0.076549708746    -0.011046183365     0.016276679248    12.000000000000
         C           -1.571582708746    -0.010961183365     0.016260679248    12.000000000000
         H           -1.933866708746     0.445355816635     0.937581679248     1.007825032230
         H           -1.933561708746     0.558664816635    -0.839780320752     1.007825032230
         H           -1.933663708746    -1.037081183365    -0.049465320752     1.007825032230

  Basis Set: AUG-CC-PVTZ
    Blend: AUG-CC-PVTZ
  Basis Set: (AUG-CC-PVTZ AUX)
    Blend: AUG-CC-PVTZ-JKFIT
	 Reference Energy          =    -375.9686077912447786 [Eh]
	 Singles Energy            =      -0.0000000000000000 [Eh]
	 Same-Spin Energy          =      -0.2988825619438036 [Eh]
	 Opposite-Spin Energy      =      -0.8933831796978198 [Eh]
	 Correlation Energy        =      -1.1922657416416234 [Eh]
	 Total Energy              =    -377.1608735328863986 [Eh]

	 ================> DF-SCS-MP2 Energies <==================
	-----------------------------------------------------------
	 SCS Same-Spin Scale       =       0.3333333333333333 [-]
	 SCS Opposite-Spin Scale   =       1.2000000000000000 [-]
	 SCS Same-Spin Energy      =      -0.0996275206479345 [Eh]
	 SCS Opposite-Spin Energy  =      -1.0720598156373837 [Eh]
	 SCS Correlation Energy    =      -1.1716873362853182 [Eh]
	 SCS Total Energy          =    -377.1402951275301234 [Eh]
	-----------------------------------------------------------

  Dipole Moment: [D]
     X:    -2.5267      Y:    -0.0769      Z:     0.1124     Total:     2.5303

*** Psi4 exiting successfully. Buy a developer a beer!
