                               Psi4 1.3.2 release

  ==> Input File <==

--------------------------------------------------------------------------
#psi4
#
memory 32 gb

molecule  {
0 1
  F        0.4423000    -0.5566670    -1.1237330
  F        0.4419680     1.2516150     0.0798990
  F        0.4420460    -0.6947950     1.0440010
  C       -0.0607770    -0.0001480    -0.0000920
  C       -1.3558100    -0.0000744    -0.0001059
  H       -1.9180940     0.4562540     0.9212130
  H       -1.9177890     0.5695630    -0.8561490
  H       -1.9178910    -1.0261830    -0.0658340
units angstrom
no_reorient  #important for SAPT in psi4, default
symmetry c1  #important for SAPT in psi4, default
}

set PROPERTIES_ORIGIN ["COM"]
properties('MP2/aug-cc-pvtz', properties = ['dipole'])
--------------------------------------------------------------------------

    Molecular point group: c1
  Charge       = 0
  Multiplicity = 1
  Basis Set: AUG-CC-PVTZ
    Blend: AUG-CC-PVTZ
  Basis Set: (AUG-CC-PVTZ AUX)
    Blend: AUG-CC-PVTZ-JKFIT

    Orbital Energies [Eh]
    ---------------------

    Doubly Occupied:

       1A    -26.330443     2A    -26.330395     3A    -26.330321
       4A    -11.493993     5A    -11.266304     6A     -1.721546
       7A     -1.625974     8A     -1.625863     9A     -1.126063
      10A     -0.910128    11A     -0.821603    12A     -0.821569
      13A     -0.778259    14A     -0.707246    15A     -0.707221
      16A     -0.657122    17A     -0.657065    18A     -0.642022
      19A     -0.619865    20A     -0.548180    21A     -0.548140

  @DF-RHF Final Energy:  -375.91360192080822

   => Energetics <=

    Nuclear Repulsion Energy =            205.1930997442911746
    One-Electron Energy =                -929.6747601336103344
    Two-Electron Energy =                 348.5680584685109125
    Total Energy =                       -375.9136019208082189
  Basis Set: (AUG-CC-PVTZ AUX)
    Blend: AUG-CC-PVTZ-RI
    Molecular point group: c1

    Geometry (in Angstrom), charge = 0, multiplicity = 1:

       Center              X                  Y                   Z               Mass
    ------------   -----------------  -----------------  -----------------  -----------------
         F            0.413734846460    -0.556665441915    -1.123733260752    18.998403162730
         F            0.413402846460     1.251616558085     0.079898739248    18.998403162730
         F            0.413480846460    -0.694793441915     1.044000739248    18.998403162730
         C           -0.089342153540    -0.000146441915    -0.000092260752    12.000000000000
         C           -1.384375153540    -0.000072841915    -0.000106160752    12.000000000000
         H           -1.946659153540     0.456255558085     0.921212739248     1.007825032230
         H           -1.946354153540     0.569564558085    -0.856149260752     1.007825032230
         H           -1.946456153540    -1.026181441915    -0.065834260752     1.007825032230

  Basis Set: AUG-CC-PVTZ
    Blend: AUG-CC-PVTZ
  Basis Set: (AUG-CC-PVTZ AUX)
    Blend: AUG-CC-PVTZ-JKFIT
	 Reference Energy          =    -375.9136019208082189 [Eh]
	 Singles Energy            =      -0.0000000000000000 [Eh]
	 Same-Spin Energy          =      -0.3019699474409488 [Eh]
	 Opposite-Spin Energy      =      -0.8976675332662774 [Eh]
	 Correlation Energy        =      -1.1996374807072261 [Eh]
	 Total Energy              =    -377.1132394015154432 [Eh]

	 ================> DF-SCS-MP2 Energies <==================
	-----------------------------------------------------------
	 SCS Same-Spin Scale       =       0.3333333333333333 [-]
	 SCS Opposite-Spin Scale   =       1.2000000000000000 [-]
	 SCS Same-Spin Energy      =      -0.1006566491469829 [Eh]
	 SCS Opposite-Spin Energy  =      -1.0772010399195329 [Eh]
	 SCS Correlation Energy    =      -1.1778576890665158 [Eh]
	 SCS Total Energy          =    -377.0914596098747325 [Eh]
	-----------------------------------------------------------

  Dipole Moment: [D]
     X:    -2.7243      Y:    -0.0015      Z:    -0.0009     Total:     2.7243

*** Psi4 exiting successfully. Buy a developer a beer!
