                               Psi4 1.3.2 release

  ==> Input File <==

--------------------------------------------------------------------------
#psi4
#
memory 32 gb

molecule  {
0 1
  F        0.4363525    -0.5665817    -1.1214234
  F        0.4360167     1.2533082     0.0899377
  F        0.4420460    -0.6947950     1.0440010
  C       -0.0607770    -0.0001480    -0.0000920
  C       -1.5558100    -0.0000630    -0.0001080
  H       -1.9180940     0.4562540     0.9212130
  H       -1.9177890     0.5695630    -0.8561490
  H       -1.9178910    -1.0261830    -0.0658340
units angstrom
no_reorient  #important for SAPT in psi4, default
symmetry c1  #important for SAPT in psi4, default
}

set PROPERTIES_ORIGIN ["COM"]
properties('MP2/aug-cc-pvtz', properties = ['dipole'])
--------------------------------------------------------------------------

    Molecular point group: c1
  Charge       = 0
  Multiplicity = 1
  Basis Set: AUG-CC-PVTZ
    Blend: AUG-CC-PVTZ
  Basis Set: (AUG-CC-PVTZ AUX)
    Blend: AUG-CC-PVTZ-JKFIT

    Orbital Energies [Eh]
    ---------------------

    Doubly Occupied:

       1A    -26.334443     2A    -26.334322     3A    -26.332986
       4A    -11.505227     5A    -11.259726     6A     -1.719784
       7A     -1.628049     8A     -1.625901     9A     -1.072347
      10A     -0.920612    11A     -0.817507    12A     -0.815966
      13A     -0.775383    14A     -0.707241    15A     -0.705523
      16A     -0.661109    17A     -0.659486    18A     -0.644111
      19A     -0.589016    20A     -0.588850    21A     -0.568717

  @DF-RHF Final Energy:  -375.97085317217943

   => Energetics <=

    Nuclear Repulsion Energy =            201.0500964562712056
    One-Electron Energy =                -921.5092868456930546
    Two-Electron Energy =                 344.4883372172423606
    Total Energy =                       -375.9708531721794316
  Basis Set: (AUG-CC-PVTZ AUX)
    Blend: AUG-CC-PVTZ-RI
    Molecular point group: c1

    Geometry (in Angstrom), charge = 0, multiplicity = 1:

       Center              X                  Y                   Z               Mass
    ------------   -----------------  -----------------  -----------------  -----------------
         F            0.439042991708    -0.564722714934    -1.124215572848    18.998403162730
         F            0.438707191708     1.255167185066     0.087145527152    18.998403162730
         F            0.444736491708    -0.692936014934     1.041208827152    18.998403162730
         C           -0.058086508292     0.001710985066    -0.002884172848    12.000000000000
         C           -1.553119508292     0.001795985066    -0.002900172848    12.000000000000
         H           -1.915403508292     0.458112985066     0.918420827152     1.007825032230
         H           -1.915098508292     0.571421985066    -0.858941172848     1.007825032230
         H           -1.915200508292    -1.024324014934    -0.068626172848     1.007825032230

  Basis Set: AUG-CC-PVTZ
    Blend: AUG-CC-PVTZ
  Basis Set: (AUG-CC-PVTZ AUX)
    Blend: AUG-CC-PVTZ-JKFIT
	 Reference Energy          =    -375.9708531721794316 [Eh]
	 Singles Energy            =      -0.0000000000000000 [Eh]
	 Same-Spin Energy          =      -0.2988916004015529 [Eh]
	 Opposite-Spin Energy      =      -0.8935142919166870 [Eh]
	 Correlation Energy        =      -1.1924058923182399 [Eh]
	 Total Energy              =    -377.1632590644976517 [Eh]

	 ================> DF-SCS-MP2 Energies <==================
	-----------------------------------------------------------
	 SCS Same-Spin Scale       =       0.3333333333333333 [-]
	 SCS Opposite-Spin Scale   =       1.2000000000000000 [-]
	 SCS Same-Spin Energy      =      -0.0996305334671843 [Eh]
	 SCS Opposite-Spin Energy  =      -1.0722171503000244 [Eh]
	 SCS Correlation Energy    =      -1.1718476837672087 [Eh]
	 SCS Total Energy          =    -377.1427008559466572 [Eh]
	-----------------------------------------------------------

  Dipole Moment: [D]
     X:    -2.3685      Y:     0.0111      Z:    -0.0198     Total:     2.3686

*** Psi4 exiting successfully. Buy a developer a beer!
