                               Psi4 1.3.2 release

  ==> Input File <==

--------------------------------------------------------------------------
#psi4
#
memory 32 gb

molecule  {
0 1
  F        0.4423000    -0.5566670    -1.1237330
  F        0.4419680     1.2516150     0.0798990
  F        0.4420460    -0.6947950     1.0440010
  C       -0.0628271    -0.0348736    -0.0702080
  C       -1.5558100    -0.0000630    -0.0001080
  H       -1.9714058     0.4472164     0.9029582
  H       -1.9177890     0.5695630    -0.8561490
  H       -1.9178910    -1.0261830    -0.0658340
units angstrom
no_reorient  #important for SAPT in psi4, default
symmetry c1  #important for SAPT in psi4, default
}

set PROPERTIES_ORIGIN ["COM"]
properties('MP2/aug-cc-pvtz', properties = ['dipole'])
--------------------------------------------------------------------------

    Molecular point group: c1
  Charge       = 0
  Multiplicity = 1
  Basis Set: AUG-CC-PVTZ
    Blend: AUG-CC-PVTZ
  Basis Set: (AUG-CC-PVTZ AUX)
    Blend: AUG-CC-PVTZ-JKFIT

    Orbital Energies [Eh]
    ---------------------

    Doubly Occupied:

       1A    -26.364252     2A    -26.318012     3A    -26.317939
       4A    -11.507389     5A    -11.260801     6A     -1.738397
       7A     -1.636041     8A     -1.600848     9A     -1.073002
      10A     -0.927426    11A     -0.824116    12A     -0.816939
      13A     -0.784175    14A     -0.706883    15A     -0.698883
      16A     -0.665859    17A     -0.651410    18A     -0.632134
      19A     -0.594165    20A     -0.587842    21A     -0.562955

  @DF-RHF Final Energy:  -375.96343835509259

   => Energetics <=

    Nuclear Repulsion Energy =            200.9817220914433165
    One-Electron Energy =                -921.3513793183527696
    Two-Electron Energy =                 344.4062188718168613
    Total Energy =                       -375.9634383550925918
  Basis Set: (AUG-CC-PVTZ AUX)
    Blend: AUG-CC-PVTZ-RI
    Molecular point group: c1

    Geometry (in Angstrom), charge = 0, multiplicity = 1:

       Center              X                  Y                   Z               Mass
    ------------   -----------------  -----------------  -----------------  -----------------
         F            0.443232215751    -0.551598965075    -1.113499646067    18.998403162730
         F            0.442900215751     1.256683034925     0.090132353933    18.998403162730
         F            0.442978215751    -0.689726965075     1.054234353933    18.998403162730
         C           -0.061894884249    -0.029805565075    -0.059974646067    12.000000000000
         C           -1.554877784249     0.005005034925     0.010125353933    12.000000000000
         H           -1.970473584249     0.452284434925     0.913191553933     1.007825032230
         H           -1.916856784249     0.574631034925    -0.845915646067     1.007825032230
         H           -1.916958784249    -1.021114965075    -0.055600646067     1.007825032230

  Basis Set: AUG-CC-PVTZ
    Blend: AUG-CC-PVTZ
  Basis Set: (AUG-CC-PVTZ AUX)
    Blend: AUG-CC-PVTZ-JKFIT
	 Reference Energy          =    -375.9634383550925918 [Eh]
	 Singles Energy            =      -0.0000000000000000 [Eh]
	 Same-Spin Energy          =      -0.2991250518874078 [Eh]
	 Opposite-Spin Energy      =      -0.8939238725985892 [Eh]
	 Correlation Energy        =      -1.1930489244859970 [Eh]
	 Total Energy              =    -377.1564872795785845 [Eh]

	 ================> DF-SCS-MP2 Energies <==================
	-----------------------------------------------------------
	 SCS Same-Spin Scale       =       0.3333333333333333 [-]
	 SCS Opposite-Spin Scale   =       1.2000000000000000 [-]
	 SCS Same-Spin Energy      =      -0.0997083506291359 [Eh]
	 SCS Opposite-Spin Energy  =      -1.0727086471183069 [Eh]
	 SCS Correlation Energy    =      -1.1724169977474428 [Eh]
	 SCS Total Energy          =    -377.1358553528400535 [Eh]
	-----------------------------------------------------------

  Dipole Moment: [D]
     X:    -2.4228      Y:    -0.2784      Z:    -0.5600     Total:     2.5022

*** Psi4 exiting successfully. Buy a developer a beer!
