                               Psi4 1.3.2 release

  ==> Input File <==

--------------------------------------------------------------------------
#psi4
#
memory 32 gb

molecule  {
0 1
  F        0.4182848    -0.5960641    -1.1139828
  F        0.4179375     1.2578145     0.1200098
  F        0.4420460    -0.6947950     1.0440010
  C       -0.0607770    -0.0001480    -0.0000920
  C       -1.5558100    -0.0000630    -0.0001080
  H       -1.9180940     0.4562540     0.9212130
  H       -1.9177890     0.5695630    -0.8561490
  H       -1.9178910    -1.0261830    -0.0658340
units angstrom
no_reorient  #important for SAPT in psi4, default
symmetry c1  #important for SAPT in psi4, default
}

set PROPERTIES_ORIGIN ["COM"]
properties('MP2/aug-cc-pvtz', properties = ['dipole'])
--------------------------------------------------------------------------

    Molecular point group: c1
  Charge       = 0
  Multiplicity = 1
  Basis Set: AUG-CC-PVTZ
    Blend: AUG-CC-PVTZ
  Basis Set: (AUG-CC-PVTZ AUX)
    Blend: AUG-CC-PVTZ-JKFIT

    Orbital Energies [Eh]
    ---------------------

    Doubly Occupied:

       1A    -26.336834     2A    -26.336712     3A    -26.331311
       4A    -11.505417     5A    -11.258195     6A     -1.719802
       7A     -1.632395     8A     -1.624041     9A     -1.071727
      10A     -0.920473    11A     -0.820665    12A     -0.814643
      13A     -0.775004    14A     -0.710484    15A     -0.703740
      16A     -0.665581    17A     -0.658923    18A     -0.644792
      19A     -0.588057    20A     -0.587303    21A     -0.566653

  @DF-RHF Final Energy:  -375.96973611744113

   => Energetics <=

    Nuclear Repulsion Energy =            201.0184305368807713
    One-Electron Energy =                -921.4308231406421328
    Two-Electron Energy =                 344.4426564863202884
    Total Energy =                       -375.9697361174411299
  Basis Set: (AUG-CC-PVTZ AUX)
    Blend: AUG-CC-PVTZ-RI
    Molecular point group: c1

    Geometry (in Angstrom), charge = 0, multiplicity = 1:

       Center              X                  Y                   Z               Mass
    ------------   -----------------  -----------------  -----------------  -----------------
         F            0.429148870986    -0.588557490009    -1.125257388418    18.998403162730
         F            0.428801570986     1.265321109991     0.108735211582    18.998403162730
         F            0.452910070986    -0.687288390009     1.032726411582    18.998403162730
         C           -0.049912929014     0.007358609991    -0.011366588418    12.000000000000
         C           -1.544945929014     0.007443609991    -0.011382588418    12.000000000000
         H           -1.907229929014     0.463760609991     0.909938411582     1.007825032230
         H           -1.906924929014     0.577069609991    -0.867423588418     1.007825032230
         H           -1.907026929014    -1.018676390009    -0.077108588418     1.007825032230

  Basis Set: AUG-CC-PVTZ
    Blend: AUG-CC-PVTZ
  Basis Set: (AUG-CC-PVTZ AUX)
    Blend: AUG-CC-PVTZ-JKFIT
	 Reference Energy          =    -375.9697361174411299 [Eh]
	 Singles Energy            =      -0.0000000000000000 [Eh]
	 Same-Spin Energy          =      -0.2989477483549106 [Eh]
	 Opposite-Spin Energy      =      -0.8936719428682819 [Eh]
	 Correlation Energy        =      -1.1926196912231926 [Eh]
	 Total Energy              =    -377.1623558086643015 [Eh]

	 ================> DF-SCS-MP2 Energies <==================
	-----------------------------------------------------------
	 SCS Same-Spin Scale       =       0.3333333333333333 [-]
	 SCS Opposite-Spin Scale   =       1.2000000000000000 [-]
	 SCS Same-Spin Energy      =      -0.0996492494516369 [Eh]
	 SCS Opposite-Spin Energy  =      -1.0724063314419383 [Eh]
	 SCS Correlation Energy    =      -1.1720555808935751 [Eh]
	 SCS Total Energy          =    -377.1417916983347141 [Eh]
	-----------------------------------------------------------

  Dipole Moment: [D]
     X:    -2.2995      Y:     0.0489      Z:    -0.0766     Total:     2.3013

*** Psi4 exiting successfully. Buy a developer a beer!
