                               Psi4 1.4a3.dev225

  ==> Input File <==

--------------------------------------------------------------------------
#psi4
#
memory 32 gb

molecule  {
0 1
  F        0.5247730    -0.8976320    -0.8822590
  F        0.5247660     1.2128770    -0.3362450
  F        0.5247720    -0.3152400     1.2185020
  C        0.0438223    -0.0331466    -0.0325770
  C       -1.4716790    -0.0000040     0.0000010
  H       -1.8303410     0.7341720     0.7216060
  H       -1.8303400     0.2578370    -0.9966170
  H       -1.8303400    -0.9920200     0.2750120
units angstrom
no_reorient  #important for SAPT in psi4, default
symmetry c1  #important for SAPT in psi4, default
}

set PROPERTIES_ORIGIN ["COM"]
properties('MP2/aug-cc-pvtz', properties = ['dipole'])
--------------------------------------------------------------------------

    Molecular point group: c1
  Charge       = 0
  Multiplicity = 1
  Basis Set: AUG-CC-PVTZ
    Blend: AUG-CC-PVTZ
  Basis Set: (AUG-CC-PVTZ AUX)
    Blend: AUG-CC-PVTZ-JKFIT

    Orbital Energies [Eh]
    ---------------------

    Doubly Occupied:

       1A    -26.353567     2A    -26.326771     3A    -26.326749
       4A    -11.505938     5A    -11.258966     6A     -1.728564
       7A     -1.639849     8A     -1.614905     9A     -1.065490
      10A     -0.924087    11A     -0.823928    12A     -0.817414
      13A     -0.778671    14A     -0.709892    15A     -0.703642
      16A     -0.668529    17A     -0.657969    18A     -0.641992
      19A     -0.588958    20A     -0.586526    21A     -0.558676

  @DF-RHF Final Energy:  -375.96860877044014

   => Energetics <=

    Nuclear Repulsion Energy =            200.8283203390708422
    One-Electron Energy =                -921.0316873115006047
    Two-Electron Energy =                 344.2347582019896208
    Total Energy =                       -375.9686087704401416
  Basis Set: (AUG-CC-PVTZ AUX)
    Blend: AUG-CC-PVTZ-RI
    Molecular point group: c1

    Geometry (in Angstrom), charge = 0, multiplicity = 1:

       Center              X                  Y                   Z               Mass
    ------------   -----------------  -----------------  -----------------  -----------------
         F            0.438588286433    -0.892898251834    -0.877605880388    18.998403162730
         F            0.438581286433     1.217610748166    -0.331591880388    18.998403162730
         F            0.438587286433    -0.310506251834     1.223155119612    18.998403162730
         C           -0.042362413567    -0.028412851834    -0.027923880388    12.000000000000
         C           -1.557863713567     0.004729748166     0.004654119612    12.000000000000
         H           -1.916525713567     0.738905748166     0.726259119612     1.007825032230
         H           -1.916524713567     0.262570748166    -0.991963880388     1.007825032230
         H           -1.916524713567    -0.987286251834     0.279665119612     1.007825032230

  Basis Set: AUG-CC-PVTZ
    Blend: AUG-CC-PVTZ
  Basis Set: (AUG-CC-PVTZ AUX)
    Blend: AUG-CC-PVTZ-JKFIT
	 Reference Energy          =    -375.9686087704401416 [Eh]
	 Singles Energy            =      -0.0000000000000000 [Eh]
	 Same-Spin Energy          =      -0.2987716485196054 [Eh]
	 Opposite-Spin Energy      =      -0.8933746077780833 [Eh]
	 Correlation Energy        =      -1.1921462562976886 [Eh]
	 Total Energy              =    -377.1607550267378315 [Eh]

	 ================> DF-SCS-MP2 Energies <==================
	-----------------------------------------------------------
	 SCS Same-Spin Scale       =       0.3333333333333333 [-]
	 SCS Opposite-Spin Scale   =       1.2000000000000000 [-]
	 SCS Same-Spin Energy      =      -0.0995905495065351 [Eh]
	 SCS Opposite-Spin Energy  =      -1.0720495293337000 [Eh]
	 SCS Correlation Energy    =      -1.1716400788402350 [Eh]
	 SCS Total Energy          =    -377.1402488492803968 [Eh]
	-----------------------------------------------------------

  Dipole Moment: [D]
     X:    -2.2405      Y:    -0.2639      Z:    -0.2593     Total:     2.2709

*** Psi4 exiting successfully. Buy a developer a beer!
