                               Psi4 1.3.2 release

  ==> Input File <==

--------------------------------------------------------------------------
#psi4
#
memory 32 gb

molecule  {
0 1
  F        0.4423000    -0.5566670    -1.1237330
  F        0.4419680     1.2516150     0.0798990
  F        0.4420460    -0.6947950     1.0440010
  C        0.0136943    -0.0825304    -0.1664265
  C       -1.5558100    -0.0000630    -0.0001080
  H       -1.9180940     0.4562540     0.9212130
  H       -1.9177890     0.5695630    -0.8561490
  H       -1.9178910    -1.0261830    -0.0658340
units angstrom
no_reorient  #important for SAPT in psi4, default
symmetry c1  #important for SAPT in psi4, default
}

set PROPERTIES_ORIGIN ["COM"]
properties('MP2/aug-cc-pvtz', properties = ['dipole'])
--------------------------------------------------------------------------

    Molecular point group: c1
  Charge       = 0
  Multiplicity = 1
  Basis Set: AUG-CC-PVTZ
    Blend: AUG-CC-PVTZ
  Basis Set: (AUG-CC-PVTZ AUX)
    Blend: AUG-CC-PVTZ-JKFIT

    Orbital Energies [Eh]
    ---------------------

    Doubly Occupied:

       1A    -26.415764     2A    -26.301661     3A    -26.301587
       4A    -11.508891     5A    -11.255207     6A     -1.837233
       7A     -1.627703     8A     -1.578766     9A     -1.052206
      10A     -0.968806    11A     -0.862899    12A     -0.858822
      13A     -0.809798    14A     -0.697829    15A     -0.687557
      16A     -0.670172    17A     -0.645442    18A     -0.614271
      19A     -0.586570    20A     -0.576043    21A     -0.520769

  @DF-RHF Final Energy:  -375.92035351013254

   => Energetics <=

    Nuclear Repulsion Energy =            201.7883799018120499
    One-Electron Energy =                -922.6614678599606805
    Two-Electron Energy =                 344.9527344480160878
    Total Energy =                       -375.9203535101325429
  Basis Set: (AUG-CC-PVTZ AUX)
    Blend: AUG-CC-PVTZ-RI
    Molecular point group: c1

    Geometry (in Angstrom), charge = 0, multiplicity = 1:

       Center              X                  Y                   Z               Mass
    ------------   -----------------  -----------------  -----------------  -----------------
         F            0.431663529912    -0.544900773081    -1.099976173744    18.998403162730
         F            0.431331529912     1.263381226919     0.103655826256    18.998403162730
         F            0.431409529912    -0.683028773081     1.067757826256    18.998403162730
         C            0.003057829912    -0.070764173081    -0.142669673744    12.000000000000
         C           -1.566446470088     0.011703226919     0.023648826256    12.000000000000
         H           -1.928730470088     0.468020226919     0.944969826256     1.007825032230
         H           -1.928425470088     0.581329226919    -0.832392173744     1.007825032230
         H           -1.928527470088    -1.014416773081    -0.042077173744     1.007825032230

  Basis Set: AUG-CC-PVTZ
    Blend: AUG-CC-PVTZ
  Basis Set: (AUG-CC-PVTZ AUX)
    Blend: AUG-CC-PVTZ-JKFIT
	 Reference Energy          =    -375.9203535101325429 [Eh]
	 Singles Energy            =      -0.0000000000000000 [Eh]
	 Same-Spin Energy          =      -0.2991710894016503 [Eh]
	 Opposite-Spin Energy      =      -0.8936744300720044 [Eh]
	 Correlation Energy        =      -1.1928455194736547 [Eh]
	 Total Energy              =    -377.1131990296062213 [Eh]

	 ================> DF-SCS-MP2 Energies <==================
	-----------------------------------------------------------
	 SCS Same-Spin Scale       =       0.3333333333333333 [-]
	 SCS Opposite-Spin Scale   =       1.2000000000000000 [-]
	 SCS Same-Spin Energy      =      -0.0997236964672168 [Eh]
	 SCS Opposite-Spin Energy  =      -1.0724093160864052 [Eh]
	 SCS Correlation Energy    =      -1.1721330125536220 [Eh]
	 SCS Total Energy          =    -377.0924865226861584 [Eh]
	-----------------------------------------------------------

  Dipole Moment: [D]
     X:    -1.8253      Y:    -0.6943      Z:    -1.3996     Total:     2.4026

*** Psi4 exiting successfully. Buy a developer a beer!
