                               Psi4 1.3.2 release

  ==> Input File <==

--------------------------------------------------------------------------
#psi4
#
memory 32 gb

molecule  {
0 1
  F        0.4423000    -0.5566670    -1.1237330
  F        0.4419680     1.2516150     0.0798990
  F        0.4420460    -0.6947950     1.0440010
  C       -0.0980127     0.0410432     0.0830752
  C       -1.5558100    -0.0000630    -0.0001080
  H       -1.9180940     0.4562540     0.9212130
  H       -1.9177890     0.5695630    -0.8561490
  H       -1.9178910    -1.0261830    -0.0658340
units angstrom
no_reorient  #important for SAPT in psi4, default
symmetry c1  #important for SAPT in psi4, default
}

set PROPERTIES_ORIGIN ["COM"]
properties('MP2/aug-cc-pvtz', properties = ['dipole'])
--------------------------------------------------------------------------

    Molecular point group: c1
  Charge       = 0
  Multiplicity = 1
  Basis Set: AUG-CC-PVTZ
    Blend: AUG-CC-PVTZ
  Basis Set: (AUG-CC-PVTZ AUX)
    Blend: AUG-CC-PVTZ-JKFIT

    Orbital Energies [Eh]
    ---------------------

    Doubly Occupied:

       1A    -26.347451     2A    -26.347372     3A    -26.294420
       4A    -11.508658     5A    -11.264052     6A     -1.724470
       7A     -1.647348     8A     -1.579398     9A     -1.087178
      10A     -0.921931    11A     -0.823464    12A     -0.805296
      13A     -0.778816    14A     -0.711944    15A     -0.688188
      16A     -0.672467    17A     -0.632677    18A     -0.626278
      19A     -0.601017    20A     -0.594789    21A     -0.571329

  @DF-RHF Final Energy:  -375.95984130255653

   => Energetics <=

    Nuclear Repulsion Energy =            200.7999684817986292
    One-Electron Energy =                -921.0625350126751982
    Two-Electron Energy =                 344.3027252283200710
    Total Energy =                       -375.9598413025565264
  Basis Set: (AUG-CC-PVTZ AUX)
    Blend: AUG-CC-PVTZ-RI
    Molecular point group: c1

    Geometry (in Angstrom), charge = 0, multiplicity = 1:

       Center              X                  Y                   Z               Mass
    ------------   -----------------  -----------------  -----------------  -----------------
         F            0.447618123901    -0.562550218646    -1.135611347215    18.998403162730
         F            0.447286123901     1.245731781354     0.068020652785    18.998403162730
         F            0.447364123901    -0.700678218646     1.032122652785    18.998403162730
         C           -0.092694576099     0.035159981354     0.071196852785    12.000000000000
         C           -1.550491876099    -0.005946218646    -0.011986347215    12.000000000000
         H           -1.912775876099     0.450370781354     0.909334652785     1.007825032230
         H           -1.912470876099     0.563679781354    -0.868027347215     1.007825032230
         H           -1.912572876099    -1.032066218646    -0.077712347215     1.007825032230

  Basis Set: AUG-CC-PVTZ
    Blend: AUG-CC-PVTZ
  Basis Set: (AUG-CC-PVTZ AUX)
    Blend: AUG-CC-PVTZ-JKFIT
	 Reference Energy          =    -375.9598413025565264 [Eh]
	 Singles Energy            =      -0.0000000000000000 [Eh]
	 Same-Spin Energy          =      -0.2997447214685289 [Eh]
	 Opposite-Spin Energy      =      -0.8953079138730025 [Eh]
	 Correlation Energy        =      -1.1950526353415314 [Eh]
	 Total Energy              =    -377.1548939378980663 [Eh]

	 ================> DF-SCS-MP2 Energies <==================
	-----------------------------------------------------------
	 SCS Same-Spin Scale       =       0.3333333333333333 [-]
	 SCS Opposite-Spin Scale   =       1.2000000000000000 [-]
	 SCS Same-Spin Energy      =      -0.0999149071561763 [Eh]
	 SCS Opposite-Spin Energy  =      -1.0743694966476030 [Eh]
	 SCS Correlation Energy    =      -1.1742844038037792 [Eh]
	 SCS Total Energy          =    -377.1341257063602939 [Eh]
	-----------------------------------------------------------

  Dipole Moment: [D]
     X:    -2.6661      Y:     0.3185      Z:     0.6453     Total:     2.7616

*** Psi4 exiting successfully. Buy a developer a beer!
