                               Psi4 1.3.2 release

  ==> Input File <==

--------------------------------------------------------------------------
#psi4
#
memory 32 gb

molecule  {
0 1
  F        0.4540795    -0.5367111    -1.1280954
  F        0.4537554     1.2479428     0.0598040
  F        0.4420460    -0.6947950     1.0440010
  C       -0.0607770    -0.0001480    -0.0000920
  C       -1.5558100    -0.0000630    -0.0001080
  H       -1.9180940     0.4562540     0.9212130
  H       -1.9177890     0.5695630    -0.8561490
  H       -1.9178910    -1.0261830    -0.0658340
units angstrom
no_reorient  #important for SAPT in psi4, default
symmetry c1  #important for SAPT in psi4, default
}

set PROPERTIES_ORIGIN ["COM"]
properties('MP2/aug-cc-pvtz', properties = ['dipole'])
--------------------------------------------------------------------------

    Molecular point group: c1
  Charge       = 0
  Multiplicity = 1
  Basis Set: AUG-CC-PVTZ
    Blend: AUG-CC-PVTZ
  Basis Set: (AUG-CC-PVTZ AUX)
    Blend: AUG-CC-PVTZ-JKFIT

    Orbital Energies [Eh]
    ---------------------

    Doubly Occupied:

       1A    -26.334654     2A    -26.331798     3A    -26.331676
       4A    -11.505058     5A    -11.261236     6A     -1.719904
       7A     -1.627802     8A     -1.623310     9A     -1.072977
      10A     -0.920706    11A     -0.817312    12A     -0.814169
      13A     -0.775765    14A     -0.707385    15A     -0.703879
      16A     -0.660050    17A     -0.656987    18A     -0.642187
      19A     -0.590314    20A     -0.589959    21A     -0.570726

  @DF-RHF Final Energy:  -375.97077991938858

   => Energetics <=

    Nuclear Repulsion Energy =            201.1199144414261184
    One-Electron Energy =                -921.6656867588296791
    Two-Electron Energy =                 344.5749923980150129
    Total Energy =                       -375.9707799193885762
  Basis Set: (AUG-CC-PVTZ AUX)
    Blend: AUG-CC-PVTZ-RI
    Molecular point group: c1

    Geometry (in Angstrom), charge = 0, multiplicity = 1:

       Center              X                  Y                   Z               Mass
    ------------   -----------------  -----------------  -----------------  -----------------
         F            0.448750446170    -0.540393259401    -1.122565024944    18.998403162730
         F            0.448426346170     1.244260640599     0.065334375056    18.998403162730
         F            0.436716946170    -0.698477159401     1.049531375056    18.998403162730
         C           -0.066106053830    -0.003830159401     0.005438375056    12.000000000000
         C           -1.561139053830    -0.003745159401     0.005422375056    12.000000000000
         H           -1.923423053830     0.452571840599     0.926743375056     1.007825032230
         H           -1.923118053830     0.565880840599    -0.850618624944     1.007825032230
         H           -1.923220053830    -1.029865159401    -0.060303624944     1.007825032230

  Basis Set: AUG-CC-PVTZ
    Blend: AUG-CC-PVTZ
  Basis Set: (AUG-CC-PVTZ AUX)
    Blend: AUG-CC-PVTZ-JKFIT
	 Reference Energy          =    -375.9707799193885762 [Eh]
	 Singles Energy            =      -0.0000000000000000 [Eh]
	 Same-Spin Energy          =      -0.2988659736690097 [Eh]
	 Opposite-Spin Energy      =      -0.8934162535087014 [Eh]
	 Correlation Energy        =      -1.1922822271777109 [Eh]
	 Total Energy              =    -377.1630621465662898 [Eh]

	 ================> DF-SCS-MP2 Energies <==================
	-----------------------------------------------------------
	 SCS Same-Spin Scale       =       0.3333333333333333 [-]
	 SCS Opposite-Spin Scale   =       1.2000000000000000 [-]
	 SCS Same-Spin Energy      =      -0.0996219912230032 [Eh]
	 SCS Opposite-Spin Energy  =      -1.0720995042104415 [Eh]
	 SCS Correlation Energy    =      -1.1717214954334447 [Eh]
	 SCS Total Energy          =    -377.1425014148219930 [Eh]
	-----------------------------------------------------------

  Dipole Moment: [D]
     X:    -2.4368      Y:    -0.0267      Z:     0.0370     Total:     2.4372

*** Psi4 exiting successfully. Buy a developer a beer!
