                               Psi4 1.3.2 release

  ==> Input File <==

--------------------------------------------------------------------------
#psi4
#
memory 32 gb

molecule  {
0 1
  F        0.4423000    -0.5566670    -1.1237330
  F        0.4419680     1.2516150     0.0798990
  F        0.4420460    -0.6947950     1.0440010
  C       -0.1352483     0.0822344     0.1662425
  C       -1.5558100    -0.0000630    -0.0001080
  H       -1.9180940     0.4562540     0.9212130
  H       -1.9177890     0.5695630    -0.8561490
  H       -1.9178910    -1.0261830    -0.0658340
units angstrom
no_reorient  #important for SAPT in psi4, default
symmetry c1  #important for SAPT in psi4, default
}

set PROPERTIES_ORIGIN ["COM"]
properties('MP2/aug-cc-pvtz', properties = ['dipole'])
--------------------------------------------------------------------------

    Molecular point group: c1
  Charge       = 0
  Multiplicity = 1
  Basis Set: AUG-CC-PVTZ
    Blend: AUG-CC-PVTZ
  Basis Set: (AUG-CC-PVTZ AUX)
    Blend: AUG-CC-PVTZ-JKFIT

    Orbital Energies [Eh]
    ---------------------

    Doubly Occupied:

       1A    -26.361032     2A    -26.360950     3A    -26.253648
       4A    -11.516257     5A    -11.269502     6A     -1.737792
       7A     -1.665859     8A     -1.529063     9A     -1.102679
      10A     -0.929125    11A     -0.836290    12A     -0.803462
      13A     -0.788057    14A     -0.719402    15A     -0.686831
      16A     -0.668494    17A     -0.626435    18A     -0.607389
      19A     -0.591810    20A     -0.589011    21A     -0.554332

  @DF-RHF Final Energy:  -375.93476977011613

   => Energetics <=

    Nuclear Repulsion Energy =            200.4632563362571602
    One-Electron Energy =                -920.4012161457030743
    Two-Electron Energy =                 344.0031900393298088
    Total Energy =                       -375.9347697701161337
  Basis Set: (AUG-CC-PVTZ AUX)
    Blend: AUG-CC-PVTZ-RI
    Molecular point group: c1

    Geometry (in Angstrom), charge = 0, multiplicity = 1:

       Center              X                  Y                   Z               Mass
    ------------   -----------------  -----------------  -----------------  -----------------
         F            0.452936312375    -0.568433367167    -1.147489747894    18.998403162730
         F            0.452604312375     1.239848632833     0.056142252106    18.998403162730
         F            0.452682312375    -0.706561367167     1.020244252106    18.998403162730
         C           -0.124611987625     0.070468032833     0.142485752106    12.000000000000
         C           -1.545173687625    -0.011829367167    -0.023864747894    12.000000000000
         H           -1.907457687625     0.444487632833     0.897456252106     1.007825032230
         H           -1.907152687625     0.557796632833    -0.879905747894     1.007825032230
         H           -1.907254687625    -1.037949367167    -0.089590747894     1.007825032230

  Basis Set: AUG-CC-PVTZ
    Blend: AUG-CC-PVTZ
  Basis Set: (AUG-CC-PVTZ AUX)
    Blend: AUG-CC-PVTZ-JKFIT
	 Reference Energy          =    -375.9347697701161337 [Eh]
	 Singles Energy            =      -0.0000000000000000 [Eh]
	 Same-Spin Energy          =      -0.3011091828130728 [Eh]
	 Opposite-Spin Energy      =      -0.8977849816319980 [Eh]
	 Correlation Energy        =      -1.1988941644450708 [Eh]
	 Total Energy              =    -377.1336639345611843 [Eh]

	 ================> DF-SCS-MP2 Energies <==================
	-----------------------------------------------------------
	 SCS Same-Spin Scale       =       0.3333333333333333 [-]
	 SCS Opposite-Spin Scale   =       1.2000000000000000 [-]
	 SCS Same-Spin Energy      =      -0.1003697276043576 [Eh]
	 SCS Opposite-Spin Energy  =      -1.0773419779583977 [Eh]
	 SCS Correlation Energy    =      -1.1777117055627553 [Eh]
	 SCS Total Energy          =    -377.1124814756788624 [Eh]
	-----------------------------------------------------------

  Dipole Moment: [D]
     X:    -2.9498      Y:     0.6370      Z:     1.2883     Total:     3.2813

*** Psi4 exiting successfully. Buy a developer a beer!
