                               Psi4 1.3.2 release

  ==> Input File <==

--------------------------------------------------------------------------
#psi4
#
memory 32 gb

molecule  {
0 1
  F        0.4423000    -0.5566670    -1.1237330
  F        0.4419680     1.2516150     0.0798990
  F        0.4420460    -0.6947950     1.0440010
  C       -0.0628247     0.0345778     0.0700239
  C       -1.5558100    -0.0000630    -0.0001080
  H       -1.8637892     0.4640409     0.9369425
  H       -1.9177890     0.5695630    -0.8561490
  H       -1.9178910    -1.0261830    -0.0658340
units angstrom
no_reorient  #important for SAPT in psi4, default
symmetry c1  #important for SAPT in psi4, default
}

set PROPERTIES_ORIGIN ["COM"]
properties('MP2/aug-cc-pvtz', properties = ['dipole'])
--------------------------------------------------------------------------

    Molecular point group: c1
  Charge       = 0
  Multiplicity = 1
  Basis Set: AUG-CC-PVTZ
    Blend: AUG-CC-PVTZ
  Basis Set: (AUG-CC-PVTZ AUX)
    Blend: AUG-CC-PVTZ-JKFIT

    Orbital Energies [Eh]
    ---------------------

    Doubly Occupied:

       1A    -26.348283     2A    -26.348203     3A    -26.302357
       4A    -11.505750     5A    -11.261267     6A     -1.729925
       7A     -1.651559     8A     -1.592257     9A     -1.074437
      10A     -0.924404    11A     -0.828082    12A     -0.812046
      13A     -0.779088    14A     -0.714546    15A     -0.693460
      16A     -0.675544    17A     -0.642126    18A     -0.633128
      19A     -0.597779    20A     -0.590604    21A     -0.559294

  @DF-RHF Final Energy:  -375.96440919809766

   => Energetics <=

    Nuclear Repulsion Energy =            201.1605727972362558
    One-Electron Energy =                -921.7216869254281164
    Two-Electron Energy =                 344.5967049300942335
    Total Energy =                       -375.9644091980976555
  Basis Set: (AUG-CC-PVTZ AUX)
    Blend: AUG-CC-PVTZ-RI
    Molecular point group: c1

    Geometry (in Angstrom), charge = 0, multiplicity = 1:

       Center              X                  Y                   Z               Mass
    ------------   -----------------  -----------------  -----------------  -----------------
         F            0.441940985070    -0.561720201280    -1.133935969686    18.998403162730
         F            0.441608985070     1.246561798720     0.069696030314    18.998403162730
         F            0.441686985070    -0.699848201280     1.033798030314    18.998403162730
         C           -0.063183714930     0.029524598720     0.059820930314    12.000000000000
         C           -1.556169014930    -0.005116201280    -0.010310969686    12.000000000000
         H           -1.864148214930     0.458987698720     0.926739530314     1.007825032230
         H           -1.918148014930     0.564509798720    -0.866351969686     1.007825032230
         H           -1.918250014930    -1.031236201280    -0.076036969686     1.007825032230

  Basis Set: AUG-CC-PVTZ
    Blend: AUG-CC-PVTZ
  Basis Set: (AUG-CC-PVTZ AUX)
    Blend: AUG-CC-PVTZ-JKFIT
	 Reference Energy          =    -375.9644091980976555 [Eh]
	 Singles Energy            =      -0.0000000000000000 [Eh]
	 Same-Spin Energy          =      -0.2991518542646829 [Eh]
	 Opposite-Spin Energy      =      -0.8939256530736481 [Eh]
	 Correlation Energy        =      -1.1930775073383311 [Eh]
	 Total Energy              =    -377.1574867054359856 [Eh]

	 ================> DF-SCS-MP2 Energies <==================
	-----------------------------------------------------------
	 SCS Same-Spin Scale       =       0.3333333333333333 [-]
	 SCS Opposite-Spin Scale   =       1.2000000000000000 [-]
	 SCS Same-Spin Energy      =      -0.0997172847548943 [Eh]
	 SCS Opposite-Spin Energy  =      -1.0727107836883778 [Eh]
	 SCS Correlation Energy    =      -1.1724280684432722 [Eh]
	 SCS Total Energy          =    -377.1368372665409083 [Eh]
	-----------------------------------------------------------

  Dipole Moment: [D]
     X:    -2.3893      Y:     0.2707      Z:     0.5487     Total:     2.4664

*** Psi4 exiting successfully. Buy a developer a beer!
