                               Psi4 1.4a3.dev225

  ==> Input File <==

--------------------------------------------------------------------------
#psi4
#
memory 32 gb

molecule  {
0 1
  F        0.5247730    -0.8976320    -0.8822590
  F        0.5247660     1.2128770    -0.3362450
  F        0.5247720    -0.3152400     1.2185020
  C        0.0253820    -0.0000010     0.0000010
  C       -1.4916790    -0.0000040     0.0000010
  H       -1.8303410     0.7341720     0.7216060
  H       -1.8303400     0.2578370    -0.9966170
  H       -1.8303400    -0.9920200     0.2750120
units angstrom
no_reorient  #important for SAPT in psi4, default
symmetry c1  #important for SAPT in psi4, default
}

set PROPERTIES_ORIGIN ["COM"]
properties('MP2/aug-cc-pvtz', properties = ['dipole'])
--------------------------------------------------------------------------

    Molecular point group: c1
  Charge       = 0
  Multiplicity = 1
  Basis Set: AUG-CC-PVTZ
    Blend: AUG-CC-PVTZ
  Basis Set: (AUG-CC-PVTZ AUX)
    Blend: AUG-CC-PVTZ-JKFIT

    Orbital Energies [Eh]
    ---------------------

    Doubly Occupied:

       1A    -26.334186     2A    -26.334185     3A    -26.334154
       4A    -11.506697     5A    -11.260281     6A     -1.717631
       7A     -1.626065     8A     -1.626064     9A     -1.068287
      10A     -0.920689    11A     -0.815070    12A     -0.815070
      13A     -0.773817    14A     -0.705661    15A     -0.705661
      16A     -0.660168    17A     -0.660168    18A     -0.644298
      19A     -0.593336    20A     -0.593335    21A     -0.562319

  @DF-RHF Final Energy:  -375.97013137870272

   => Energetics <=

    Nuclear Repulsion Energy =            200.3212543052829915
    One-Electron Energy =                -920.0684859641397679
    Two-Electron Energy =                 343.7771002801540590
    Total Energy =                       -375.9701313787027175
  Basis Set: (AUG-CC-PVTZ AUX)
    Blend: AUG-CC-PVTZ-RI
    Molecular point group: c1

    Geometry (in Angstrom), charge = 0, multiplicity = 1:

       Center              X                  Y                   Z               Mass
    ------------   -----------------  -----------------  -----------------  -----------------
         F            0.444078536635    -0.897632284531    -0.882258845404    18.998403162730
         F            0.444071536635     1.212876715469    -0.336244845404    18.998403162730
         F            0.444077536635    -0.315240284531     1.218502154596    18.998403162730
         C           -0.055312463365    -0.000001284531     0.000001154596    12.000000000000
         C           -1.572373463365    -0.000004284531     0.000001154596    12.000000000000
         H           -1.911035463365     0.734171715469     0.721606154596     1.007825032230
         H           -1.911034463365     0.257836715469    -0.996616845404     1.007825032230
         H           -1.911034463365    -0.992020284531     0.275012154596     1.007825032230

  Basis Set: AUG-CC-PVTZ
    Blend: AUG-CC-PVTZ
  Basis Set: (AUG-CC-PVTZ AUX)
    Blend: AUG-CC-PVTZ-JKFIT
	 Reference Energy          =    -375.9701313787027175 [Eh]
	 Singles Energy            =      -0.0000000000000000 [Eh]
	 Same-Spin Energy          =      -0.2988395184700978 [Eh]
	 Opposite-Spin Energy      =      -0.8937714201246486 [Eh]
	 Correlation Energy        =      -1.1926109385947465 [Eh]
	 Total Energy              =    -377.1627423172974432 [Eh]

	 ================> DF-SCS-MP2 Energies <==================
	-----------------------------------------------------------
	 SCS Same-Spin Scale       =       0.3333333333333333 [-]
	 SCS Opposite-Spin Scale   =       1.2000000000000000 [-]
	 SCS Same-Spin Energy      =      -0.0996131728233659 [Eh]
	 SCS Opposite-Spin Energy  =      -1.0725257041495784 [Eh]
	 SCS Correlation Energy    =      -1.1721388769729444 [Eh]
	 SCS Total Energy          =    -377.1422702556756690 [Eh]
	-----------------------------------------------------------

  Dipole Moment: [D]
     X:    -2.3531      Y:    -0.0000      Z:     0.0000     Total:     2.3531

*** Psi4 exiting successfully. Buy a developer a beer!
