                               Psi4 1.3.2 release

  ==> Input File <==

--------------------------------------------------------------------------
#psi4
#
memory 32 gb

molecule  {
0 1
  F        0.3759861    -0.5675861    -1.1457887
  F        0.4419680     1.2516150     0.0798990
  F        0.4420460    -0.6947950     1.0440010
  C       -0.0607770    -0.0001480    -0.0000920
  C       -1.5537623    -0.0347884    -0.0702241
  H       -1.9180940     0.4562540     0.9212130
  H       -1.9177890     0.5695630    -0.8561490
  H       -1.9178910    -1.0261830    -0.0658340
units angstrom
no_reorient  #important for SAPT in psi4, default
symmetry c1  #important for SAPT in psi4, default
}

set PROPERTIES_ORIGIN ["COM"]
properties('MP2/aug-cc-pvtz', properties = ['dipole'])
--------------------------------------------------------------------------

    Molecular point group: c1
  Charge       = 0
  Multiplicity = 1
  Basis Set: AUG-CC-PVTZ
    Blend: AUG-CC-PVTZ
  Basis Set: (AUG-CC-PVTZ AUX)
    Blend: AUG-CC-PVTZ-JKFIT

    Orbital Energies [Eh]
    ---------------------

    Doubly Occupied:

       1A    -26.337905     2A    -26.337828     3A    -26.331867
       4A    -11.506038     5A    -11.258482     6A     -1.720053
       7A     -1.629384     8A     -1.629278     9A     -1.071797
      10A     -0.921140    11A     -0.818572    12A     -0.818323
      13A     -0.775976    14A     -0.709612    15A     -0.705945
      16A     -0.663802    17A     -0.662996    18A     -0.646831
      19A     -0.608983    20A     -0.578379    21A     -0.549624

  @DF-RHF Final Energy:  -375.96260041800338

   => Energetics <=

    Nuclear Repulsion Energy =            201.0083602570954042
    One-Electron Energy =                -921.3762948130120094
    Two-Electron Energy =                 344.4053341379132007
    Total Energy =                       -375.9626004180033760
  Basis Set: (AUG-CC-PVTZ AUX)
    Blend: AUG-CC-PVTZ-RI
    Molecular point group: c1

    Geometry (in Angstrom), charge = 0, multiplicity = 1:

       Center              X                  Y                   Z               Mass
    ------------   -----------------  -----------------  -----------------  -----------------
         F            0.390688534205    -0.560157462247    -1.130787041990    18.998403162730
         F            0.456670434205     1.259043637753     0.094900658010    18.998403162730
         F            0.456748434205    -0.687366362247     1.059002658010    18.998403162730
         C           -0.046074565795     0.007280637753     0.014909658010    12.000000000000
         C           -1.539059865795    -0.027359762247    -0.055222441990    12.000000000000
         H           -1.903391565795     0.463682637753     0.936214658010     1.007825032230
         H           -1.903086565795     0.576991637753    -0.841147341990     1.007825032230
         H           -1.903188565795    -1.018754362247    -0.050832341990     1.007825032230

  Basis Set: AUG-CC-PVTZ
    Blend: AUG-CC-PVTZ
  Basis Set: (AUG-CC-PVTZ AUX)
    Blend: AUG-CC-PVTZ-JKFIT
	 Reference Energy          =    -375.9626004180033760 [Eh]
	 Singles Energy            =      -0.0000000000000000 [Eh]
	 Same-Spin Energy          =      -0.2990908028933975 [Eh]
	 Opposite-Spin Energy      =      -0.8940893351095671 [Eh]
	 Correlation Energy        =      -1.1931801380029645 [Eh]
	 Total Energy              =    -377.1557805560063343 [Eh]

	 ================> DF-SCS-MP2 Energies <==================
	-----------------------------------------------------------
	 SCS Same-Spin Scale       =       0.3333333333333333 [-]
	 SCS Opposite-Spin Scale   =       1.2000000000000000 [-]
	 SCS Same-Spin Energy      =      -0.0996969342977992 [Eh]
	 SCS Opposite-Spin Energy  =      -1.0729072021314805 [Eh]
	 SCS Correlation Energy    =      -1.1726041364292796 [Eh]
	 SCS Total Energy          =    -377.1352045544326756 [Eh]
	-----------------------------------------------------------

  Dipole Moment: [D]
     X:    -2.2483      Y:     0.0015      Z:     0.0051     Total:     2.2483

*** Psi4 exiting successfully. Buy a developer a beer!
