                               Psi4 1.3.2 release

  ==> Input File <==

--------------------------------------------------------------------------
#psi4
#
memory 32 gb

molecule  {
0 1
  F        0.4482092    -0.5467099    -1.1259571
  F        0.4478811     1.2498265     0.0698542
  F        0.4420460    -0.6947950     1.0440010
  C       -0.0607770    -0.0001480    -0.0000920
  C       -1.5558100    -0.0000630    -0.0001080
  H       -1.9180940     0.4562540     0.9212130
  H       -1.9177890     0.5695630    -0.8561490
  H       -1.9178910    -1.0261830    -0.0658340
units angstrom
no_reorient  #important for SAPT in psi4, default
symmetry c1  #important for SAPT in psi4, default
}

set PROPERTIES_ORIGIN ["COM"]
properties('MP2/aug-cc-pvtz', properties = ['dipole'])
--------------------------------------------------------------------------

    Molecular point group: c1
  Charge       = 0
  Multiplicity = 1
  Basis Set: AUG-CC-PVTZ
    Blend: AUG-CC-PVTZ
  Basis Set: (AUG-CC-PVTZ AUX)
    Blend: AUG-CC-PVTZ-JKFIT

    Orbital Energies [Eh]
    ---------------------

    Doubly Occupied:

       1A    -26.334099     2A    -26.332709     3A    -26.332588
       4A    -11.505113     5A    -11.260735     6A     -1.719847
       7A     -1.627165     8A     -1.624933     9A     -1.072766
      10A     -0.920680    11A     -0.816861    12A     -0.815301
      13A     -0.775637    14A     -0.706753    15A     -0.705012
      16A     -0.659861    17A     -0.658287    18A     -0.643007
      19A     -0.589841    20A     -0.589641    21A     -0.570062

  @DF-RHF Final Energy:  -375.97094375719007

   => Energetics <=

    Nuclear Repulsion Energy =            201.0922767951383605
    One-Electron Energy =                -921.6046453167220989
    Two-Electron Energy =                 344.5414247643936960
    Total Energy =                       -375.9709437571900708
  Basis Set: (AUG-CC-PVTZ AUX)
    Blend: AUG-CC-PVTZ-RI
    Molecular point group: c1

    Geometry (in Angstrom), charge = 0, multiplicity = 1:

       Center              X                  Y                   Z               Mass
    ------------   -----------------  -----------------  -----------------  -----------------
         F            0.445535848850    -0.548557063504    -1.123182802810    18.998403162730
         F            0.445207748850     1.247979336496     0.072628497190    18.998403162730
         F            0.439372648850    -0.696642163504     1.046775297190    18.998403162730
         C           -0.063450351150    -0.001995163504     0.002682297190    12.000000000000
         C           -1.558483351150    -0.001910163504     0.002666297190    12.000000000000
         H           -1.920767351150     0.454406836496     0.923987297190     1.007825032230
         H           -1.920462351150     0.567715836496    -0.853374702810     1.007825032230
         H           -1.920564351150    -1.028030163504    -0.063059702810     1.007825032230

  Basis Set: AUG-CC-PVTZ
    Blend: AUG-CC-PVTZ
  Basis Set: (AUG-CC-PVTZ AUX)
    Blend: AUG-CC-PVTZ-JKFIT
	 Reference Energy          =    -375.9709437571900708 [Eh]
	 Singles Energy            =      -0.0000000000000000 [Eh]
	 Same-Spin Energy          =      -0.2988710097636790 [Eh]
	 Opposite-Spin Energy      =      -0.8934421199550080 [Eh]
	 Correlation Energy        =      -1.1923131297186869 [Eh]
	 Total Energy              =    -377.1632568869087550 [Eh]

	 ================> DF-SCS-MP2 Energies <==================
	-----------------------------------------------------------
	 SCS Same-Spin Scale       =       0.3333333333333333 [-]
	 SCS Opposite-Spin Scale   =       1.2000000000000000 [-]
	 SCS Same-Spin Energy      =      -0.0996236699212263 [Eh]
	 SCS Opposite-Spin Energy  =      -1.0721305439460096 [Eh]
	 SCS Correlation Energy    =      -1.1717542138672359 [Eh]
	 SCS Total Energy          =    -377.1426979710573164 [Eh]
	-----------------------------------------------------------

  Dipole Moment: [D]
     X:    -2.4141      Y:    -0.0141      Z:     0.0180     Total:     2.4142

*** Psi4 exiting successfully. Buy a developer a beer!
