                               Psi4 1.3.2 release

  ==> Input File <==

--------------------------------------------------------------------------
#psi4
#
memory 32 gb

molecule  {
0 1
  F        0.4423000    -0.5566670    -1.1237330
  F        0.4419680     1.2516150     0.0798990
  F        0.4420460    -0.6947950     1.0440010
  C       -0.0607770    -0.0001480    -0.0000920
  C       -1.6558100    -0.0000573    -0.0001091
  H       -1.9180940     0.4562540     0.9212130
  H       -1.9177890     0.5695630    -0.8561490
  H       -1.9178910    -1.0261830    -0.0658340
units angstrom
no_reorient  #important for SAPT in psi4, default
symmetry c1  #important for SAPT in psi4, default
}

set PROPERTIES_ORIGIN ["COM"]
properties('MP2/aug-cc-pvtz', properties = ['dipole'])
--------------------------------------------------------------------------

    Molecular point group: c1
  Charge       = 0
  Multiplicity = 1
  Basis Set: AUG-CC-PVTZ
    Blend: AUG-CC-PVTZ
  Basis Set: (AUG-CC-PVTZ AUX)
    Blend: AUG-CC-PVTZ-JKFIT

    Orbital Energies [Eh]
    ---------------------

    Doubly Occupied:

       1A    -26.333830     2A    -26.333780     3A    -26.333705
       4A    -11.506541     5A    -11.260650     6A     -1.718378
       7A     -1.625887     8A     -1.625774     9A     -1.055350
      10A     -0.924128    11A     -0.814017    12A     -0.813984
      13A     -0.772823    14A     -0.704805    15A     -0.704771
      16A     -0.660032    17A     -0.659974    18A     -0.643376
      19A     -0.607274    20A     -0.607200    21A     -0.537985

  @DF-RHF Final Energy:  -375.96331353751509

   => Energetics <=

    Nuclear Repulsion Energy =            199.2411771309702146
    One-Electron Energy =                -917.9204549679932370
    Two-Electron Energy =                 342.7159642995079594
    Total Energy =                       -375.9633135375150914
  Basis Set: (AUG-CC-PVTZ AUX)
    Blend: AUG-CC-PVTZ-RI
    Molecular point group: c1

    Geometry (in Angstrom), charge = 0, multiplicity = 1:

       Center              X                  Y                   Z               Mass
    ------------   -----------------  -----------------  -----------------  -----------------
         F            0.456582458486    -0.556667884229    -1.123732803711    18.998403162730
         F            0.456250458486     1.251614115771     0.079899196289    18.998403162730
         F            0.456328458486    -0.694795884229     1.044001196289    18.998403162730
         C           -0.046494541514    -0.000148884229    -0.000091803711    12.000000000000
         C           -1.641527541514    -0.000058184229    -0.000108903711    12.000000000000
         H           -1.903811541514     0.456253115771     0.921213196289     1.007825032230
         H           -1.903506541514     0.569562115771    -0.856148803711     1.007825032230
         H           -1.903608541514    -1.026183884229    -0.065833803711     1.007825032230

  Basis Set: AUG-CC-PVTZ
    Blend: AUG-CC-PVTZ
  Basis Set: (AUG-CC-PVTZ AUX)
    Blend: AUG-CC-PVTZ-JKFIT
	 Reference Energy          =    -375.9633135375150914 [Eh]
	 Singles Energy            =      -0.0000000000000000 [Eh]
	 Same-Spin Energy          =      -0.2985742583624600 [Eh]
	 Opposite-Spin Energy      =      -0.8935727294998441 [Eh]
	 Correlation Energy        =      -1.1921469878623041 [Eh]
	 Total Energy              =    -377.1554605253774071 [Eh]

	 ================> DF-SCS-MP2 Energies <==================
	-----------------------------------------------------------
	 SCS Same-Spin Scale       =       0.3333333333333333 [-]
	 SCS Opposite-Spin Scale   =       1.2000000000000000 [-]
	 SCS Same-Spin Energy      =      -0.0995247527874867 [Eh]
	 SCS Opposite-Spin Energy  =      -1.0722872753998129 [Eh]
	 SCS Correlation Energy    =      -1.1718120281872997 [Eh]
	 SCS Total Energy          =    -377.1351255657023671 [Eh]
	-----------------------------------------------------------

  Dipole Moment: [D]
     X:    -2.2869      Y:    -0.0015      Z:    -0.0008     Total:     2.2869

*** Psi4 exiting successfully. Buy a developer a beer!
