                               Psi4 1.4a3.dev225

  ==> Input File <==

--------------------------------------------------------------------------
#psi4
#
memory 32 gb

molecule  {
0 1
  F        0.5247730    -0.8976320    -0.8822590
  F        0.5247660     1.2128770    -0.3362450
  F        0.5247720    -0.3152400     1.2185020
  C        0.0180059     0.0132572     0.0130322
  C       -1.4716790    -0.0000040     0.0000010
  H       -1.8303410     0.7341720     0.7216060
  H       -1.8303400     0.2578370    -0.9966170
  H       -1.8303400    -0.9920200     0.2750120
units angstrom
no_reorient  #important for SAPT in psi4, default
symmetry c1  #important for SAPT in psi4, default
}

set PROPERTIES_ORIGIN ["COM"]
properties('MP2/aug-cc-pvtz', properties = ['dipole'])
--------------------------------------------------------------------------

    Molecular point group: c1
  Charge       = 0
  Multiplicity = 1
  Basis Set: AUG-CC-PVTZ
    Blend: AUG-CC-PVTZ
  Basis Set: (AUG-CC-PVTZ AUX)
    Blend: AUG-CC-PVTZ-JKFIT

    Orbital Energies [Eh]
    ---------------------

    Doubly Occupied:

       1A    -26.336933     2A    -26.336912     3A    -26.326305
       4A    -11.506613     5A    -11.261050     6A     -1.717034
       7A     -1.630532     8A     -1.617990     9A     -1.074969
      10A     -0.919352    11A     -0.816113    12A     -0.812591
      13A     -0.774020    14A     -0.706875    15A     -0.703121
      16A     -0.662038    17A     -0.655548    18A     -0.642698
      19A     -0.590742    20A     -0.590499    21A     -0.571072

  @DF-RHF Final Energy:  -375.96954086874467

   => Energetics <=

    Nuclear Repulsion Energy =            200.6456697375576823
    One-Electron Energy =                -920.7244054329103164
    Two-Electron Energy =                 344.1091948266079612
    Total Energy =                       -375.9695408687446729
  Basis Set: (AUG-CC-PVTZ AUX)
    Blend: AUG-CC-PVTZ-RI
    Molecular point group: c1

    Geometry (in Angstrom), charge = 0, multiplicity = 1:

       Center              X                  Y                   Z               Mass
    ------------   -----------------  -----------------  -----------------  -----------------
         F            0.442275523403    -0.899525891897    -0.884120031410    18.998403162730
         F            0.442268523403     1.210983108103    -0.338106031410    18.998403162730
         F            0.442274523403    -0.317133891897     1.216640968590    18.998403162730
         C           -0.064491576597     0.011363308103     0.011171168590    12.000000000000
         C           -1.554176476597    -0.001897891897    -0.001860031410    12.000000000000
         H           -1.912838476597     0.732278108103     0.719744968590     1.007825032230
         H           -1.912837476597     0.255943108103    -0.998478031410     1.007825032230
         H           -1.912837476597    -0.993913891897     0.273150968590     1.007825032230

  Basis Set: AUG-CC-PVTZ
    Blend: AUG-CC-PVTZ
  Basis Set: (AUG-CC-PVTZ AUX)
    Blend: AUG-CC-PVTZ-JKFIT
	 Reference Energy          =    -375.9695408687446729 [Eh]
	 Singles Energy            =      -0.0000000000000000 [Eh]
	 Same-Spin Energy          =      -0.2990713850038321 [Eh]
	 Opposite-Spin Energy      =      -0.8941276466615553 [Eh]
	 Correlation Energy        =      -1.1931990316653873 [Eh]
	 Total Energy              =    -377.1627399004100880 [Eh]

	 ================> DF-SCS-MP2 Energies <==================
	-----------------------------------------------------------
	 SCS Same-Spin Scale       =       0.3333333333333333 [-]
	 SCS Opposite-Spin Scale   =       1.2000000000000000 [-]
	 SCS Same-Spin Energy      =      -0.0996904616679440 [Eh]
	 SCS Opposite-Spin Energy  =      -1.0729531759938664 [Eh]
	 SCS Correlation Energy    =      -1.1726436376618103 [Eh]
	 SCS Total Energy          =    -377.1421845064064655 [Eh]
	-----------------------------------------------------------

  Dipole Moment: [D]
     X:    -2.4301      Y:     0.1040      Z:     0.1022     Total:     2.4344

*** Psi4 exiting successfully. Buy a developer a beer!
