                               Psi4 1.3.2 release

  ==> Input File <==

--------------------------------------------------------------------------
#psi4
#
memory 32 gb

molecule  {
0 1
  F        0.3982328    -0.5641178    -1.1387829
  F        0.4419680     1.2516150     0.0798990
  F        0.4420460    -0.6947950     1.0440010
  C       -0.0607770    -0.0001480    -0.0000920
  C       -1.5549001    -0.0232191    -0.0468640
  H       -1.9180940     0.4562540     0.9212130
  H       -1.9177890     0.5695630    -0.8561490
  H       -1.9178910    -1.0261830    -0.0658340
units angstrom
no_reorient  #important for SAPT in psi4, default
symmetry c1  #important for SAPT in psi4, default
}

set PROPERTIES_ORIGIN ["COM"]
properties('MP2/aug-cc-pvtz', properties = ['dipole'])
--------------------------------------------------------------------------

    Molecular point group: c1
  Charge       = 0
  Multiplicity = 1
  Basis Set: AUG-CC-PVTZ
    Blend: AUG-CC-PVTZ
  Basis Set: (AUG-CC-PVTZ AUX)
    Blend: AUG-CC-PVTZ-JKFIT

    Orbital Energies [Eh]
    ---------------------

    Doubly Occupied:

       1A    -26.336430     2A    -26.336353     3A    -26.332375
       4A    -11.505628     5A    -11.258825     6A     -1.719876
       7A     -1.628376     8A     -1.628298     9A     -1.071963
      10A     -0.920832    11A     -0.817824    12A     -0.817608
      13A     -0.775598    14A     -0.708401    15A     -0.705934
      16A     -0.662333    17A     -0.661825    18A     -0.645728
      19A     -0.602628    20A     -0.579324    21A     -0.559356

  @DF-RHF Final Energy:  -375.96712601449326

   => Energetics <=

    Nuclear Repulsion Energy =            201.0161281633818362
    One-Electron Energy =                -921.4154825196599177
    Two-Electron Energy =                 344.4322283417848212
    Total Energy =                       -375.9671260144932603
  Basis Set: (AUG-CC-PVTZ AUX)
    Blend: AUG-CC-PVTZ-RI
    Molecular point group: c1

    Geometry (in Angstrom), charge = 0, multiplicity = 1:

       Center              X                  Y                   Z               Mass
    ------------   -----------------  -----------------  -----------------  -----------------
         F            0.408067291108    -0.559125807890    -1.128701816680    18.998403162730
         F            0.451802491108     1.256606992110     0.089980083320    18.998403162730
         F            0.451880491108    -0.689803007890     1.054082083320    18.998403162730
         C           -0.050942508892     0.004843992110     0.009989083320    12.000000000000
         C           -1.545065608892    -0.018227107890    -0.036782916680    12.000000000000
         H           -1.908259508892     0.461245992110     0.931294083320     1.007825032230
         H           -1.907954508892     0.574554992110    -0.846067916680     1.007825032230
         H           -1.908056508892    -1.021191007890    -0.055752916680     1.007825032230

  Basis Set: AUG-CC-PVTZ
    Blend: AUG-CC-PVTZ
  Basis Set: (AUG-CC-PVTZ AUX)
    Blend: AUG-CC-PVTZ-JKFIT
	 Reference Energy          =    -375.9671260144932603 [Eh]
	 Singles Energy            =      -0.0000000000000000 [Eh]
	 Same-Spin Energy          =      -0.2989859436905002 [Eh]
	 Opposite-Spin Energy      =      -0.8937922499082506 [Eh]
	 Correlation Energy        =      -1.1927781935987509 [Eh]
	 Total Energy              =    -377.1599042080920299 [Eh]

	 ================> DF-SCS-MP2 Energies <==================
	-----------------------------------------------------------
	 SCS Same-Spin Scale       =       0.3333333333333333 [-]
	 SCS Opposite-Spin Scale   =       1.2000000000000000 [-]
	 SCS Same-Spin Energy      =      -0.0996619812301667 [Eh]
	 SCS Opposite-Spin Energy  =      -1.0725506998899006 [Eh]
	 SCS Correlation Energy    =      -1.1722126811200673 [Eh]
	 SCS Total Energy          =    -377.1393386956133327 [Eh]
	-----------------------------------------------------------

  Dipole Moment: [D]
     X:    -2.2997      Y:     0.0021      Z:     0.0063     Total:     2.2997

*** Psi4 exiting successfully. Buy a developer a beer!
