                               Psi4 1.3.2 release

  ==> Input File <==

--------------------------------------------------------------------------
#psi4
#
memory 32 gb

molecule  {
0 1
  F        0.4423000    -0.5566670    -1.1237330
  F        0.4419680     1.2516150     0.0798990
  F        0.4420460    -0.6947950     1.0440010
  C       -0.0616885    -0.0233043    -0.0468478
  C       -1.5558100    -0.0000630    -0.0001080
  H       -1.9537546     0.4503665     0.9093208
  H       -1.9177890     0.5695630    -0.8561490
  H       -1.9178910    -1.0261830    -0.0658340
units angstrom
no_reorient  #important for SAPT in psi4, default
symmetry c1  #important for SAPT in psi4, default
}

set PROPERTIES_ORIGIN ["COM"]
properties('MP2/aug-cc-pvtz', properties = ['dipole'])
--------------------------------------------------------------------------

    Molecular point group: c1
  Charge       = 0
  Multiplicity = 1
  Basis Set: AUG-CC-PVTZ
    Blend: AUG-CC-PVTZ
  Basis Set: (AUG-CC-PVTZ AUX)
    Blend: AUG-CC-PVTZ-JKFIT

    Orbital Energies [Eh]
    ---------------------

    Doubly Occupied:

       1A    -26.354020     2A    -26.323310     3A    -26.323237
       4A    -11.506359     5A    -11.260438     6A     -1.727967
       7A     -1.636602     8A     -1.609436     9A     -1.072591
      10A     -0.923652    11A     -0.821475    12A     -0.814971
      13A     -0.779836    14A     -0.708049    15A     -0.701489
      16A     -0.665163    17A     -0.653900    18A     -0.637828
      19A     -0.591538    20A     -0.588362    21A     -0.566483

  @DF-RHF Final Energy:  -375.96765574549426

   => Energetics <=

    Nuclear Repulsion Energy =            201.0082337841515425
    One-Electron Energy =                -921.4183611331366137
    Two-Electron Energy =                 344.4424716034907874
    Total Energy =                       -375.9676557454942554
  Basis Set: (AUG-CC-PVTZ AUX)
    Blend: AUG-CC-PVTZ-RI
    Molecular point group: c1

    Geometry (in Angstrom), charge = 0, multiplicity = 1:

       Center              X                  Y                   Z               Mass
    ------------   -----------------  -----------------  -----------------  -----------------
         F            0.442857864244    -0.553289140902    -1.116912396326    18.998403162730
         F            0.442525864244     1.254992859098     0.086719603674    18.998403162730
         F            0.442603864244    -0.691417140902     1.050821603674    18.998403162730
         C           -0.061130635756    -0.019926440902    -0.040027196326    12.000000000000
         C           -1.555252135756     0.003314859098     0.006712603674    12.000000000000
         H           -1.953196735756     0.453744359098     0.916141403674     1.007825032230
         H           -1.917231135756     0.572940859098    -0.849328396326     1.007825032230
         H           -1.917333135756    -1.022805140902    -0.059013396326     1.007825032230

  Basis Set: AUG-CC-PVTZ
    Blend: AUG-CC-PVTZ
  Basis Set: (AUG-CC-PVTZ AUX)
    Blend: AUG-CC-PVTZ-JKFIT
	 Reference Energy          =    -375.9676557454942554 [Eh]
	 Singles Energy            =      -0.0000000000000000 [Eh]
	 Same-Spin Energy          =      -0.2989850571314035 [Eh]
	 Opposite-Spin Energy      =      -0.8936678243641195 [Eh]
	 Correlation Energy        =      -1.1926528814955231 [Eh]
	 Total Energy              =    -377.1603086269897744 [Eh]

	 ================> DF-SCS-MP2 Energies <==================
	-----------------------------------------------------------
	 SCS Same-Spin Scale       =       0.3333333333333333 [-]
	 SCS Opposite-Spin Scale   =       1.2000000000000000 [-]
	 SCS Same-Spin Energy      =      -0.0996616857104678 [Eh]
	 SCS Opposite-Spin Energy  =      -1.0724013892369433 [Eh]
	 SCS Correlation Energy    =      -1.1720630749474110 [Eh]
	 SCS Total Energy          =    -377.1397188204416580 [Eh]
	-----------------------------------------------------------

  Dipole Moment: [D]
     X:    -2.4092      Y:    -0.1852      Z:    -0.3718     Total:     2.4447

*** Psi4 exiting successfully. Buy a developer a beer!
