                               Psi4 1.4a3.dev225

  ==> Input File <==

--------------------------------------------------------------------------
#psi4
#
memory 32 gb

molecule  {
0 1
  F        0.5247730    -0.8976320    -0.8822590
  F        0.5247660     1.2128770    -0.3362450
  F        0.5247720    -0.3152400     1.2185020
  C        0.0253820    -0.0000010     0.0000010
  C       -1.4216790    -0.0000039     0.0000010
  H       -1.8303410     0.7341720     0.7216060
  H       -1.8303400     0.2578370    -0.9966170
  H       -1.8303400    -0.9920200     0.2750120
units angstrom
no_reorient  #important for SAPT in psi4, default
symmetry c1  #important for SAPT in psi4, default
}

set PROPERTIES_ORIGIN ["COM"]
properties('MP2/aug-cc-pvtz', properties = ['dipole'])
--------------------------------------------------------------------------

    Molecular point group: c1
  Charge       = 0
  Multiplicity = 1
  Basis Set: AUG-CC-PVTZ
    Blend: AUG-CC-PVTZ
  Basis Set: (AUG-CC-PVTZ AUX)
    Blend: AUG-CC-PVTZ-JKFIT

    Orbital Energies [Eh]
    ---------------------

    Doubly Occupied:

       1A    -26.333682     2A    -26.333681     3A    -26.333650
       4A    -11.504612     5A    -11.261155     6A     -1.718497
       7A     -1.626303     8A     -1.626302     9A     -1.082999
      10A     -0.917718    11A     -0.816796    12A     -0.816796
      13A     -0.775542    14A     -0.706413    15A     -0.706413
      16A     -0.659729    17A     -0.659729    18A     -0.644216
      19A     -0.583050    20A     -0.579786    21A     -0.579785

  @DF-RHF Final Energy:  -375.96704729031370

   => Energetics <=

    Nuclear Repulsion Energy =            201.6585731375065222
    One-Electron Energy =                -922.7175321764311775
    Two-Electron Energy =                 345.0919117486109258
    Total Energy =                       -375.9670472903137011
  Basis Set: (AUG-CC-PVTZ AUX)
    Blend: AUG-CC-PVTZ-RI
    Molecular point group: c1

    Geometry (in Angstrom), charge = 0, multiplicity = 1:

       Center              X                  Y                   Z               Mass
    ------------   -----------------  -----------------  -----------------  -----------------
         F            0.434080760496    -0.897632298814    -0.882258845404    18.998403162730
         F            0.434073760496     1.212876701186    -0.336244845404    18.998403162730
         F            0.434079760496    -0.315240298814     1.218502154596    18.998403162730
         C           -0.065310239504    -0.000001298814     0.000001154596    12.000000000000
         C           -1.512371239504    -0.000004198814     0.000001154596    12.000000000000
         H           -1.921033239504     0.734171701186     0.721606154596     1.007825032230
         H           -1.921032239504     0.257836701186    -0.996616845404     1.007825032230
         H           -1.921032239504    -0.992020298814     0.275012154596     1.007825032230

  Basis Set: AUG-CC-PVTZ
    Blend: AUG-CC-PVTZ
  Basis Set: (AUG-CC-PVTZ AUX)
    Blend: AUG-CC-PVTZ-JKFIT
	 Reference Energy          =    -375.9670472903137011 [Eh]
	 Singles Energy            =      -0.0000000000000000 [Eh]
	 Same-Spin Energy          =      -0.2993659115550162 [Eh]
	 Opposite-Spin Energy      =      -0.8942892361754271 [Eh]
	 Correlation Energy        =      -1.1936551477304433 [Eh]
	 Total Energy              =    -377.1607024380441544 [Eh]

	 ================> DF-SCS-MP2 Energies <==================
	-----------------------------------------------------------
	 SCS Same-Spin Scale       =       0.3333333333333333 [-]
	 SCS Opposite-Spin Scale   =       1.2000000000000000 [-]
	 SCS Same-Spin Energy      =      -0.0997886371850054 [Eh]
	 SCS Opposite-Spin Energy  =      -1.0731470834105126 [Eh]
	 SCS Correlation Energy    =      -1.1729357205955180 [Eh]
	 SCS Total Energy          =    -377.1399830109091909 [Eh]
	-----------------------------------------------------------

  Dipole Moment: [D]
     X:    -2.4403      Y:    -0.0000      Z:     0.0000     Total:     2.4403

*** Psi4 exiting successfully. Buy a developer a beer!
