                               Psi4 1.3.2 release

  ==> Input File <==

--------------------------------------------------------------------------
#psi4
#
memory 32 gb

molecule  {
0 1
  F        0.4423000    -0.5566670    -1.1237330
  F        0.4419680     1.2516150     0.0798990
  F        0.4420460    -0.6947950     1.0440010
  C       -0.0607770    -0.0001480    -0.0000920
  C       -1.5558100    -0.0000630    -0.0001080
  H       -1.9180940     0.4562540     0.9212130
  H       -1.9177890     0.5695630    -0.8561490
  H       -1.9178910    -1.0261830    -0.0658340
units angstrom
no_reorient  #important for SAPT in psi4, default
symmetry c1  #important for SAPT in psi4, default
}

set PROPERTIES_ORIGIN ["COM"]
properties('MP2/aug-cc-pvtz', properties = ['dipole'])
--------------------------------------------------------------------------

    Molecular point group: c1
  Charge       = 0
  Multiplicity = 1
  Basis Set: AUG-CC-PVTZ
    Blend: AUG-CC-PVTZ
  Basis Set: (AUG-CC-PVTZ AUX)
    Blend: AUG-CC-PVTZ-JKFIT

    Orbital Energies [Eh]
    ---------------------

    Doubly Occupied:

       1A    -26.333593     2A    -26.333543     3A    -26.333468
       4A    -11.505169     5A    -11.260231     6A     -1.719808
       7A     -1.626578     8A     -1.626466     9A     -1.072556
      10A     -0.920648    11A     -0.816430    12A     -0.816396
      13A     -0.775510    14A     -0.706149    15A     -0.706118
      16A     -0.659700    17A     -0.659642    18A     -0.643640
      19A     -0.589371    20A     -0.589309    21A     -0.569392

  @DF-RHF Final Energy:  -375.97096663145521

   => Energetics <=

    Nuclear Repulsion Energy =            201.0690331474844470
    One-Electron Energy =                -921.5525691205186831
    Two-Electron Energy =                 344.5125693415790238
    Total Energy =                       -375.9709666314552123
  Basis Set: (AUG-CC-PVTZ AUX)
    Blend: AUG-CC-PVTZ-RI
    Molecular point group: c1

    Geometry (in Angstrom), charge = 0, multiplicity = 1:

       Center              X                  Y                   Z               Mass
    ------------   -----------------  -----------------  -----------------  -----------------
         F            0.442299921144    -0.556667070124    -1.123732960819    18.998403162730
         F            0.441967921144     1.251614929876     0.079899039181    18.998403162730
         F            0.442045921144    -0.694795070124     1.044001039181    18.998403162730
         C           -0.060777078856    -0.000148070124    -0.000091960819    12.000000000000
         C           -1.555810078856    -0.000063070124    -0.000107960819    12.000000000000
         H           -1.918094078856     0.456253929876     0.921213039181     1.007825032230
         H           -1.917789078856     0.569562929876    -0.856148960819     1.007825032230
         H           -1.917891078856    -1.026183070124    -0.065833960819     1.007825032230

  Basis Set: AUG-CC-PVTZ
    Blend: AUG-CC-PVTZ
  Basis Set: (AUG-CC-PVTZ AUX)
    Blend: AUG-CC-PVTZ-JKFIT
	 Reference Energy          =    -375.9709666314552123 [Eh]
	 Singles Energy            =      -0.0000000000000000 [Eh]
	 Same-Spin Energy          =      -0.2988795746007302 [Eh]
	 Opposite-Spin Energy      =      -0.8934748322694336 [Eh]
	 Correlation Energy        =      -1.1923544068701637 [Eh]
	 Total Energy              =    -377.1633210383253640 [Eh]

	 ================> DF-SCS-MP2 Energies <==================
	-----------------------------------------------------------
	 SCS Same-Spin Scale       =       0.3333333333333333 [-]
	 SCS Opposite-Spin Scale   =       1.2000000000000000 [-]
	 SCS Same-Spin Energy      =      -0.0996265248669101 [Eh]
	 SCS Opposite-Spin Energy  =      -1.0721697987233203 [Eh]
	 SCS Correlation Energy    =      -1.1717963235902304 [Eh]
	 SCS Total Energy          =    -377.1427629550454412 [Eh]
	-----------------------------------------------------------

  Dipole Moment: [D]
     X:    -2.3913      Y:    -0.0015      Z:    -0.0009     Total:     2.3913

*** Psi4 exiting successfully. Buy a developer a beer!
