                               Psi4 1.3.2 release

  ==> Input File <==

--------------------------------------------------------------------------
#psi4
#
memory 32 gb

molecule  {
0 1
  F        0.4423000    -0.5566670    -1.1237330
  F        0.4419680     1.2516150     0.0798990
  F        0.4420460    -0.6947950     1.0440010
  C       -0.0608337     0.0056422     0.0115992
  C       -1.5558100    -0.0000630    -0.0001080
  H       -1.9091082     0.4576393     0.9240112
  H       -1.9177890     0.5695630    -0.8561490
  H       -1.9178910    -1.0261830    -0.0658340
units angstrom
no_reorient  #important for SAPT in psi4, default
symmetry c1  #important for SAPT in psi4, default
}

set PROPERTIES_ORIGIN ["COM"]
properties('MP2/aug-cc-pvtz', properties = ['dipole'])
--------------------------------------------------------------------------

    Molecular point group: c1
  Charge       = 0
  Multiplicity = 1
  Basis Set: AUG-CC-PVTZ
    Blend: AUG-CC-PVTZ
  Basis Set: (AUG-CC-PVTZ AUX)
    Blend: AUG-CC-PVTZ-JKFIT

    Orbital Energies [Eh]
    ---------------------

    Doubly Occupied:

       1A    -26.336043     2A    -26.335966     3A    -26.328455
       4A    -11.505062     5A    -11.260290     6A     -1.720172
       7A     -1.630705     8A     -1.621939     9A     -1.072708
      10A     -0.920704    11A     -0.817701    12A     -0.815329
      13A     -0.775387    14A     -0.707341    15A     -0.704772
      16A     -0.661866    17A     -0.657471    18A     -0.643250
      19A     -0.589997    20A     -0.589536    21A     -0.568733

  @DF-RHF Final Energy:  -375.97078913805240

   => Energetics <=

    Nuclear Repulsion Energy =            201.0849645068982454
    One-Electron Energy =                -921.5846527800762260
    Two-Electron Energy =                 344.5288991351255845
    Total Energy =                       -375.9707891380523961
  Basis Set: (AUG-CC-PVTZ AUX)
    Blend: AUG-CC-PVTZ-RI
    Molecular point group: c1

    Geometry (in Angstrom), charge = 0, multiplicity = 1:

       Center              X                  Y                   Z               Mass
    ------------   -----------------  -----------------  -----------------  -----------------
         F            0.442200232435    -0.557510674619    -1.125436325930    18.998403162730
         F            0.441868232435     1.250771325381     0.078195674070    18.998403162730
         F            0.441946232435    -0.695638674619     1.042297674070    18.998403162730
         C           -0.060933467565     0.004798525381     0.009895874070    12.000000000000
         C           -1.555909767565    -0.000906674619    -0.001811325930    12.000000000000
         H           -1.909207967565     0.456795625381     0.922307874070     1.007825032230
         H           -1.917888767565     0.568719325381    -0.857852325930     1.007825032230
         H           -1.917990767565    -1.027026674619    -0.067537325930     1.007825032230

  Basis Set: AUG-CC-PVTZ
    Blend: AUG-CC-PVTZ
  Basis Set: (AUG-CC-PVTZ AUX)
    Blend: AUG-CC-PVTZ-JKFIT
	 Reference Energy          =    -375.9707891380523961 [Eh]
	 Singles Energy            =      -0.0000000000000000 [Eh]
	 Same-Spin Energy          =      -0.2988897259109630 [Eh]
	 Opposite-Spin Energy      =      -0.8934911958235854 [Eh]
	 Correlation Energy        =      -1.1923809217345482 [Eh]
	 Total Energy              =    -377.1631700597869212 [Eh]

	 ================> DF-SCS-MP2 Energies <==================
	-----------------------------------------------------------
	 SCS Same-Spin Scale       =       0.3333333333333333 [-]
	 SCS Opposite-Spin Scale   =       1.2000000000000000 [-]
	 SCS Same-Spin Energy      =      -0.0996299086369876 [Eh]
	 SCS Opposite-Spin Energy  =      -1.0721894349883023 [Eh]
	 SCS Correlation Energy    =      -1.1718193436252899 [Eh]
	 SCS Total Energy          =    -377.1426084816777120 [Eh]
	-----------------------------------------------------------

  Dipole Moment: [D]
     X:    -2.3889      Y:     0.0441      Z:     0.0911     Total:     2.3910

*** Psi4 exiting successfully. Buy a developer a beer!
