                               Psi4 1.3.2 release

  ==> Input File <==

--------------------------------------------------------------------------
#psi4
#
memory 32 gb

molecule  {
0 1
  F        0.4203397    -0.5604777    -1.1314303
  F        0.4419680     1.2516150     0.0798990
  F        0.4420460    -0.6947950     1.0440010
  C       -0.0607770    -0.0001480    -0.0000920
  C       -1.5555827    -0.0116428    -0.0234895
  H       -1.9180940     0.4562540     0.9212130
  H       -1.9177890     0.5695630    -0.8561490
  H       -1.9178910    -1.0261830    -0.0658340
units angstrom
no_reorient  #important for SAPT in psi4, default
symmetry c1  #important for SAPT in psi4, default
}

set PROPERTIES_ORIGIN ["COM"]
properties('MP2/aug-cc-pvtz', properties = ['dipole'])
--------------------------------------------------------------------------

    Molecular point group: c1
  Charge       = 0
  Multiplicity = 1
  Basis Set: AUG-CC-PVTZ
    Blend: AUG-CC-PVTZ
  Basis Set: (AUG-CC-PVTZ AUX)
    Blend: AUG-CC-PVTZ-JKFIT

    Orbital Energies [Eh]
    ---------------------

    Doubly Occupied:

       1A    -26.334976     2A    -26.334900     3A    -26.332952
       4A    -11.505337     5A    -11.259411     6A     -1.719795
       7A     -1.627443     8A     -1.627361     9A     -1.072215
      10A     -0.920664    11A     -0.817113    12A     -0.816966
      13A     -0.775425    14A     -0.707250    15A     -0.705992
      16A     -0.660954    17A     -0.660723    18A     -0.644667
      19A     -0.596054    20A     -0.582485    21A     -0.566472

  @DF-RHF Final Energy:  -375.96994947659141

   => Energetics <=

    Nuclear Repulsion Energy =            201.0363342959876718
    One-Electron Energy =                -921.4742549661169733
    Two-Electron Energy =                 344.4679711935378918
    Total Energy =                       -375.9699494765914096
  Basis Set: (AUG-CC-PVTZ AUX)
    Blend: AUG-CC-PVTZ-RI
    Molecular point group: c1

    Geometry (in Angstrom), charge = 0, multiplicity = 1:

       Center              X                  Y                   Z               Mass
    ------------   -----------------  -----------------  -----------------  -----------------
         F            0.425272845641    -0.557962200927    -1.126350266877    18.998403162730
         F            0.446901145641     1.254130499073     0.084979033123    18.998403162730
         F            0.446979145641    -0.692279500927     1.049081033123    18.998403162730
         C           -0.055843854359     0.002367499073     0.004988033123    12.000000000000
         C           -1.550649554359    -0.009127300927    -0.018409466877    12.000000000000
         H           -1.913160854359     0.458769499073     0.926293033123     1.007825032230
         H           -1.912855854359     0.572078499073    -0.851068966877     1.007825032230
         H           -1.912957854359    -1.023667500927    -0.060753966877     1.007825032230

  Basis Set: AUG-CC-PVTZ
    Blend: AUG-CC-PVTZ
  Basis Set: (AUG-CC-PVTZ AUX)
    Blend: AUG-CC-PVTZ-JKFIT
	 Reference Energy          =    -375.9699494765914096 [Eh]
	 Singles Energy            =      -0.0000000000000000 [Eh]
	 Same-Spin Energy          =      -0.2989155564774634 [Eh]
	 Opposite-Spin Energy      =      -0.8935873471820820 [Eh]
	 Correlation Energy        =      -1.1925029036595454 [Eh]
	 Total Energy              =    -377.1624523802509543 [Eh]

	 ================> DF-SCS-MP2 Energies <==================
	-----------------------------------------------------------
	 SCS Same-Spin Scale       =       0.3333333333333333 [-]
	 SCS Opposite-Spin Scale   =       1.2000000000000000 [-]
	 SCS Same-Spin Energy      =      -0.0996385188258211 [Eh]
	 SCS Opposite-Spin Energy  =      -1.0723048166184983 [Eh]
	 SCS Correlation Energy    =      -1.1719433354443194 [Eh]
	 SCS Total Energy          =    -377.1418928120357350 [Eh]
	-----------------------------------------------------------

  Dipole Moment: [D]
     X:    -2.3474      Y:     0.0010      Z:     0.0042     Total:     2.3474

*** Psi4 exiting successfully. Buy a developer a beer!
