                               Psi4 1.3.2 release

  ==> Input File <==

--------------------------------------------------------------------------
#psi4
#
memory 32 gb

molecule  {
0 1
  F        0.4857543    -0.5485382    -1.1073141
  F        0.4419680     1.2516150     0.0798990
  F        0.4420460    -0.6947950     1.0440010
  C       -0.0607770    -0.0001480    -0.0000920
  C       -1.5548985     0.0230930     0.0466480
  H       -1.9180940     0.4562540     0.9212130
  H       -1.9177890     0.5695630    -0.8561490
  H       -1.9178910    -1.0261830    -0.0658340
units angstrom
no_reorient  #important for SAPT in psi4, default
symmetry c1  #important for SAPT in psi4, default
}

set PROPERTIES_ORIGIN ["COM"]
properties('MP2/aug-cc-pvtz', properties = ['dipole'])
--------------------------------------------------------------------------

    Molecular point group: c1
  Charge       = 0
  Multiplicity = 1
  Basis Set: AUG-CC-PVTZ
    Blend: AUG-CC-PVTZ
  Basis Set: (AUG-CC-PVTZ AUX)
    Blend: AUG-CC-PVTZ-JKFIT

    Orbital Energies [Eh]
    ---------------------

    Doubly Occupied:

       1A    -26.335009     2A    -26.330757     3A    -26.330682
       4A    -11.505218     5A    -11.262533     6A     -1.720108
       7A     -1.625031     8A     -1.624783     9A     -1.073511
      10A     -0.921113    11A     -0.815475    12A     -0.815086
      13A     -0.776709    14A     -0.706586    15A     -0.704026
      16A     -0.657895    17A     -0.657222    18A     -0.641673
      19A     -0.607647    20A     -0.575478    21A     -0.568950

  @DF-RHF Final Energy:  -375.96716495944708

   => Energetics <=

    Nuclear Repulsion Energy =            201.1721758920405136
    One-Electron Energy =                -921.7676955042123836
    Two-Electron Energy =                 344.6283546527247950
    Total Energy =                       -375.9671649594470750
  Basis Set: (AUG-CC-PVTZ AUX)
    Blend: AUG-CC-PVTZ-RI
    Molecular point group: c1

    Geometry (in Angstrom), charge = 0, multiplicity = 1:

       Center              X                  Y                   Z               Mass
    ------------   -----------------  -----------------  -----------------  -----------------
         F            0.475798098709    -0.553683628228    -1.117704664838    18.998403162730
         F            0.432011798709     1.246469571772     0.069508435162    18.998403162730
         F            0.432089798709    -0.699940428228     1.033610435162    18.998403162730
         C           -0.070733201291    -0.005293428228    -0.010482564838    12.000000000000
         C           -1.564854701291     0.017947571772     0.036257435162    12.000000000000
         H           -1.928050201291     0.451108571772     0.910822435162     1.007825032230
         H           -1.927745201291     0.564417571772    -0.866539564838     1.007825032230
         H           -1.927847201291    -1.031328428228    -0.076224564838     1.007825032230

  Basis Set: AUG-CC-PVTZ
    Blend: AUG-CC-PVTZ
  Basis Set: (AUG-CC-PVTZ AUX)
    Blend: AUG-CC-PVTZ-JKFIT
	 Reference Energy          =    -375.9671649594470750 [Eh]
	 Singles Energy            =      -0.0000000000000000 [Eh]
	 Same-Spin Energy          =      -0.2989111756011683 [Eh]
	 Opposite-Spin Energy      =      -0.8935297430213422 [Eh]
	 Correlation Energy        =      -1.1924409186225104 [Eh]
	 Total Energy              =    -377.1596058780696126 [Eh]

	 ================> DF-SCS-MP2 Energies <==================
	-----------------------------------------------------------
	 SCS Same-Spin Scale       =       0.3333333333333333 [-]
	 SCS Opposite-Spin Scale   =       1.2000000000000000 [-]
	 SCS Same-Spin Energy      =      -0.0996370585337228 [Eh]
	 SCS Opposite-Spin Energy  =      -1.0722356916256106 [Eh]
	 SCS Correlation Energy    =      -1.1718727501593333 [Eh]
	 SCS Total Energy          =    -377.1390377096063844 [Eh]
	-----------------------------------------------------------

  Dipole Moment: [D]
     X:    -2.4682      Y:    -0.0105      Z:    -0.0191     Total:     2.4682

*** Psi4 exiting successfully. Buy a developer a beer!
