                               Psi4 1.3.2 release

  ==> Input File <==

--------------------------------------------------------------------------
#psi4
#
memory 32 gb

molecule  {
0 1
  F        0.4532231    -0.5546980    -1.1197559
  F        0.4419680     1.2516150     0.0798990
  F        0.4420460    -0.6947950     1.0440010
  C       -0.0607770    -0.0001480    -0.0000920
  C       -1.5557529     0.0057271     0.0115832
  H       -1.9180940     0.4562540     0.9212130
  H       -1.9177890     0.5695630    -0.8561490
  H       -1.9178910    -1.0261830    -0.0658340
units angstrom
no_reorient  #important for SAPT in psi4, default
symmetry c1  #important for SAPT in psi4, default
}

set PROPERTIES_ORIGIN ["COM"]
properties('MP2/aug-cc-pvtz', properties = ['dipole'])
--------------------------------------------------------------------------

    Molecular point group: c1
  Charge       = 0
  Multiplicity = 1
  Basis Set: AUG-CC-PVTZ
    Blend: AUG-CC-PVTZ
  Basis Set: (AUG-CC-PVTZ AUX)
    Blend: AUG-CC-PVTZ-JKFIT

    Orbital Energies [Eh]
    ---------------------

    Doubly Occupied:

       1A    -26.333928     2A    -26.332838     3A    -26.332762
       4A    -11.505132     5A    -11.260726     6A     -1.719848
       7A     -1.626170     8A     -1.626031     9A     -1.072760
      10A     -0.920700    11A     -0.816142    12A     -0.816090
      13A     -0.775668    14A     -0.706210    15A     -0.705608
      16A     -0.659210    17A     -0.659018    18A     -0.643138
      19A     -0.593723    20A     -0.585887    21A     -0.569740

  @DF-RHF Final Energy:  -375.97076523148786

   => Energetics <=

    Nuclear Repulsion Energy =            201.0900853924863725
    One-Electron Energy =                -921.5990397627087987
    Two-Electron Energy =                 344.5381891387345945
    Total Energy =                       -375.9707652314878601
  Basis Set: (AUG-CC-PVTZ AUX)
    Blend: AUG-CC-PVTZ-RI
    Molecular point group: c1

    Geometry (in Angstrom), charge = 0, multiplicity = 1:

       Center              X                  Y                   Z               Mass
    ------------   -----------------  -----------------  -----------------  -----------------
         F            0.450744921676    -0.555970275900    -1.122324967325    18.998403162730
         F            0.439489821676     1.250342724100     0.077329932675    18.998403162730
         F            0.439567821676    -0.696067275900     1.041431932675    18.998403162730
         C           -0.063255178324    -0.001420275900    -0.002661067325    12.000000000000
         C           -1.558231078324     0.004454824100     0.009014132675    12.000000000000
         H           -1.920572178324     0.454981724100     0.918643932675     1.007825032230
         H           -1.920267178324     0.568290724100    -0.858718067325     1.007825032230
         H           -1.920369178324    -1.027455275900    -0.068403067325     1.007825032230

  Basis Set: AUG-CC-PVTZ
    Blend: AUG-CC-PVTZ
  Basis Set: (AUG-CC-PVTZ AUX)
    Blend: AUG-CC-PVTZ-JKFIT
	 Reference Energy          =    -375.9707652314878601 [Eh]
	 Singles Energy            =      -0.0000000000000000 [Eh]
	 Same-Spin Energy          =      -0.2988745004951660 [Eh]
	 Opposite-Spin Energy      =      -0.8934533744917377 [Eh]
	 Correlation Energy        =      -1.1923278749869037 [Eh]
	 Total Energy              =    -377.1630931064747756 [Eh]

	 ================> DF-SCS-MP2 Energies <==================
	-----------------------------------------------------------
	 SCS Same-Spin Scale       =       0.3333333333333333 [-]
	 SCS Opposite-Spin Scale   =       1.2000000000000000 [-]
	 SCS Same-Spin Energy      =      -0.0996248334983887 [Eh]
	 SCS Opposite-Spin Energy  =      -1.0721440493900851 [Eh]
	 SCS Correlation Energy    =      -1.1717688828884738 [Eh]
	 SCS Total Energy          =    -377.1425341143763603 [Eh]
	-----------------------------------------------------------

  Dipole Moment: [D]
     X:    -2.4119      Y:    -0.0033      Z:    -0.0045     Total:     2.4119

*** Psi4 exiting successfully. Buy a developer a beer!
