                               Psi4 1.4a3.dev225

  ==> Input File <==

--------------------------------------------------------------------------
#psi4
#
memory 32 gb

molecule  {
0 1
  F        0.5247730    -0.8976320    -0.8822590
  F        0.5247660     1.2128770    -0.3362450
  F        0.5247720    -0.3152400     1.2185020
  C        0.0253820    -0.0000010     0.0000010
  C       -1.4516790    -0.0000040     0.0000010
  H       -1.8303410     0.7341720     0.7216060
  H       -1.8303400     0.2578370    -0.9966170
  H       -1.8303400    -0.9920200     0.2750120
units angstrom
no_reorient  #important for SAPT in psi4, default
symmetry c1  #important for SAPT in psi4, default
}

set PROPERTIES_ORIGIN ["COM"]
properties('MP2/aug-cc-pvtz', properties = ['dipole'])
--------------------------------------------------------------------------

    Molecular point group: c1
  Charge       = 0
  Multiplicity = 1
  Basis Set: AUG-CC-PVTZ
    Blend: AUG-CC-PVTZ
  Basis Set: (AUG-CC-PVTZ AUX)
    Blend: AUG-CC-PVTZ-JKFIT

    Orbital Energies [Eh]
    ---------------------

    Doubly Occupied:

       1A    -26.333950     2A    -26.333949     3A    -26.333918
       4A    -11.505671     5A    -11.260629     6A     -1.718148
       7A     -1.626239     8A     -1.626238     9A     -1.076311
      10A     -0.919063    11A     -0.816052    12A     -0.816052
      13A     -0.774840    14A     -0.706121    15A     -0.706121
      16A     -0.659954    17A     -0.659953    18A     -0.644293
      19A     -0.585711    20A     -0.585710    21A     -0.574393

  @DF-RHF Final Energy:  -375.96969751977633

   => Energetics <=

    Nuclear Repulsion Energy =            201.0766741622705354
    One-Electron Energy =                -921.5661151107633486
    Two-Electron Energy =                 344.5197434287164242
    Total Energy =                       -375.9696975197763322
  Basis Set: (AUG-CC-PVTZ AUX)
    Blend: AUG-CC-PVTZ-RI
    Molecular point group: c1

    Geometry (in Angstrom), charge = 0, multiplicity = 1:

       Center              X                  Y                   Z               Mass
    ------------   -----------------  -----------------  -----------------  -----------------
         F            0.438365521698    -0.897632284531    -0.882258845404    18.998403162730
         F            0.438358521698     1.212876715469    -0.336244845404    18.998403162730
         F            0.438364521698    -0.315240284531     1.218502154596    18.998403162730
         C           -0.061025478302    -0.000001284531     0.000001154596    12.000000000000
         C           -1.538086478302    -0.000004284531     0.000001154596    12.000000000000
         H           -1.916748478302     0.734171715469     0.721606154596     1.007825032230
         H           -1.916747478302     0.257836715469    -0.996616845404     1.007825032230
         H           -1.916747478302    -0.992020284531     0.275012154596     1.007825032230

  Basis Set: AUG-CC-PVTZ
    Blend: AUG-CC-PVTZ
  Basis Set: (AUG-CC-PVTZ AUX)
    Blend: AUG-CC-PVTZ-JKFIT
	 Reference Energy          =    -375.9696975197763322 [Eh]
	 Singles Energy            =      -0.0000000000000000 [Eh]
	 Same-Spin Energy          =      -0.2990933935063008 [Eh]
	 Opposite-Spin Energy      =      -0.8939833116105863 [Eh]
	 Correlation Energy        =      -1.1930767051168871 [Eh]
	 Total Energy              =    -377.1627742248932122 [Eh]

	 ================> DF-SCS-MP2 Energies <==================
	-----------------------------------------------------------
	 SCS Same-Spin Scale       =       0.3333333333333333 [-]
	 SCS Opposite-Spin Scale   =       1.2000000000000000 [-]
	 SCS Same-Spin Energy      =      -0.0996977978354336 [Eh]
	 SCS Opposite-Spin Energy  =      -1.0727799739327035 [Eh]
	 SCS Correlation Energy    =      -1.1724777717681372 [Eh]
	 SCS Total Energy          =    -377.1421752915444472 [Eh]
	-----------------------------------------------------------

  Dipole Moment: [D]
     X:    -2.4005      Y:    -0.0000      Z:     0.0000     Total:     2.4005

*** Psi4 exiting successfully. Buy a developer a beer!
