                               Psi4 1.3.2 release

  ==> Input File <==

--------------------------------------------------------------------------
#psi4
#
memory 32 gb

molecule  {
0 1
  F        0.4423000    -0.5566670    -1.1237330
  F        0.4419680     1.2516150     0.0798990
  F        0.4420460    -0.6947950     1.0440010
  C       -0.0607770    -0.0001480    -0.0000920
  C       -1.7558100    -0.0000516    -0.0001101
  H       -1.9180940     0.4562540     0.9212130
  H       -1.9177890     0.5695630    -0.8561490
  H       -1.9178910    -1.0261830    -0.0658340
units angstrom
no_reorient  #important for SAPT in psi4, default
symmetry c1  #important for SAPT in psi4, default
}

set PROPERTIES_ORIGIN ["COM"]
properties('MP2/aug-cc-pvtz', properties = ['dipole'])
--------------------------------------------------------------------------

    Molecular point group: c1
  Charge       = 0
  Multiplicity = 1
  Basis Set: AUG-CC-PVTZ
    Blend: AUG-CC-PVTZ
  Basis Set: (AUG-CC-PVTZ AUX)
    Blend: AUG-CC-PVTZ-JKFIT

    Orbital Energies [Eh]
    ---------------------

    Doubly Occupied:

       1A    -26.333530     2A    -26.333480     3A    -26.333405
       4A    -11.505946     5A    -11.264085     6A     -1.716771
       7A     -1.624835     8A     -1.624722     9A     -1.042972
      10A     -0.926600    11A     -0.811682    12A     -0.811650
      13A     -0.770264    14A     -0.703197    15A     -0.703162
      16A     -0.660156    17A     -0.660096    18A     -0.642701
      19A     -0.621704    20A     -0.621618    21A     -0.505808

  @DF-RHF Final Energy:  -375.94230023214141

   => Energetics <=

    Nuclear Repulsion Energy =            197.5137275449721699
    One-Electron Energy =                -914.4752881703750518
    Two-Electron Energy =                 341.0192603932614475
    Total Energy =                       -375.9423002321414060
  Basis Set: (AUG-CC-PVTZ AUX)
    Blend: AUG-CC-PVTZ-RI
    Molecular point group: c1

    Geometry (in Angstrom), charge = 0, multiplicity = 1:

       Center              X                  Y                   Z               Mass
    ------------   -----------------  -----------------  -----------------  -----------------
         F            0.470864995828    -0.556668698333    -1.123732660886    18.998403162730
         F            0.470532995828     1.251613301667     0.079899339114    18.998403162730
         F            0.470610995828    -0.694796698333     1.044001339114    18.998403162730
         C           -0.032212004172    -0.000149698333    -0.000091660886    12.000000000000
         C           -1.727245004172    -0.000053298333    -0.000109760886    12.000000000000
         H           -1.889529004172     0.456252301667     0.921213339114     1.007825032230
         H           -1.889224004172     0.569561301667    -0.856148660886     1.007825032230
         H           -1.889326004172    -1.026184698333    -0.065833660886     1.007825032230

  Basis Set: AUG-CC-PVTZ
    Blend: AUG-CC-PVTZ
  Basis Set: (AUG-CC-PVTZ AUX)
    Blend: AUG-CC-PVTZ-JKFIT
	 Reference Energy          =    -375.9423002321414060 [Eh]
	 Singles Energy            =      -0.0000000000000000 [Eh]
	 Same-Spin Energy          =      -0.2988691282356698 [Eh]
	 Opposite-Spin Energy      =      -0.8949139727158504 [Eh]
	 Correlation Energy        =      -1.1937831009515203 [Eh]
	 Total Energy              =    -377.1360833330929268 [Eh]

	 ================> DF-SCS-MP2 Energies <==================
	-----------------------------------------------------------
	 SCS Same-Spin Scale       =       0.3333333333333333 [-]
	 SCS Opposite-Spin Scale   =       1.2000000000000000 [-]
	 SCS Same-Spin Energy      =      -0.0996230427452233 [Eh]
	 SCS Opposite-Spin Energy  =      -1.0738967672590205 [Eh]
	 SCS Correlation Energy    =      -1.1735198100042439 [Eh]
	 SCS Total Energy          =    -377.1158200421456286 [Eh]
	-----------------------------------------------------------

  Dipole Moment: [D]
     X:    -2.1951      Y:    -0.0015      Z:    -0.0008     Total:     2.1951

*** Psi4 exiting successfully. Buy a developer a beer!
