                               Psi4 1.3.2 release

  ==> Input File <==

--------------------------------------------------------------------------
#psi4
#
memory 32 gb

molecule  {
0 1
  F        0.4060565    -0.6154934    -1.1085980
  F        0.4057016     1.2603399     0.1400133
  F        0.4420460    -0.6947950     1.0440010
  C       -0.0607770    -0.0001480    -0.0000920
  C       -1.5558100    -0.0000630    -0.0001080
  H       -1.9180940     0.4562540     0.9212130
  H       -1.9177890     0.5695630    -0.8561490
  H       -1.9178910    -1.0261830    -0.0658340
units angstrom
no_reorient  #important for SAPT in psi4, default
symmetry c1  #important for SAPT in psi4, default
}

set PROPERTIES_ORIGIN ["COM"]
properties('MP2/aug-cc-pvtz', properties = ['dipole'])
--------------------------------------------------------------------------

    Molecular point group: c1
  Charge       = 0
  Multiplicity = 1
  Basis Set: AUG-CC-PVTZ
    Blend: AUG-CC-PVTZ
  Basis Set: (AUG-CC-PVTZ AUX)
    Blend: AUG-CC-PVTZ-JKFIT

    Orbital Energies [Eh]
    ---------------------

    Doubly Occupied:

       1A    -26.338293     2A    -26.338171     3A    -26.330191
       4A    -11.505559     5A    -11.257164     6A     -1.719878
       7A     -1.635094     8A     -1.622815     9A     -1.071319
      10A     -0.920357    11A     -0.822672    12A     -0.813772
      13A     -0.774750    14A     -0.712579    15A     -0.702579
      16A     -0.668551    17A     -0.658543    18A     -0.644813
      19A     -0.587417    20A     -0.586222    21A     -0.565244

  @DF-RHF Final Energy:  -375.96838007711148

   => Energetics <=

    Nuclear Repulsion Energy =            201.0175916966800287
    One-Electron Energy =                -921.4199771609316940
    Two-Electron Energy =                 344.4340053871401892
    Total Energy =                       -375.9683800771114761
  Basis Set: (AUG-CC-PVTZ AUX)
    Blend: AUG-CC-PVTZ-RI
    Molecular point group: c1

    Geometry (in Angstrom), charge = 0, multiplicity = 1:

       Center              X                  Y                   Z               Mass
    ------------   -----------------  -----------------  -----------------  -----------------
         F            0.422452444484    -0.604164460383    -1.125613420489    18.998403162730
         F            0.422097544484     1.271668839617     0.122997879511    18.998403162730
         F            0.458441944484    -0.683466060383     1.026985579511    18.998403162730
         C           -0.044381055516     0.011180939617    -0.017107420489    12.000000000000
         C           -1.539414055516     0.011265939617    -0.017123420489    12.000000000000
         H           -1.901698055516     0.467582939617     0.904197579511     1.007825032230
         H           -1.901393055516     0.580891939617    -0.873164420489     1.007825032230
         H           -1.901495055516    -1.014854060383    -0.082849420489     1.007825032230

  Basis Set: AUG-CC-PVTZ
    Blend: AUG-CC-PVTZ
  Basis Set: (AUG-CC-PVTZ AUX)
    Blend: AUG-CC-PVTZ-JKFIT
	 Reference Energy          =    -375.9683800771114761 [Eh]
	 Singles Energy            =      -0.0000000000000000 [Eh]
	 Same-Spin Energy          =      -0.2990012392108831 [Eh]
	 Opposite-Spin Energy      =      -0.8938085701685861 [Eh]
	 Correlation Energy        =      -1.1928098093794692 [Eh]
	 Total Energy              =    -377.1611898864909449 [Eh]

	 ================> DF-SCS-MP2 Energies <==================
	-----------------------------------------------------------
	 SCS Same-Spin Scale       =       0.3333333333333333 [-]
	 SCS Opposite-Spin Scale   =       1.2000000000000000 [-]
	 SCS Same-Spin Energy      =      -0.0996670797369610 [Eh]
	 SCS Opposite-Spin Energy  =      -1.0725702842023033 [Eh]
	 SCS Correlation Energy    =      -1.1722373639392643 [Eh]
	 SCS Total Energy          =    -377.1406174410507219 [Eh]
	-----------------------------------------------------------

  Dipole Moment: [D]
     X:    -2.2532      Y:     0.0740      Z:    -0.1143     Total:     2.2573

*** Psi4 exiting successfully. Buy a developer a beer!
