                               Psi4 1.3.2 release

  ==> Input File <==

--------------------------------------------------------------------------
#psi4
#
memory 32 gb

molecule  {
0 1
  F        0.4423000    -0.5566670    -1.1237330
  F        0.4419680     1.2516150     0.0798990
  F        0.4420460    -0.6947950     1.0440010
  C       -0.0610043     0.0114320     0.0232895
  C       -1.5558100    -0.0000630    -0.0001080
  H       -1.9000954     0.4589897     0.9267390
  H       -1.9177890     0.5695630    -0.8561490
  H       -1.9178910    -1.0261830    -0.0658340
units angstrom
no_reorient  #important for SAPT in psi4, default
symmetry c1  #important for SAPT in psi4, default
}

set PROPERTIES_ORIGIN ["COM"]
properties('MP2/aug-cc-pvtz', properties = ['dipole'])
--------------------------------------------------------------------------

    Molecular point group: c1
  Charge       = 0
  Multiplicity = 1
  Basis Set: AUG-CC-PVTZ
    Blend: AUG-CC-PVTZ
  Basis Set: (AUG-CC-PVTZ AUX)
    Blend: AUG-CC-PVTZ-JKFIT

    Orbital Energies [Eh]
    ---------------------

    Doubly Occupied:

       1A    -26.338521     2A    -26.338444     3A    -26.323299
       4A    -11.505034     5A    -11.260393     6A     -1.721235
       7A     -1.634916     8A     -1.616716     9A     -1.072924
      10A     -0.921024    11A     -0.819309    12A     -0.814351
      13A     -0.775604    14A     -0.708631    15A     -0.703067
      16A     -0.664356    17A     -0.654927    18A     -0.642181
      19A     -0.591069    20A     -0.589760    21A     -0.567538

  @DF-RHF Final Energy:  -375.97023103171188

   => Energetics <=

    Nuclear Repulsion Energy =            201.1008602220325940
    One-Electron Energy =                -921.6155836276705031
    Two-Electron Energy =                 344.5444923739260616
    Total Energy =                       -375.9702310317118759
  Basis Set: (AUG-CC-PVTZ AUX)
    Blend: AUG-CC-PVTZ-RI
    Molecular point group: c1

    Geometry (in Angstrom), charge = 0, multiplicity = 1:

       Center              X                  Y                   Z               Mass
    ------------   -----------------  -----------------  -----------------  -----------------
         F            0.442116487665    -0.558353803351    -1.127138718033    18.998403162730
         F            0.441784487665     1.249928196649     0.076493281967    18.998403162730
         F            0.441862487665    -0.696481803351     1.040595281967    18.998403162730
         C           -0.061187812335     0.009745196649     0.019883781967    12.000000000000
         C           -1.555993512335    -0.001749803351    -0.003513718033    12.000000000000
         H           -1.900278912335     0.457302896649     0.923333281967     1.007825032230
         H           -1.917972512335     0.567876196649    -0.859554718033     1.007825032230
         H           -1.918074512335    -1.027869803351    -0.069239718033     1.007825032230

  Basis Set: AUG-CC-PVTZ
    Blend: AUG-CC-PVTZ
  Basis Set: (AUG-CC-PVTZ AUX)
    Blend: AUG-CC-PVTZ-JKFIT
	 Reference Energy          =    -375.9702310317118759 [Eh]
	 Singles Energy            =      -0.0000000000000000 [Eh]
	 Same-Spin Energy          =      -0.2989142956794970 [Eh]
	 Opposite-Spin Energy      =      -0.8935322402710408 [Eh]
	 Correlation Energy        =      -1.1924465359505378 [Eh]
	 Total Energy              =    -377.1626775676623993 [Eh]

	 ================> DF-SCS-MP2 Energies <==================
	-----------------------------------------------------------
	 SCS Same-Spin Scale       =       0.3333333333333333 [-]
	 SCS Opposite-Spin Scale   =       1.2000000000000000 [-]
	 SCS Same-Spin Energy      =      -0.0996380985598323 [Eh]
	 SCS Opposite-Spin Energy  =      -1.0722386883252490 [Eh]
	 SCS Correlation Energy    =      -1.1718767868850815 [Eh]
	 SCS Total Energy          =    -377.1421078185969691 [Eh]
	-----------------------------------------------------------

  Dipole Moment: [D]
     X:    -2.3872      Y:     0.0895      Z:     0.1828     Total:     2.3959

*** Psi4 exiting successfully. Buy a developer a beer!
