                               Psi4 1.3.2 release

  ==> Input File <==

--------------------------------------------------------------------------
#psi4
#
memory 32 gb

molecule  {
0 1
  F        0.4423000    -0.5566670    -1.1237330
  F        0.4419680     1.2516150     0.0798990
  F        0.4420460    -0.6947950     1.0440010
  C       -0.0607770    -0.0001480    -0.0000920
  C       -1.4558100    -0.0000687    -0.0001069
  H       -1.9180940     0.4562540     0.9212130
  H       -1.9177890     0.5695630    -0.8561490
  H       -1.9178910    -1.0261830    -0.0658340
units angstrom
no_reorient  #important for SAPT in psi4, default
symmetry c1  #important for SAPT in psi4, default
}

set PROPERTIES_ORIGIN ["COM"]
properties('MP2/aug-cc-pvtz', properties = ['dipole'])
--------------------------------------------------------------------------

    Molecular point group: c1
  Charge       = 0
  Multiplicity = 1
  Basis Set: AUG-CC-PVTZ
    Blend: AUG-CC-PVTZ
  Basis Set: (AUG-CC-PVTZ AUX)
    Blend: AUG-CC-PVTZ-JKFIT

    Orbital Energies [Eh]
    ---------------------

    Doubly Occupied:

       1A    -26.332533     2A    -26.332483     3A    -26.332408
       4A    -11.501127     5A    -11.262409     6A     -1.720888
       7A     -1.626663     8A     -1.626552     9A     -1.095949
      10A     -0.915998    11A     -0.818902    12A     -0.818869
      13A     -0.777654    14A     -0.707021    15A     -0.706992
      16A     -0.658820    17A     -0.658762    18A     -0.643247
      19A     -0.597392    20A     -0.569321    21A     -0.569271

  @DF-RHF Final Energy:  -375.95756970108107

   => Energetics <=

    Nuclear Repulsion Energy =            203.0374794309116737
    One-Electron Energy =                -925.4435772055041980
    Two-Electron Energy =                 346.4485280735115111
    Total Energy =                       -375.9575697010810700
  Basis Set: (AUG-CC-PVTZ AUX)
    Blend: AUG-CC-PVTZ-RI
    Molecular point group: c1

    Geometry (in Angstrom), charge = 0, multiplicity = 1:

       Center              X                  Y                   Z               Mass
    ------------   -----------------  -----------------  -----------------  -----------------
         F            0.428017383802    -0.556666256019    -1.123733117927    18.998403162730
         F            0.427685383802     1.251615743981     0.079898882073    18.998403162730
         F            0.427763383802    -0.694794256019     1.044000882073    18.998403162730
         C           -0.075059616198    -0.000147256019    -0.000092117927    12.000000000000
         C           -1.470092616198    -0.000067956019    -0.000107017927    12.000000000000
         H           -1.932376616198     0.456254743981     0.921212882073     1.007825032230
         H           -1.932071616198     0.569563743981    -0.856149117927     1.007825032230
         H           -1.932173616198    -1.026182256019    -0.065834117927     1.007825032230

  Basis Set: AUG-CC-PVTZ
    Blend: AUG-CC-PVTZ
  Basis Set: (AUG-CC-PVTZ AUX)
    Blend: AUG-CC-PVTZ-JKFIT
	 Reference Energy          =    -375.9575697010810700 [Eh]
	 Singles Energy            =      -0.0000000000000000 [Eh]
	 Same-Spin Energy          =      -0.2999422783535725 [Eh]
	 Opposite-Spin Energy      =      -0.8947583039159561 [Eh]
	 Correlation Energy        =      -1.1947005822695287 [Eh]
	 Total Energy              =    -377.1522702833506173 [Eh]

	 ================> DF-SCS-MP2 Energies <==================
	-----------------------------------------------------------
	 SCS Same-Spin Scale       =       0.3333333333333333 [-]
	 SCS Opposite-Spin Scale   =       1.2000000000000000 [-]
	 SCS Same-Spin Energy      =      -0.0999807594511908 [Eh]
	 SCS Opposite-Spin Energy  =      -1.0737099646991473 [Eh]
	 SCS Correlation Energy    =      -1.1736907241503380 [Eh]
	 SCS Total Energy          =    -377.1312604252314031 [Eh]
	-----------------------------------------------------------

  Dipole Moment: [D]
     X:    -2.5322      Y:    -0.0015      Z:    -0.0009     Total:     2.5322

*** Psi4 exiting successfully. Buy a developer a beer!
