                               Psi4 1.3.2 release

  ==> Input File <==

--------------------------------------------------------------------------
#psi4
#
memory 32 gb

molecule  {
0 1
  F        0.4303672    -0.5764533    -1.1190283
  F        0.4300275     1.2549059     0.0999696
  F        0.4420460    -0.6947950     1.0440010
  C       -0.0607770    -0.0001480    -0.0000920
  C       -1.5558100    -0.0000630    -0.0001080
  H       -1.9180940     0.4562540     0.9212130
  H       -1.9177890     0.5695630    -0.8561490
  H       -1.9178910    -1.0261830    -0.0658340
units angstrom
no_reorient  #important for SAPT in psi4, default
symmetry c1  #important for SAPT in psi4, default
}

set PROPERTIES_ORIGIN ["COM"]
properties('MP2/aug-cc-pvtz', properties = ['dipole'])
--------------------------------------------------------------------------

    Molecular point group: c1
  Charge       = 0
  Multiplicity = 1
  Basis Set: AUG-CC-PVTZ
    Blend: AUG-CC-PVTZ
  Basis Set: (AUG-CC-PVTZ AUX)
    Blend: AUG-CC-PVTZ-JKFIT

    Orbital Energies [Eh]
    ---------------------

    Doubly Occupied:

       1A    -26.335268     2A    -26.335146     3A    -26.332429
       4A    -11.505288     5A    -11.259218     6A     -1.719776
       7A     -1.629539     8A     -1.625278     9A     -1.072139
      10A     -0.920571    11A     -0.818579    12A     -0.815523
      13A     -0.775257    14A     -0.708336    15A     -0.704922
      16A     -0.662585    17A     -0.659299    18A     -0.644446
      19A     -0.588695    20A     -0.588346    21A     -0.568035

  @DF-RHF Final Energy:  -375.97060768285780

   => Energetics <=

    Nuclear Repulsion Energy =            201.0354005169706397
    One-Electron Energy =                -921.4746676717056744
    Two-Electron Energy =                 344.4686594718772312
    Total Energy =                       -375.9706076828578034
  Basis Set: (AUG-CC-PVTZ AUX)
    Blend: AUG-CC-PVTZ-RI
    Molecular point group: c1

    Geometry (in Angstrom), charge = 0, multiplicity = 1:

       Center              X                  Y                   Z               Mass
    ------------   -----------------  -----------------  -----------------  -----------------
         F            0.435765379644    -0.572723410995    -1.124630480613    18.998403162730
         F            0.435425679644     1.258635789005     0.094367419387    18.998403162730
         F            0.447444179644    -0.691065110995     1.038398819387    18.998403162730
         C           -0.055378820356     0.003581889005    -0.005694180613    12.000000000000
         C           -1.550411820356     0.003666889005    -0.005710180613    12.000000000000
         H           -1.912695820356     0.459983889005     0.915610819387     1.007825032230
         H           -1.912390820356     0.573292889005    -0.861751180613     1.007825032230
         H           -1.912492820356    -1.022453110995    -0.071436180613     1.007825032230

  Basis Set: AUG-CC-PVTZ
    Blend: AUG-CC-PVTZ
  Basis Set: (AUG-CC-PVTZ AUX)
    Blend: AUG-CC-PVTZ-JKFIT
	 Reference Energy          =    -375.9706076828578034 [Eh]
	 Singles Energy            =      -0.0000000000000000 [Eh]
	 Same-Spin Energy          =      -0.2989070161218307 [Eh]
	 Opposite-Spin Energy      =      -0.8935603745769145 [Eh]
	 Correlation Energy        =      -1.1924673906987451 [Eh]
	 Total Energy              =    -377.1630750735565698 [Eh]

	 ================> DF-SCS-MP2 Energies <==================
	-----------------------------------------------------------
	 SCS Same-Spin Scale       =       0.3333333333333333 [-]
	 SCS Opposite-Spin Scale   =       1.2000000000000000 [-]
	 SCS Same-Spin Energy      =      -0.0996356720406102 [Eh]
	 SCS Opposite-Spin Energy  =      -1.0722724494922973 [Eh]
	 SCS Correlation Energy    =      -1.1719081215329075 [Eh]
	 SCS Total Energy          =    -377.1425158043907118 [Eh]
	-----------------------------------------------------------

  Dipole Moment: [D]
     X:    -2.3455      Y:     0.0237      Z:    -0.0387     Total:     2.3460

*** Psi4 exiting successfully. Buy a developer a beer!
