                               Psi4 1.3.2 release

  ==> Input File <==

--------------------------------------------------------------------------
#psi4
#
memory 32 gb

molecule  {
0 1
  O        1.3620710    -0.3800110    -0.9318440
  O        3.2020570     1.9012130    -0.2995130
  O        2.7994070    -2.7489470    -0.4002010
  O       -1.3621860     2.3740050     0.1547830
  N       -0.7982440     0.1994180    -0.2292560
  N       -3.0541720     0.8052390     0.2400120
  N       -4.6734100    -0.8124350     0.4126370
  C        2.7015950     0.8755540     0.5594740
  C        1.2368440     1.1072260     0.8878520
  C        2.6518190    -0.3922910    -0.2854700
  C        0.5739580     0.6830040    -0.4149160
  C        2.8020980    -1.6600160     0.5224700
  C       -1.1273370    -1.1158190    -0.3082760
  C       -1.7446880     1.2038920     0.0820450
  C       -2.4075225    -1.5091455    -0.0557235
  C       -3.3619920    -0.4731600     0.1685110
  H        3.3343810     0.7567850     1.4508530
  H        0.9047070     0.4438290     1.6934890
  H        0.9853290     2.1340670     1.1581470
  H        0.5274540     1.5132540    -1.1249130
  H        3.4174920    -0.3642830    -1.0666260
  H        1.9707490    -1.7331840     1.2432230
  H        3.7460890    -1.6095150     1.0882890
  H        3.1038510     2.7463240     0.1779830
  H       -0.3107400    -1.7892010    -0.5436980
  H        2.9100300    -3.5650720     0.1192120
  H       -2.7034680    -2.5490840    -0.1532500
  H       -5.0287110    -1.6377420    -0.0567190
  H       -5.2994710    -0.0137980     0.3861010
units angstrom
no_reorient  #important for SAPT in psi4, default
symmetry c1  #important for SAPT in psi4, default
}

set PROPERTIES_ORIGIN ["COM"]
properties('MP2/aug-cc-pvtz', properties = ['dipole'])
--------------------------------------------------------------------------

    Molecular point group: c1
  Charge       = 0
  Multiplicity = 1
  Basis Set: AUG-CC-PVTZ
    Blend: AUG-CC-PVTZ
  Basis Set: (AUG-CC-PVTZ AUX)
    Blend: AUG-CC-PVTZ-JKFIT

    Orbital Energies [Eh]
    ---------------------

    Doubly Occupied:

       1A    -20.577680     2A    -20.574315     3A    -20.572869
       4A    -20.503160     5A    -15.621700     6A    -15.588492
       7A    -15.540908     8A    -11.369967     9A    -11.345139
      10A    -11.330715    11A    -11.318317    12A    -11.300834
      13A    -11.296772    14A    -11.293040    15A    -11.237192
      16A    -11.236759    17A     -1.416645    18A     -1.382466
      19A     -1.373520    20A     -1.365688    21A     -1.292241
      22A     -1.261450    23A     -1.169187    24A     -1.078906
      25A     -1.068855    26A     -1.027878    27A     -0.926715
      28A     -0.897328    29A     -0.869011    30A     -0.830729
      31A     -0.806322    32A     -0.754011    33A     -0.738572
      34A     -0.720853    35A     -0.706695    36A     -0.692844
      37A     -0.689205    38A     -0.675964    39A     -0.656658
      40A     -0.636946    41A     -0.627747    42A     -0.618107
      43A     -0.604609    44A     -0.594966    45A     -0.588380
      46A     -0.572552    47A     -0.568853    48A     -0.544672
      49A     -0.532535    50A     -0.523574    51A     -0.510306
      52A     -0.485835    53A     -0.481991    54A     -0.468469
      55A     -0.461112    56A     -0.444516    57A     -0.437843
      58A     -0.416528    59A     -0.383744    60A     -0.334969

  @DF-RHF Final Energy:  -811.47878735197139

   => Energetics <=

    Nuclear Repulsion Energy =           1169.9713198414528961
    One-Electron Energy =               -3435.0044941041137463
    Two-Electron Energy =                1453.5543869106895727
    Total Energy =                       -811.4787873519712775
  Basis Set: (AUG-CC-PVTZ AUX)
    Blend: AUG-CC-PVTZ-RI
    Molecular point group: c1

    Geometry (in Angstrom), charge = 0, multiplicity = 1:

       Center              X                  Y                   Z               Mass
    ------------   -----------------  -----------------  -----------------  -----------------
         O            1.361553948168    -0.379768781323    -0.934423649763    15.994914619570
         O            3.201539948168     1.901455218677    -0.302092649763    15.994914619570
         O            2.798889948168    -2.748704781323    -0.402780649763    15.994914619570
         O           -1.362703051832     2.374247218677     0.152203350237    15.994914619570
         N           -0.798761051832     0.199660218677    -0.231835649763    14.003074004430
         N           -3.054689051832     0.805481218677     0.237432350237    14.003074004430
         N           -4.673927051832    -0.812192781323     0.410057350237    14.003074004430
         C            2.701077948168     0.875796218677     0.556894350237    12.000000000000
         C            1.236326948168     1.107468218677     0.885272350237    12.000000000000
         C            2.651301948168    -0.392048781323    -0.288049649763    12.000000000000
         C            0.573440948168     0.683246218677    -0.417495649763    12.000000000000
         C            2.801580948168    -1.659773781323     0.519890350237    12.000000000000
         C           -1.127854051832    -1.115576781323    -0.310855649763    12.000000000000
         C           -1.745205051832     1.204134218677     0.079465350237    12.000000000000
         C           -2.408039551832    -1.508903281323    -0.058303149763    12.000000000000
         C           -3.362509051832    -0.472917781323     0.165931350237    12.000000000000
         H            3.333863948168     0.757027218677     1.448273350237     1.007825032230
         H            0.904189948168     0.444071218677     1.690909350237     1.007825032230
         H            0.984811948168     2.134309218677     1.155567350237     1.007825032230
         H            0.526936948168     1.513496218677    -1.127492649763     1.007825032230
         H            3.416974948168    -0.364040781323    -1.069205649763     1.007825032230
         H            1.970231948168    -1.732941781323     1.240643350237     1.007825032230
         H            3.745571948168    -1.609272781323     1.085709350237     1.007825032230
         H            3.103333948168     2.746566218677     0.175403350237     1.007825032230
         H           -0.311257051832    -1.788958781323    -0.546277649763     1.007825032230
         H            2.909512948168    -3.564829781323     0.116632350237     1.007825032230
         H           -2.703985051832    -2.548841781323    -0.155829649763     1.007825032230
         H           -5.029228051832    -1.637499781323    -0.059298649763     1.007825032230
         H           -5.299988051832    -0.013555781323     0.383521350237     1.007825032230

  Basis Set: AUG-CC-PVTZ
    Blend: AUG-CC-PVTZ
  Basis Set: (AUG-CC-PVTZ AUX)
    Blend: AUG-CC-PVTZ-JKFIT
	 Reference Energy          =    -811.4787873519713912 [Eh]
	 Singles Energy            =      -0.0000000000000000 [Eh]
	 Same-Spin Energy          =      -0.8296774629278159 [Eh]
	 Opposite-Spin Energy      =      -2.5251969420869109 [Eh]
	 Correlation Energy        =      -3.3548744050147268 [Eh]
	 Total Energy              =    -814.8336617569860891 [Eh]

	 ================> DF-SCS-MP2 Energies <==================
	-----------------------------------------------------------
	 SCS Same-Spin Scale       =       0.3333333333333333 [-]
	 SCS Opposite-Spin Scale   =       1.2000000000000000 [-]
	 SCS Same-Spin Energy      =      -0.2765591543092719 [Eh]
	 SCS Opposite-Spin Energy  =      -3.0302363305042932 [Eh]
	 SCS Correlation Energy    =      -3.3067954848135650 [Eh]
	 SCS Total Energy          =    -814.7855828367850108 [Eh]
	-----------------------------------------------------------

  Dipole Moment: [D]
     X:     1.0640      Y:    -4.6664      Z:     2.4514     Total:     5.3775

*** Psi4 exiting successfully. Buy a developer a beer!
