                               Psi4 1.3.2 release

  ==> Input File <==

--------------------------------------------------------------------------
#psi4
#
memory 32 gb

molecule  {
0 1
  O        1.3620710    -0.3800110    -0.9318440
  O        3.2020570     1.9012130    -0.2995130
  O        2.7994070    -2.7489470    -0.4002010
  O       -1.3621860     2.3740050     0.1547830
  N       -0.7982440     0.1994180    -0.2292560
  N       -3.0541720     0.8052390     0.2400120
  N       -4.6734100    -0.8124350     0.4126370
  C        2.7015950     0.8755540     0.5594740
  C        1.2368440     1.1072260     0.8878520
  C        2.6518190    -0.3922910    -0.2854700
  C        0.5739580     0.6830040    -0.4149160
  C        2.8020980    -1.6600160     0.5224700
  C       -1.1273370    -1.1158190    -0.3082760
  C       -1.7446880     1.2038920     0.0820450
  C       -2.3585999    -1.5320678     0.1883690
  C       -3.3619920    -0.4731600     0.1685110
  H        3.3343810     0.7567850     1.4508530
  H        0.9047070     0.4438290     1.6934890
  H        0.9853290     2.1340670     1.1581470
  H        0.5274540     1.5132540    -1.1249130
  H        3.4174920    -0.3642830    -1.0666260
  H        1.9707490    -1.7331840     1.2432230
  H        3.7460890    -1.6095150     1.0882890
  H        3.1038510     2.7463240     0.1779830
  H       -0.3107400    -1.7892010    -0.5436980
  H        2.9100300    -3.5650720     0.1192120
  H       -2.7034680    -2.5490840    -0.1532500
  H       -5.0287110    -1.6377420    -0.0567190
  H       -5.2994710    -0.0137980     0.3861010
units angstrom
no_reorient  #important for SAPT in psi4, default
symmetry c1  #important for SAPT in psi4, default
}

set PROPERTIES_ORIGIN ["COM"]
properties('MP2/aug-cc-pvtz', properties = ['dipole'])
--------------------------------------------------------------------------

    Molecular point group: c1
  Charge       = 0
  Multiplicity = 1
  Basis Set: AUG-CC-PVTZ
    Blend: AUG-CC-PVTZ
  Basis Set: (AUG-CC-PVTZ AUX)
    Blend: AUG-CC-PVTZ-JKFIT

    Orbital Energies [Eh]
    ---------------------

    Doubly Occupied:

       1A    -20.577813     2A    -20.575065     3A    -20.574095
       4A    -20.507060     5A    -15.624989     6A    -15.588917
       7A    -15.541474     8A    -11.372743     9A    -11.347896
      10A    -11.332272    11A    -11.325964    12A    -11.301714
      13A    -11.296947    14A    -11.293778    15A    -11.243239
      16A    -11.237956    17A     -1.418006    18A     -1.384675
      19A     -1.373911    20A     -1.366615    21A     -1.292573
      22A     -1.262736    23A     -1.169838    24A     -1.078280
      25A     -1.065857    26A     -1.026266    27A     -0.926388
      28A     -0.895943    29A     -0.869483    30A     -0.830398
      31A     -0.806200    32A     -0.749619    33A     -0.736906
      34A     -0.720893    35A     -0.706621    36A     -0.693886
      37A     -0.689817    38A     -0.677524    39A     -0.656166
      40A     -0.631867    41A     -0.628900    42A     -0.612534
      43A     -0.605429    44A     -0.592948    45A     -0.585580
      46A     -0.569980    47A     -0.566298    48A     -0.544234
      49A     -0.531961    50A     -0.523085    51A     -0.510599
      52A     -0.486617    53A     -0.480921    54A     -0.468884
      55A     -0.461666    56A     -0.445765    57A     -0.437546
      58A     -0.417515    59A     -0.383891    60A     -0.337132

  @DF-RHF Final Energy:  -811.45730043075434

   => Energetics <=

    Nuclear Repulsion Energy =           1169.2302342640803090
    One-Electron Energy =               -3433.4473158359755871
    Two-Electron Energy =                1452.7597811411412749
    Total Energy =                       -811.4573004307542305
  Basis Set: (AUG-CC-PVTZ AUX)
    Blend: AUG-CC-PVTZ-RI
    Molecular point group: c1

    Geometry (in Angstrom), charge = 0, multiplicity = 1:

       Center              X                  Y                   Z               Mass
    ------------   -----------------  -----------------  -----------------  -----------------
         O            1.358968763291    -0.378557513253    -0.947322069705    15.994914619570
         O            3.198954763291     1.902666486747    -0.314991069705    15.994914619570
         O            2.796304763291    -2.747493513253    -0.415679069705    15.994914619570
         O           -1.365288236709     2.375458486747     0.139304930295    15.994914619570
         N           -0.801346236709     0.200871486747    -0.244734069705    14.003074004430
         N           -3.057274236709     0.806692486747     0.224533930295    14.003074004430
         N           -4.676512236709    -0.810981513253     0.397158930295    14.003074004430
         C            2.698492763291     0.877007486747     0.543995930295    12.000000000000
         C            1.233741763291     1.108679486747     0.872373930295    12.000000000000
         C            2.648716763291    -0.390837513253    -0.300948069705    12.000000000000
         C            0.570855763291     0.684457486747    -0.430394069705    12.000000000000
         C            2.798995763291    -1.658562513253     0.506991930295    12.000000000000
         C           -1.130439236709    -1.114365513253    -0.323754069705    12.000000000000
         C           -1.747790236709     1.205345486747     0.066566930295    12.000000000000
         C           -2.361702136709    -1.530614313253     0.172890930295    12.000000000000
         C           -3.365094236709    -0.471706513253     0.153032930295    12.000000000000
         H            3.331278763291     0.758238486747     1.435374930295     1.007825032230
         H            0.901604763291     0.445282486747     1.678010930295     1.007825032230
         H            0.982226763291     2.135520486747     1.142668930295     1.007825032230
         H            0.524351763291     1.514707486747    -1.140391069705     1.007825032230
         H            3.414389763291    -0.362829513253    -1.082104069705     1.007825032230
         H            1.967646763291    -1.731730513253     1.227744930295     1.007825032230
         H            3.742986763291    -1.608061513253     1.072810930295     1.007825032230
         H            3.100748763291     2.747777486747     0.162504930295     1.007825032230
         H           -0.313842236709    -1.787747513253    -0.559176069705     1.007825032230
         H            2.906927763291    -3.563618513253     0.103733930295     1.007825032230
         H           -2.706570236709    -2.547630513253    -0.168728069705     1.007825032230
         H           -5.031813236709    -1.636288513253    -0.072197069705     1.007825032230
         H           -5.302573236709    -0.012344513253     0.370622930295     1.007825032230

  Basis Set: AUG-CC-PVTZ
    Blend: AUG-CC-PVTZ
  Basis Set: (AUG-CC-PVTZ AUX)
    Blend: AUG-CC-PVTZ-JKFIT
	 Reference Energy          =    -811.4573004307543442 [Eh]
	 Singles Energy            =      -0.0000000000000000 [Eh]
	 Same-Spin Energy          =      -0.8303029476632202 [Eh]
	 Opposite-Spin Energy      =      -2.5276922564170086 [Eh]
	 Correlation Energy        =      -3.3579952040802290 [Eh]
	 Total Energy              =    -814.8152956348345697 [Eh]

	 ================> DF-SCS-MP2 Energies <==================
	-----------------------------------------------------------
	 SCS Same-Spin Scale       =       0.3333333333333333 [-]
	 SCS Opposite-Spin Scale   =       1.2000000000000000 [-]
	 SCS Same-Spin Energy      =      -0.2767676492210734 [Eh]
	 SCS Opposite-Spin Energy  =      -3.0332307077004104 [Eh]
	 SCS Correlation Energy    =      -3.3099983569214837 [Eh]
	 SCS Total Energy          =    -814.7672987876758270 [Eh]
	-----------------------------------------------------------

  Dipole Moment: [D]
     X:     1.0971      Y:    -4.3790      Z:     2.2642     Total:     5.0503

*** Psi4 exiting successfully. Buy a developer a beer!
