                               Psi4 1.3.2 release

  ==> Input File <==

--------------------------------------------------------------------------
#psi4
#
memory 32 gb

molecule  {
0 1
  O        1.3620710    -0.3800110    -0.9318440
  O        3.2020570     1.9012130    -0.2995130
  O        2.7994070    -2.7489470    -0.4002010
  O       -1.3621860     2.3740050     0.1547830
  N       -0.7982440     0.1994180    -0.2292560
  N       -3.0541720     0.8052390     0.2400120
  N       -4.6734100    -0.8124350     0.4126370
  C        2.7015950     0.8755540     0.5594740
  C        1.2368440     1.1072260     0.8878520
  C        2.6518190    -0.3922910    -0.2854700
  C        0.5739580     0.6830040    -0.4149160
  C        2.8020980    -1.6600160     0.5224700
  C       -1.1273370    -1.1158190    -0.3082760
  C       -1.7446880     1.2038920     0.0820450
  C       -2.4173070    -1.5045610    -0.1045420
  C       -3.3619920    -0.4731600     0.1685110
  H        3.3343810     0.7567850     1.4508530
  H        0.9047070     0.4438290     1.6934890
  H        0.9853290     2.1340670     1.1581470
  H        0.5274540     1.5132540    -1.1249130
  H        3.4174920    -0.3642830    -1.0666260
  H        1.9707490    -1.7331840     1.2432230
  H        3.7460890    -1.6095150     1.0882890
  H        3.1038510     2.7463240     0.1779830
  H       -0.3107400    -1.7892010    -0.5436980
  H        2.9100300    -3.5650720     0.1192120
  H       -2.7034680    -2.5490840    -0.1532500
  H       -5.0287110    -1.6377420    -0.0567190
  H       -5.3018666    -0.0010314     0.3378177
units angstrom
no_reorient  #important for SAPT in psi4, default
symmetry c1  #important for SAPT in psi4, default
}

set PROPERTIES_ORIGIN ["COM"]
properties('MP2/aug-cc-pvtz', properties = ['dipole'])
--------------------------------------------------------------------------

    Molecular point group: c1
  Charge       = 0
  Multiplicity = 1
  Basis Set: AUG-CC-PVTZ
    Blend: AUG-CC-PVTZ
  Basis Set: (AUG-CC-PVTZ AUX)
    Blend: AUG-CC-PVTZ-JKFIT

    Orbital Energies [Eh]
    ---------------------

    Doubly Occupied:

       1A    -20.577814     2A    -20.574415     3A    -20.572990
       4A    -20.503226     5A    -15.621959     6A    -15.589562
       7A    -15.541088     8A    -11.370089     9A    -11.344998
      10A    -11.330870    11A    -11.318446    12A    -11.300937
      13A    -11.296932    14A    -11.293157    15A    -11.237130
      16A    -11.236885    17A     -1.416775    18A     -1.382582
      19A     -1.373641    20A     -1.365802    21A     -1.292220
      22A     -1.261262    23A     -1.168631    24A     -1.079078
      25A     -1.068996    26A     -1.027946    27A     -0.926671
      28A     -0.897372    29A     -0.868955    30A     -0.830818
      31A     -0.806336    32A     -0.752974    33A     -0.738852
      34A     -0.721018    35A     -0.706472    36A     -0.692649
      37A     -0.689336    38A     -0.674241    39A     -0.655621
      40A     -0.637144    41A     -0.627837    42A     -0.618097
      43A     -0.604309    44A     -0.594421    45A     -0.588712
      46A     -0.573021    47A     -0.568814    48A     -0.545039
      49A     -0.532842    50A     -0.523835    51A     -0.510685
      52A     -0.485972    53A     -0.482227    54A     -0.468573
      55A     -0.461231    56A     -0.444702    57A     -0.437899
      58A     -0.416546    59A     -0.384411    60A     -0.335077

  @DF-RHF Final Energy:  -811.47859055843730

   => Energetics <=

    Nuclear Repulsion Energy =           1169.8955487627667935
    One-Electron Energy =               -3434.8479964292559998
    Two-Electron Energy =                1453.4738571080520160
    Total Energy =                       -811.4785905584371903
  Basis Set: (AUG-CC-PVTZ AUX)
    Blend: AUG-CC-PVTZ-RI
    Molecular point group: c1

    Geometry (in Angstrom), charge = 0, multiplicity = 1:

       Center              X                  Y                   Z               Mass
    ------------   -----------------  -----------------  -----------------  -----------------
         O            1.362081615727    -0.380067695049    -0.931629685143    15.994914619570
         O            3.202067615727     1.901156304951    -0.299298685143    15.994914619570
         O            2.799417615727    -2.749003695049    -0.399986685143    15.994914619570
         O           -1.362175384273     2.373948304951     0.154997314857    15.994914619570
         N           -0.798233384273     0.199361304951    -0.229041685143    14.003074004430
         N           -3.054161384273     0.805182304951     0.240226314857    14.003074004430
         N           -4.673399384273    -0.812491695049     0.412851314857    14.003074004430
         C            2.701605615727     0.875497304951     0.559688314857    12.000000000000
         C            1.236854615727     1.107169304951     0.888066314857    12.000000000000
         C            2.651829615727    -0.392347695049    -0.285255685143    12.000000000000
         C            0.573968615727     0.682947304951    -0.414701685143    12.000000000000
         C            2.802108615727    -1.660072695049     0.522684314857    12.000000000000
         C           -1.127326384273    -1.115875695049    -0.308061685143    12.000000000000
         C           -1.744677384273     1.203835304951     0.082259314857    12.000000000000
         C           -2.417296384273    -1.504617695049    -0.104327685143    12.000000000000
         C           -3.361981384273    -0.473216695049     0.168725314857    12.000000000000
         H            3.334391615727     0.756728304951     1.451067314857     1.007825032230
         H            0.904717615727     0.443772304951     1.693703314857     1.007825032230
         H            0.985339615727     2.134010304951     1.158361314857     1.007825032230
         H            0.527464615727     1.513197304951    -1.124698685143     1.007825032230
         H            3.417502615727    -0.364339695049    -1.066411685143     1.007825032230
         H            1.970759615727    -1.733240695049     1.243437314857     1.007825032230
         H            3.746099615727    -1.609571695049     1.088503314857     1.007825032230
         H            3.103861615727     2.746267304951     0.178197314857     1.007825032230
         H           -0.310729384273    -1.789257695049    -0.543483685143     1.007825032230
         H            2.910040615727    -3.565128695049     0.119426314857     1.007825032230
         H           -2.703457384273    -2.549140695049    -0.153035685143     1.007825032230
         H           -5.028700384273    -1.637798695049    -0.056504685143     1.007825032230
         H           -5.301855984273    -0.001088095049     0.338032014857     1.007825032230

  Basis Set: AUG-CC-PVTZ
    Blend: AUG-CC-PVTZ
  Basis Set: (AUG-CC-PVTZ AUX)
    Blend: AUG-CC-PVTZ-JKFIT
	 Reference Energy          =    -811.4785905584373040 [Eh]
	 Singles Energy            =      -0.0000000000000000 [Eh]
	 Same-Spin Energy          =      -0.8297549309051691 [Eh]
	 Opposite-Spin Energy      =      -2.5254245528765686 [Eh]
	 Correlation Energy        =      -3.3551794837817379 [Eh]
	 Total Energy              =    -814.8337700422190437 [Eh]

	 ================> DF-SCS-MP2 Energies <==================
	-----------------------------------------------------------
	 SCS Same-Spin Scale       =       0.3333333333333333 [-]
	 SCS Opposite-Spin Scale   =       1.2000000000000000 [-]
	 SCS Same-Spin Energy      =      -0.2765849769683897 [Eh]
	 SCS Opposite-Spin Energy  =      -3.0305094634518821 [Eh]
	 SCS Correlation Energy    =      -3.3070944404202720 [Eh]
	 SCS Total Energy          =    -814.7856849988576187 [Eh]
	-----------------------------------------------------------

  Dipole Moment: [D]
     X:     1.1085      Y:    -4.6665      Z:     2.4271     Total:     5.3755

*** Psi4 exiting successfully. Buy a developer a beer!
