                               Psi4 1.3.2 release

  ==> Input File <==

--------------------------------------------------------------------------
#psi4
#
memory 32 gb

molecule  {
0 1
  O        1.3620710    -0.3800110    -0.9318440
  O        3.2020570     1.9012130    -0.2995130
  O        2.7994070    -2.7489470    -0.4002010
  O       -1.3621860     2.3740050     0.1547830
  N       -0.7982440     0.1994180    -0.2292560
  N       -3.0541720     0.8052390     0.2400120
  N       -4.6734100    -0.8124350     0.4126370
  C        2.7015950     0.8755540     0.5594740
  C        1.2368440     1.1072260     0.8878520
  C        2.6518190    -0.3922910    -0.2854700
  C        0.5739580     0.6830040    -0.4149160
  C        2.8020980    -1.6600160     0.5224700
  C       -1.1273370    -1.1158190    -0.3082760
  C       -1.7446880     1.2038920     0.0820450
  C       -2.4173070    -1.5045610    -0.1045420
  C       -3.3619920    -0.4731600     0.1685110
  H        3.3343810     0.7567850     1.4508530
  H        0.9047070     0.4438290     1.6934890
  H        0.9853290     2.1340670     1.1581470
  H        0.5274540     1.5132540    -1.1249130
  H        3.4174920    -0.3642830    -1.0666260
  H        1.9707490    -1.7331840     1.2432230
  H        3.7460890    -1.6095150     1.0882890
  H        3.1038510     2.7463240     0.1779830
  H       -0.2729644    -1.8108069    -0.3484899
  H        2.9100300    -3.5650720     0.1192120
  H       -2.7034680    -2.5490840    -0.1532500
  H       -5.0287110    -1.6377420    -0.0567190
  H       -5.2994710    -0.0137980     0.3861010
units angstrom
no_reorient  #important for SAPT in psi4, default
symmetry c1  #important for SAPT in psi4, default
}

set PROPERTIES_ORIGIN ["COM"]
properties('MP2/aug-cc-pvtz', properties = ['dipole'])
--------------------------------------------------------------------------

    Molecular point group: c1
  Charge       = 0
  Multiplicity = 1
  Basis Set: AUG-CC-PVTZ
    Blend: AUG-CC-PVTZ
  Basis Set: (AUG-CC-PVTZ AUX)
    Blend: AUG-CC-PVTZ-JKFIT

    Orbital Energies [Eh]
    ---------------------

    Doubly Occupied:

       1A    -20.578083     2A    -20.574366     3A    -20.572524
       4A    -20.503136     5A    -15.621528     6A    -15.588445
       7A    -15.540978     8A    -11.369992     9A    -11.345302
      10A    -11.330589    11A    -11.320439    12A    -11.300882
      13A    -11.297353    14A    -11.293066    15A    -11.237523
      16A    -11.236832    17A     -1.416441    18A     -1.382490
      19A     -1.373806    20A     -1.365736    21A     -1.292326
      22A     -1.261416    23A     -1.169213    24A     -1.078814
      25A     -1.069042    26A     -1.028085    27A     -0.926875
      28A     -0.896441    29A     -0.869017    30A     -0.830650
      31A     -0.806393    32A     -0.754400    33A     -0.737932
      34A     -0.721440    35A     -0.706291    36A     -0.692313
      37A     -0.689251    38A     -0.674681    39A     -0.657281
      40A     -0.637418    41A     -0.627293    42A     -0.617945
      43A     -0.604340    44A     -0.596006    45A     -0.587007
      46A     -0.572872    47A     -0.568715    48A     -0.545199
      49A     -0.532389    50A     -0.523475    51A     -0.510417
      52A     -0.486378    53A     -0.481739    54A     -0.468695
      55A     -0.461778    56A     -0.444135    57A     -0.436802
      58A     -0.416346    59A     -0.383832    60A     -0.335137

  @DF-RHF Final Energy:  -811.47617032894834

   => Energetics <=

    Nuclear Repulsion Energy =           1169.9550554468432892
    One-Electron Energy =               -3434.9638780906125248
    Two-Electron Energy =                1453.5326523148210072
    Total Energy =                       -811.4761703289482284
  Basis Set: (AUG-CC-PVTZ AUX)
    Blend: AUG-CC-PVTZ-RI
    Molecular point group: c1

    Geometry (in Angstrom), charge = 0, multiplicity = 1:

       Center              X                  Y                   Z               Mass
    ------------   -----------------  -----------------  -----------------  -----------------
         O            1.361903336485    -0.379915150360    -0.932710296677    15.994914619570
         O            3.201889336485     1.901308849640    -0.300379296677    15.994914619570
         O            2.799239336485    -2.748851150360    -0.401067296677    15.994914619570
         O           -1.362353663515     2.374100849640     0.153916703323    15.994914619570
         N           -0.798411663515     0.199513849640    -0.230122296677    14.003074004430
         N           -3.054339663515     0.805334849640     0.239145703323    14.003074004430
         N           -4.673577663515    -0.812339150360     0.411770703323    14.003074004430
         C            2.701427336485     0.875649849640     0.558607703323    12.000000000000
         C            1.236676336485     1.107321849640     0.886985703323    12.000000000000
         C            2.651651336485    -0.392195150360    -0.286336296677    12.000000000000
         C            0.573790336485     0.683099849640    -0.415782296677    12.000000000000
         C            2.801930336485    -1.659920150360     0.521603703323    12.000000000000
         C           -1.127504663515    -1.115723150360    -0.309142296677    12.000000000000
         C           -1.744855663515     1.203987849640     0.081178703323    12.000000000000
         C           -2.417474663515    -1.504465150360    -0.105408296677    12.000000000000
         C           -3.362159663515    -0.473064150360     0.167644703323    12.000000000000
         H            3.334213336485     0.756880849640     1.449986703323     1.007825032230
         H            0.904539336485     0.443924849640     1.692622703323     1.007825032230
         H            0.985161336485     2.134162849640     1.157280703323     1.007825032230
         H            0.527286336485     1.513349849640    -1.125779296677     1.007825032230
         H            3.417324336485    -0.364187150360    -1.067492296677     1.007825032230
         H            1.970581336485    -1.733088150360     1.242356703323     1.007825032230
         H            3.745921336485    -1.609419150360     1.087422703323     1.007825032230
         H            3.103683336485     2.746419849640     0.177116703323     1.007825032230
         H           -0.273132063515    -1.810711050360    -0.349356196677     1.007825032230
         H            2.909862336485    -3.564976150360     0.118345703323     1.007825032230
         H           -2.703635663515    -2.548988150360    -0.154116296677     1.007825032230
         H           -5.028878663515    -1.637646150360    -0.057585296677     1.007825032230
         H           -5.299638663515    -0.013702150360     0.385234703323     1.007825032230

  Basis Set: AUG-CC-PVTZ
    Blend: AUG-CC-PVTZ
  Basis Set: (AUG-CC-PVTZ AUX)
    Blend: AUG-CC-PVTZ-JKFIT
	 Reference Energy          =    -811.4761703289483421 [Eh]
	 Singles Energy            =      -0.0000000000000000 [Eh]
	 Same-Spin Energy          =      -0.8298715834414599 [Eh]
	 Opposite-Spin Energy      =      -2.5256507901252996 [Eh]
	 Correlation Energy        =      -3.3555223735667594 [Eh]
	 Total Energy              =    -814.8316927025150562 [Eh]

	 ================> DF-SCS-MP2 Energies <==================
	-----------------------------------------------------------
	 SCS Same-Spin Scale       =       0.3333333333333333 [-]
	 SCS Opposite-Spin Scale   =       1.2000000000000000 [-]
	 SCS Same-Spin Energy      =      -0.2766238611471533 [Eh]
	 SCS Opposite-Spin Energy  =      -3.0307809481503596 [Eh]
	 SCS Correlation Energy    =      -3.3074048092975130 [Eh]
	 SCS Total Energy          =    -814.7835751382458511 [Eh]
	-----------------------------------------------------------

  Dipole Moment: [D]
     X:     1.0744      Y:    -4.6775      Z:     2.5980     Total:     5.4573

*** Psi4 exiting successfully. Buy a developer a beer!
