                               Psi4 1.3.2 release

  ==> Input File <==

--------------------------------------------------------------------------
#psi4
#
memory 32 gb

molecule  {
0 1
  O        1.3620710    -0.3800110    -0.9318440
  O        3.2020570     1.9012130    -0.2995130
  O        2.7994070    -2.7489470    -0.4002010
  O       -1.3621860     2.3740050     0.1547830
  N       -0.7982440     0.1994180    -0.2292560
  N       -3.0541720     0.8052390     0.2400120
  N       -4.6734100    -0.8124350     0.4126370
  C        2.7015950     0.8755540     0.5594740
  C        1.2368440     1.1072260     0.8878520
  C        2.6518190    -0.3922910    -0.2854700
  C        0.5739580     0.6830040    -0.4149160
  C        2.8020980    -1.6600160     0.5224700
  C       -1.1273370    -1.1158190    -0.3082760
  C       -1.7446880     1.2038920     0.0820450
  C       -2.4173070    -1.5045610    -0.1045420
  C       -3.3619920    -0.4731600     0.1685110
  H        3.3343810     0.7567850     1.4508530
  H        0.9047070     0.4438290     1.6934890
  H        0.9853290     2.1340670     1.1581470
  H        0.5274540     1.5132540    -1.1249130
  H        3.4174920    -0.3642830    -1.0666260
  H        1.9707490    -1.7331840     1.2432230
  H        3.7460890    -1.6095150     1.0882890
  H        3.1038510     2.7463240     0.1779830
  H       -0.3107400    -1.7892010    -0.5436980
  H        2.9100300    -3.5650720     0.1192120
  H       -2.7034680    -2.5490840    -0.1532500
  H       -5.0287110    -1.6377420    -0.0567190
  H       -5.3138448     0.0628013     0.0964013
units angstrom
no_reorient  #important for SAPT in psi4, default
symmetry c1  #important for SAPT in psi4, default
}

set PROPERTIES_ORIGIN ["COM"]
properties('MP2/aug-cc-pvtz', properties = ['dipole'])
--------------------------------------------------------------------------

    Molecular point group: c1
  Charge       = 0
  Multiplicity = 1
  Basis Set: AUG-CC-PVTZ
    Blend: AUG-CC-PVTZ
  Basis Set: (AUG-CC-PVTZ AUX)
    Blend: AUG-CC-PVTZ-JKFIT

    Orbital Energies [Eh]
    ---------------------

    Doubly Occupied:

       1A    -20.578148     2A    -20.574803     3A    -20.573558
       4A    -20.504095     5A    -15.623236     6A    -15.597384
       7A    -15.542418     8A    -11.370969     9A    -11.344880
      10A    -11.331574    11A    -11.319360    12A    -11.301366
      13A    -11.297294    14A    -11.293594    15A    -11.237802
      16A    -11.237416    17A     -1.417383    18A     -1.383353
      19A     -1.374001    20A     -1.366275    21A     -1.291841
      22A     -1.259667    23A     -1.165025    24A     -1.079555
      25A     -1.069300    26A     -1.027763    27A     -0.926032
      28A     -0.896819    29A     -0.868689    30A     -0.830895
      31A     -0.806209    32A     -0.747160    33A     -0.739500
      34A     -0.721387    35A     -0.704964    36A     -0.692071
      37A     -0.689694    38A     -0.668770    39A     -0.647489
      40A     -0.636783    41A     -0.628878    42A     -0.615349
      43A     -0.602855    44A     -0.591279    45A     -0.582840
      46A     -0.574182    47A     -0.568448    48A     -0.545788
      49A     -0.533339    50A     -0.524365    51A     -0.511777
      52A     -0.486477    53A     -0.482961    54A     -0.468951
      55A     -0.461826    56A     -0.445792    57A     -0.438183
      58A     -0.417462    59A     -0.387618    60A     -0.335811

  @DF-RHF Final Energy:  -811.46474225588793

   => Energetics <=

    Nuclear Repulsion Energy =           1169.5622574093858930
    One-Electron Energy =               -3434.1685882885763021
    Two-Electron Energy =                1453.1415886233023684
    Total Energy =                       -811.4647422558880407
  Basis Set: (AUG-CC-PVTZ AUX)
    Blend: AUG-CC-PVTZ-RI
    Molecular point group: c1

    Geometry (in Angstrom), charge = 0, multiplicity = 1:

       Center              X                  Y                   Z               Mass
    ------------   -----------------  -----------------  -----------------  -----------------
         O            1.362134774816    -0.380350983707    -0.930558282431    15.994914619570
         O            3.202120774816     1.900873016293    -0.298227282431    15.994914619570
         O            2.799470774816    -2.749286983707    -0.398915282431    15.994914619570
         O           -1.362122225184     2.373665016293     0.156068717569    15.994914619570
         N           -0.798180225184     0.199078016293    -0.227970282431    14.003074004430
         N           -3.054108225184     0.804899016293     0.241297717569    14.003074004430
         N           -4.673346225184    -0.812774983707     0.413922717569    14.003074004430
         C            2.701658774816     0.875214016293     0.560759717569    12.000000000000
         C            1.236907774816     1.106886016293     0.889137717569    12.000000000000
         C            2.651882774816    -0.392630983707    -0.284184282431    12.000000000000
         C            0.574021774816     0.682664016293    -0.413630282431    12.000000000000
         C            2.802161774816    -1.660355983707     0.523755717569    12.000000000000
         C           -1.127273225184    -1.116158983707    -0.306990282431    12.000000000000
         C           -1.744624225184     1.203552016293     0.083330717569    12.000000000000
         C           -2.417243225184    -1.504900983707    -0.103256282431    12.000000000000
         C           -3.361928225184    -0.473499983707     0.169796717569    12.000000000000
         H            3.334444774816     0.756445016293     1.452138717569     1.007825032230
         H            0.904770774816     0.443489016293     1.694774717569     1.007825032230
         H            0.985392774816     2.133727016293     1.159432717569     1.007825032230
         H            0.527517774816     1.512914016293    -1.123627282431     1.007825032230
         H            3.417555774816    -0.364622983707    -1.065340282431     1.007825032230
         H            1.970812774816    -1.733523983707     1.244508717569     1.007825032230
         H            3.746152774816    -1.609854983707     1.089574717569     1.007825032230
         H            3.103914774816     2.745984016293     0.179268717569     1.007825032230
         H           -0.310676225184    -1.789540983707    -0.542412282431     1.007825032230
         H            2.910093774816    -3.565411983707     0.120497717569     1.007825032230
         H           -2.703404225184    -2.549423983707    -0.151964282431     1.007825032230
         H           -5.028647225184    -1.638081983707    -0.055433282431     1.007825032230
         H           -5.313781025184     0.062461316293     0.097687017569     1.007825032230

  Basis Set: AUG-CC-PVTZ
    Blend: AUG-CC-PVTZ
  Basis Set: (AUG-CC-PVTZ AUX)
    Blend: AUG-CC-PVTZ-JKFIT
	 Reference Energy          =    -811.4647422558879271 [Eh]
	 Singles Energy            =      -0.0000000000000000 [Eh]
	 Same-Spin Energy          =      -0.8305516856180286 [Eh]
	 Opposite-Spin Energy      =      -2.5276664373315931 [Eh]
	 Correlation Energy        =      -3.3582181229496220 [Eh]
	 Total Energy              =    -814.8229603788375925 [Eh]

	 ================> DF-SCS-MP2 Energies <==================
	-----------------------------------------------------------
	 SCS Same-Spin Scale       =       0.3333333333333333 [-]
	 SCS Opposite-Spin Scale   =       1.2000000000000000 [-]
	 SCS Same-Spin Energy      =      -0.2768505618726762 [Eh]
	 SCS Opposite-Spin Energy  =      -3.0331997247979117 [Eh]
	 SCS Correlation Energy    =      -3.3100502866705881 [Eh]
	 SCS Total Energy          =    -814.7747925425585436 [Eh]
	-----------------------------------------------------------

  Dipole Moment: [D]
     X:     1.3066      Y:    -4.6201      Z:     2.1427     Total:     5.2577

*** Psi4 exiting successfully. Buy a developer a beer!
