                               Psi4 1.3.2 release

  ==> Input File <==

--------------------------------------------------------------------------
#psi4
#
memory 32 gb

molecule  {
0 1
  O        1.3620710    -0.3800110    -0.9318440
  O        3.2020570     1.9012130    -0.2995130
  O        2.7994070    -2.7489470    -0.4002010
  O       -1.3621860     2.3740050     0.1547830
  N       -0.7982440     0.1994180    -0.2292560
  N       -3.0541720     0.8052390     0.2400120
  N       -4.6734100    -0.8124350     0.4126370
  C        2.7015950     0.8755540     0.5594740
  C        1.2368440     1.1072260     0.8878520
  C        2.6518190    -0.3922910    -0.2854700
  C        0.5739580     0.6830040    -0.4149160
  C        2.8020980    -1.6600160     0.5224700
  C       -1.1273370    -1.1158190    -0.3082760
  C       -1.7446880     1.2038920     0.0820450
  C       -2.4173070    -1.5045610    -0.1045420
  C       -3.3619920    -0.4731600     0.1685110
  H        3.3343810     0.7567850     1.4508530
  H        0.9047070     0.4438290     1.6934890
  H        0.9853290     2.1340670     1.1581470
  H        0.5274540     1.5132540    -1.1249130
  H        3.4174920    -0.3642830    -1.0666260
  H        1.9707490    -1.7331840     1.2432230
  H        3.7460890    -1.6095150     1.0882890
  H        3.1038510     2.7463240     0.1779830
  H       -0.3107400    -1.7892010    -0.5436980
  H        2.9100300    -3.5650720     0.1192120
  H       -2.7034680    -2.5490840    -0.1532500
  H       -5.0287110    -1.6377420    -0.0567190
  H       -5.3114492     0.0500348     0.1446845
units angstrom
no_reorient  #important for SAPT in psi4, default
symmetry c1  #important for SAPT in psi4, default
}

set PROPERTIES_ORIGIN ["COM"]
properties('MP2/aug-cc-pvtz', properties = ['dipole'])
--------------------------------------------------------------------------

    Molecular point group: c1
  Charge       = 0
  Multiplicity = 1
  Basis Set: AUG-CC-PVTZ
    Blend: AUG-CC-PVTZ
  Basis Set: (AUG-CC-PVTZ AUX)
    Blend: AUG-CC-PVTZ-JKFIT

    Orbital Energies [Eh]
    ---------------------

    Doubly Occupied:

       1A    -20.578078     2A    -20.574725     3A    -20.573443
       4A    -20.503936     5A    -15.622976     6A    -15.595641
       7A    -15.542186     8A    -11.370816     9A    -11.344890
      10A    -11.331433    11A    -11.319169    12A    -11.301279
      13A    -11.297219    14A    -11.293505    15A    -11.237654
      16A    -11.237308    17A     -1.417261    18A     -1.383209
      19A     -1.373927    20A     -1.366181    21A     -1.291942
      22A     -1.260059    23A     -1.165855    24A     -1.079461
      25A     -1.069243    26A     -1.027808    27A     -0.926152
      28A     -0.896931    29A     -0.868753    30A     -0.830879
      31A     -0.806223    32A     -0.748170    33A     -0.739371
      34A     -0.721311    35A     -0.705227    36A     -0.692147
      37A     -0.689627    38A     -0.669438    39A     -0.649265
      40A     -0.636930    41A     -0.628707    42A     -0.615936
      43A     -0.603116    44A     -0.591464    45A     -0.585442
      46A     -0.573973    47A     -0.568689    48A     -0.545667
      49A     -0.533392    50A     -0.524261    51A     -0.511594
      52A     -0.486376    53A     -0.482819    54A     -0.468874
      55A     -0.461708    56A     -0.445596    57A     -0.438133
      58A     -0.417305    59A     -0.387028    60A     -0.335670

  @DF-RHF Final Energy:  -811.46900457426477

   => Energetics <=

    Nuclear Repulsion Energy =           1169.6412226377087791
    One-Electron Energy =               -3434.3297012827333674
    Two-Electron Energy =                1453.2194740707598157
    Total Energy =                       -811.4690045742647726
  Basis Set: (AUG-CC-PVTZ AUX)
    Blend: AUG-CC-PVTZ-RI
    Molecular point group: c1

    Geometry (in Angstrom), charge = 0, multiplicity = 1:

       Center              X                  Y                   Z               Mass
    ------------   -----------------  -----------------  -----------------  -----------------
         O            1.362124143176    -0.380294326153    -0.930772562618    15.994914619570
         O            3.202110143176     1.900929673847    -0.298441562618    15.994914619570
         O            2.799460143176    -2.749230326153    -0.399129562618    15.994914619570
         O           -1.362132856824     2.373721673847     0.155854437382    15.994914619570
         N           -0.798190856824     0.199134673847    -0.228184562618    14.003074004430
         N           -3.054118856824     0.804955673847     0.241083437382    14.003074004430
         N           -4.673356856824    -0.812718326153     0.413708437382    14.003074004430
         C            2.701648143176     0.875270673847     0.560545437382    12.000000000000
         C            1.236897143176     1.106942673847     0.888923437382    12.000000000000
         C            2.651872143176    -0.392574326153    -0.284398562618    12.000000000000
         C            0.574011143176     0.682720673847    -0.413844562618    12.000000000000
         C            2.802151143176    -1.660299326153     0.523541437382    12.000000000000
         C           -1.127283856824    -1.116102326153    -0.307204562618    12.000000000000
         C           -1.744634856824     1.203608673847     0.083116437382    12.000000000000
         C           -2.417253856824    -1.504844326153    -0.103470562618    12.000000000000
         C           -3.361938856824    -0.473443326153     0.169582437382    12.000000000000
         H            3.334434143176     0.756501673847     1.451924437382     1.007825032230
         H            0.904760143176     0.443545673847     1.694560437382     1.007825032230
         H            0.985382143176     2.133783673847     1.159218437382     1.007825032230
         H            0.527507143176     1.512970673847    -1.123841562618     1.007825032230
         H            3.417545143176    -0.364566326153    -1.065554562618     1.007825032230
         H            1.970802143176    -1.733467326153     1.244294437382     1.007825032230
         H            3.746142143176    -1.609798326153     1.089360437382     1.007825032230
         H            3.103904143176     2.746040673847     0.179054437382     1.007825032230
         H           -0.310686856824    -1.789484326153    -0.542626562618     1.007825032230
         H            2.910083143176    -3.565355326153     0.120283437382     1.007825032230
         H           -2.703414856824    -2.549367326153    -0.152178562618     1.007825032230
         H           -5.028657856824    -1.638025326153    -0.055647562618     1.007825032230
         H           -5.311396056824     0.049751473847     0.145755937382     1.007825032230

  Basis Set: AUG-CC-PVTZ
    Blend: AUG-CC-PVTZ
  Basis Set: (AUG-CC-PVTZ AUX)
    Blend: AUG-CC-PVTZ-JKFIT
	 Reference Energy          =    -811.4690045742647726 [Eh]
	 Singles Energy            =      -0.0000000000000000 [Eh]
	 Same-Spin Energy          =      -0.8303580367856656 [Eh]
	 Opposite-Spin Energy      =      -2.5271085604636809 [Eh]
	 Correlation Energy        =      -3.3574665972493465 [Eh]
	 Total Energy              =    -814.8264711715140720 [Eh]

	 ================> DF-SCS-MP2 Energies <==================
	-----------------------------------------------------------
	 SCS Same-Spin Scale       =       0.3333333333333333 [-]
	 SCS Opposite-Spin Scale   =       1.2000000000000000 [-]
	 SCS Same-Spin Energy      =      -0.2767860122618885 [Eh]
	 SCS Opposite-Spin Energy  =      -3.0325302725564169 [Eh]
	 SCS Correlation Energy    =      -3.3093162848183053 [Eh]
	 SCS Total Energy          =    -814.7783208590831237 [Eh]
	-----------------------------------------------------------

  Dipole Moment: [D]
     X:     1.2639      Y:    -4.6274      Z:     2.1958     Total:     5.2756

*** Psi4 exiting successfully. Buy a developer a beer!
