                               Psi4 1.3.2 release

  ==> Input File <==

--------------------------------------------------------------------------
#psi4
#
memory 32 gb

molecule  {
0 1
  O        1.3620710    -0.3800110    -0.9318440
  O        3.2020570     1.9012130    -0.2995130
  O        2.7994070    -2.7489470    -0.4002010
  O       -1.3621860     2.3740050     0.1547830
  N       -0.7982440     0.1994180    -0.2292560
  N       -3.0879075     0.8310061     0.0445690
  N       -4.6734100    -0.8124350     0.4126370
  C        2.7015950     0.8755540     0.5594740
  C        1.2368440     1.1072260     0.8878520
  C        2.6518190    -0.3922910    -0.2854700
  C        0.5739580     0.6830040    -0.4149160
  C        2.8020980    -1.6600160     0.5224700
  C       -1.1273370    -1.1158190    -0.3082760
  C       -1.7446880     1.2038920     0.0820450
  C       -2.4173070    -1.5045610    -0.1045420
  C       -3.3619920    -0.4731600     0.1685110
  H        3.3343810     0.7567850     1.4508530
  H        0.9047070     0.4438290     1.6934890
  H        0.9853290     2.1340670     1.1581470
  H        0.5274540     1.5132540    -1.1249130
  H        3.4174920    -0.3642830    -1.0666260
  H        1.9707490    -1.7331840     1.2432230
  H        3.7460890    -1.6095150     1.0882890
  H        3.1038510     2.7463240     0.1779830
  H       -0.3107400    -1.7892010    -0.5436980
  H        2.9100300    -3.5650720     0.1192120
  H       -2.7034680    -2.5490840    -0.1532500
  H       -5.0287110    -1.6377420    -0.0567190
  H       -5.2994710    -0.0137980     0.3861010
units angstrom
no_reorient  #important for SAPT in psi4, default
symmetry c1  #important for SAPT in psi4, default
}

set PROPERTIES_ORIGIN ["COM"]
properties('MP2/aug-cc-pvtz', properties = ['dipole'])
--------------------------------------------------------------------------

    Molecular point group: c1
  Charge       = 0
  Multiplicity = 1
  Basis Set: AUG-CC-PVTZ
    Blend: AUG-CC-PVTZ
  Basis Set: (AUG-CC-PVTZ AUX)
    Blend: AUG-CC-PVTZ-JKFIT

    Orbital Energies [Eh]
    ---------------------

    Doubly Occupied:

       1A    -20.577932     2A    -20.574577     3A    -20.573155
       4A    -20.505165     5A    -15.622096     6A    -15.589110
       7A    -15.543847     8A    -11.370618     9A    -11.347162
      10A    -11.331136    11A    -11.318321    12A    -11.301096
      13A    -11.297107    14A    -11.293319    15A    -11.237430
      16A    -11.237159    17A     -1.416846    18A     -1.382130
      19A     -1.373776    20A     -1.365866    21A     -1.290113
      22A     -1.260380    23A     -1.163541    24A     -1.079043
      25A     -1.068961    26A     -1.028068    27A     -0.926323
      28A     -0.897543    29A     -0.864857    30A     -0.829429
      31A     -0.806603    32A     -0.750647    33A     -0.738810
      34A     -0.721247    35A     -0.707170    36A     -0.693113
      37A     -0.689611    38A     -0.676499    39A     -0.656841
      40A     -0.637982    41A     -0.625342    42A     -0.618460
      43A     -0.604637    44A     -0.594945    45A     -0.588279
      46A     -0.573737    47A     -0.567864    48A     -0.544326
      49A     -0.528629    50A     -0.523227    51A     -0.508894
      52A     -0.486020    53A     -0.484122    54A     -0.468753
      55A     -0.461542    56A     -0.444991    57A     -0.439253
      58A     -0.414961    59A     -0.382853    60A     -0.334607

  @DF-RHF Final Energy:  -811.47024862509727

   => Energetics <=

    Nuclear Repulsion Energy =           1168.9956431050331958
    One-Electron Energy =               -3433.0516416892592133
    Two-Electron Energy =                1452.5857499591288615
    Total Energy =                       -811.4702486250971560
  Basis Set: (AUG-CC-PVTZ AUX)
    Blend: AUG-CC-PVTZ-RI
    Molecular point group: c1

    Geometry (in Angstrom), charge = 0, multiplicity = 1:

       Center              X                  Y                   Z               Mass
    ------------   -----------------  -----------------  -----------------  -----------------
         O            1.364151214139    -0.381599912147    -0.919792376138    15.994914619570
         O            3.204137214139     1.899624087853    -0.287461376138    15.994914619570
         O            2.801487214139    -2.750535912147    -0.388149376138    15.994914619570
         O           -1.360105785861     2.372416087853     0.166834623862    15.994914619570
         N           -0.796163785861     0.197829087853    -0.217204376138    14.003074004430
         N           -3.085827285861     0.829417187853     0.056620623862    14.003074004430
         N           -4.671329785861    -0.814023912147     0.424688623862    14.003074004430
         C            2.703675214139     0.873965087853     0.571525623862    12.000000000000
         C            1.238924214139     1.105637087853     0.899903623862    12.000000000000
         C            2.653899214139    -0.393879912147    -0.273418376138    12.000000000000
         C            0.576038214139     0.681415087853    -0.402864376138    12.000000000000
         C            2.804178214139    -1.661604912147     0.534521623862    12.000000000000
         C           -1.125256785861    -1.117407912147    -0.296224376138    12.000000000000
         C           -1.742607785861     1.202303087853     0.094096623862    12.000000000000
         C           -2.415226785861    -1.506149912147    -0.092490376138    12.000000000000
         C           -3.359911785861    -0.474748912147     0.180562623862    12.000000000000
         H            3.336461214139     0.755196087853     1.462904623862     1.007825032230
         H            0.906787214139     0.442240087853     1.705540623862     1.007825032230
         H            0.987409214139     2.132478087853     1.170198623862     1.007825032230
         H            0.529534214139     1.511665087853    -1.112861376138     1.007825032230
         H            3.419572214139    -0.365871912147    -1.054574376138     1.007825032230
         H            1.972829214139    -1.734772912147     1.255274623862     1.007825032230
         H            3.748169214139    -1.611103912147     1.100340623862     1.007825032230
         H            3.105931214139     2.744735087853     0.190034623862     1.007825032230
         H           -0.308659785861    -1.790789912147    -0.531646376138     1.007825032230
         H            2.912110214139    -3.566660912147     0.131263623862     1.007825032230
         H           -2.701387785861    -2.550672912147    -0.141198376138     1.007825032230
         H           -5.026630785861    -1.639330912147    -0.044667376138     1.007825032230
         H           -5.297390785861    -0.015386912147     0.398152623862     1.007825032230

  Basis Set: AUG-CC-PVTZ
    Blend: AUG-CC-PVTZ
  Basis Set: (AUG-CC-PVTZ AUX)
    Blend: AUG-CC-PVTZ-JKFIT
	 Reference Energy          =    -811.4702486250972697 [Eh]
	 Singles Energy            =      -0.0000000000000000 [Eh]
	 Same-Spin Energy          =      -0.8302687720319093 [Eh]
	 Opposite-Spin Energy      =      -2.5267586004380611 [Eh]
	 Correlation Energy        =      -3.3570273724699704 [Eh]
	 Total Energy              =    -814.8272759975671988 [Eh]

	 ================> DF-SCS-MP2 Energies <==================
	-----------------------------------------------------------
	 SCS Same-Spin Scale       =       0.3333333333333333 [-]
	 SCS Opposite-Spin Scale   =       1.2000000000000000 [-]
	 SCS Same-Spin Energy      =      -0.2767562573439697 [Eh]
	 SCS Opposite-Spin Energy  =      -3.0321103205256734 [Eh]
	 SCS Correlation Energy    =      -3.3088665778696433 [Eh]
	 SCS Total Energy          =    -814.7791152029668638 [Eh]
	-----------------------------------------------------------

  Dipole Moment: [D]
     X:     1.1499      Y:    -4.6765      Z:     2.7568     Total:     5.5491

*** Psi4 exiting successfully. Buy a developer a beer!
