                               Psi4 1.3.2 release

  ==> Input File <==

--------------------------------------------------------------------------
#psi4
#
memory 32 gb

molecule  {
0 1
  O        1.3620710    -0.3800110    -0.9318440
  O        3.2020570     1.9012130    -0.2995130
  O        2.7994070    -2.7489470    -0.4002010
  O       -1.3621860     2.3740050     0.1547830
  N       -0.7982440     0.1994180    -0.2292560
  N       -3.0541720     0.8052390     0.2400120
  N       -4.6734100    -0.8124350     0.4126370
  C        2.7015950     0.8755540     0.5594740
  C        1.2368440     1.1072260     0.8878520
  C        2.6518190    -0.3922910    -0.2854700
  C        0.5739580     0.6830040    -0.4149160
  C        2.8020980    -1.6600160     0.5224700
  C       -1.1273370    -1.1158190    -0.3082760
  C       -1.7446880     1.2038920     0.0820450
  C       -2.4173070    -1.5045610    -0.1045420
  C       -3.3619920    -0.4731600     0.1685110
  H        3.3343810     0.7567850     1.4508530
  H        0.9047070     0.4438290     1.6934890
  H        0.9853290     2.1340670     1.1581470
  H        0.5274540     1.5132540    -1.1249130
  H        3.4174920    -0.3642830    -1.0666260
  H        1.9707490    -1.7331840     1.2432230
  H        3.7460890    -1.6095150     1.0882890
  H        3.1038510     2.7463240     0.1779830
  H       -0.2540766    -1.8216098    -0.2508859
  H        2.9100300    -3.5650720     0.1192120
  H       -2.7034680    -2.5490840    -0.1532500
  H       -5.0287110    -1.6377420    -0.0567190
  H       -5.2994710    -0.0137980     0.3861010
units angstrom
no_reorient  #important for SAPT in psi4, default
symmetry c1  #important for SAPT in psi4, default
}

set PROPERTIES_ORIGIN ["COM"]
properties('MP2/aug-cc-pvtz', properties = ['dipole'])
--------------------------------------------------------------------------

    Molecular point group: c1
  Charge       = 0
  Multiplicity = 1
  Basis Set: AUG-CC-PVTZ
    Blend: AUG-CC-PVTZ
  Basis Set: (AUG-CC-PVTZ AUX)
    Blend: AUG-CC-PVTZ-JKFIT

    Orbital Energies [Eh]
    ---------------------

    Doubly Occupied:

       1A    -20.578123     2A    -20.574327     3A    -20.572150
       4A    -20.503218     5A    -15.621357     6A    -15.588599
       7A    -15.541237     8A    -11.370094     9A    -11.345570
      10A    -11.330432    11A    -11.322580    12A    -11.300831
      13A    -11.297517    14A    -11.292962    15A    -11.238098
      16A    -11.236808    17A     -1.416184    18A     -1.382523
      19A     -1.373823    20A     -1.365660    21A     -1.292432
      22A     -1.261395    23A     -1.169355    24A     -1.078607
      25A     -1.069015    26A     -1.028103    27A     -0.926831
      28A     -0.895041    29A     -0.869030    30A     -0.830514
      31A     -0.806242    32A     -0.754539    33A     -0.736987
      34A     -0.721523    35A     -0.705585    36A     -0.691947
      37A     -0.689209    38A     -0.673656    39A     -0.657222
      40A     -0.637586    41A     -0.627466    42A     -0.617418
      43A     -0.603762    44A     -0.595730    45A     -0.585240
      46A     -0.572886    47A     -0.568613    48A     -0.545272
      49A     -0.532332    50A     -0.523225    51A     -0.510377
      52A     -0.486485    53A     -0.481285    54A     -0.468668
      55A     -0.461967    56A     -0.444032    57A     -0.436097
      58A     -0.416248    59A     -0.383938    60A     -0.335271

  @DF-RHF Final Energy:  -811.47195031571096

   => Energetics <=

    Nuclear Repulsion Energy =           1169.9007195459987543
    One-Electron Energy =               -3434.8588940971330885
    Two-Electron Energy =                1453.4862242354231512
    Total Energy =                       -811.4719503157109557
  Basis Set: (AUG-CC-PVTZ AUX)
    Blend: AUG-CC-PVTZ-RI
    Molecular point group: c1

    Geometry (in Angstrom), charge = 0, multiplicity = 1:

       Center              X                  Y                   Z               Mass
    ------------   -----------------  -----------------  -----------------  -----------------
         O            1.361819512685    -0.379867207236    -0.933143461907    15.994914619570
         O            3.201805512685     1.901356792764    -0.300812461907    15.994914619570
         O            2.799155512685    -2.748803207236    -0.401500461907    15.994914619570
         O           -1.362437487315     2.374148792764     0.153483538093    15.994914619570
         N           -0.798495487315     0.199561792764    -0.230555461907    14.003074004430
         N           -3.054423487315     0.805382792764     0.238712538093    14.003074004430
         N           -4.673661487315    -0.812291207236     0.411337538093    14.003074004430
         C            2.701343512685     0.875697792764     0.558174538093    12.000000000000
         C            1.236592512685     1.107369792764     0.886552538093    12.000000000000
         C            2.651567512685    -0.392147207236    -0.286769461907    12.000000000000
         C            0.573706512685     0.683147792764    -0.416215461907    12.000000000000
         C            2.801846512685    -1.659872207236     0.521170538093    12.000000000000
         C           -1.127588487315    -1.115675207236    -0.309575461907    12.000000000000
         C           -1.744939487315     1.204035792764     0.080745538093    12.000000000000
         C           -2.417558487315    -1.504417207236    -0.105841461907    12.000000000000
         C           -3.362243487315    -0.473016207236     0.167211538093    12.000000000000
         H            3.334129512685     0.756928792764     1.449553538093     1.007825032230
         H            0.904455512685     0.443972792764     1.692189538093     1.007825032230
         H            0.985077512685     2.134210792764     1.156847538093     1.007825032230
         H            0.527202512685     1.513397792764    -1.126212461907     1.007825032230
         H            3.417240512685    -0.364139207236    -1.067925461907     1.007825032230
         H            1.970497512685    -1.733040207236     1.241923538093     1.007825032230
         H            3.745837512685    -1.609371207236     1.086989538093     1.007825032230
         H            3.103599512685     2.746467792764     0.176683538093     1.007825032230
         H           -0.254328087315    -1.821466007236    -0.252185361907     1.007825032230
         H            2.909778512685    -3.564928207236     0.117912538093     1.007825032230
         H           -2.703719487315    -2.548940207236    -0.154549461907     1.007825032230
         H           -5.028962487315    -1.637598207236    -0.058018461907     1.007825032230
         H           -5.299722487315    -0.013654207236     0.384801538093     1.007825032230

  Basis Set: AUG-CC-PVTZ
    Blend: AUG-CC-PVTZ
  Basis Set: (AUG-CC-PVTZ AUX)
    Blend: AUG-CC-PVTZ-JKFIT
	 Reference Energy          =    -811.4719503157109557 [Eh]
	 Singles Energy            =      -0.0000000000000000 [Eh]
	 Same-Spin Energy          =      -0.8301515076733623 [Eh]
	 Opposite-Spin Energy      =      -2.5262782611998622 [Eh]
	 Correlation Energy        =      -3.3564297688732245 [Eh]
	 Total Energy              =    -814.8283800845841824 [Eh]

	 ================> DF-SCS-MP2 Energies <==================
	-----------------------------------------------------------
	 SCS Same-Spin Scale       =       0.3333333333333333 [-]
	 SCS Opposite-Spin Scale   =       1.2000000000000000 [-]
	 SCS Same-Spin Energy      =      -0.2767171692244541 [Eh]
	 SCS Opposite-Spin Energy  =      -3.0315339134398345 [Eh]
	 SCS Correlation Energy    =      -3.3082510826642886 [Eh]
	 SCS Total Energy          =    -814.7802013983751976 [Eh]
	-----------------------------------------------------------

  Dipole Moment: [D]
     X:     1.0545      Y:    -4.6700      Z:     2.6527     Total:     5.4734

*** Psi4 exiting successfully. Buy a developer a beer!
