                               Psi4 1.3.2 release

  ==> Input File <==

--------------------------------------------------------------------------
#psi4
#
memory 32 gb

molecule  {
0 1
  O        1.3620710    -0.3800110    -0.9318440
  O        3.2020570     1.9012130    -0.2995130
  O        2.7994070    -2.7489470    -0.4002010
  O       -1.3621860     2.3740050     0.1547830
  N       -0.7982440     0.1994180    -0.2292560
  N       -3.0541720     0.8052390     0.2400120
  N       -4.6734100    -0.8124350     0.4126370
  C        2.7015950     0.8755540     0.5594740
  C        1.2368440     1.1072260     0.8878520
  C        2.6518190    -0.3922910    -0.2854700
  C        0.5739580     0.6830040    -0.4149160
  C        2.8020980    -1.6600160     0.5224700
  C       -1.1273370    -1.1158190    -0.3082760
  C       -1.7446880     1.2038920     0.0820450
  C       -2.4173070    -1.5045610    -0.1045420
  C       -3.3619920    -0.4731600     0.1685110
  H        3.3343810     0.7567850     1.4508530
  H        0.9047070     0.4438290     1.6934890
  H        0.9853290     2.1340670     1.1581470
  H        0.5274540     1.5132540    -1.1249130
  H        3.4174920    -0.3642830    -1.0666260
  H        1.9707490    -1.7331840     1.2432230
  H        3.7460890    -1.6095150     1.0882890
  H        3.1038510     2.7463240     0.1779830
  H       -0.3012961    -1.7946025    -0.4948960
  H        2.9100300    -3.5650720     0.1192120
  H       -2.7034680    -2.5490840    -0.1532500
  H       -5.0287110    -1.6377420    -0.0567190
  H       -5.2994710    -0.0137980     0.3861010
units angstrom
no_reorient  #important for SAPT in psi4, default
symmetry c1  #important for SAPT in psi4, default
}

set PROPERTIES_ORIGIN ["COM"]
properties('MP2/aug-cc-pvtz', properties = ['dipole'])
--------------------------------------------------------------------------

    Molecular point group: c1
  Charge       = 0
  Multiplicity = 1
  Basis Set: AUG-CC-PVTZ
    Blend: AUG-CC-PVTZ
  Basis Set: (AUG-CC-PVTZ AUX)
    Blend: AUG-CC-PVTZ-JKFIT

    Orbital Energies [Eh]
    ---------------------

    Doubly Occupied:

       1A    -20.577866     2A    -20.574362     3A    -20.572843
       4A    -20.503057     5A    -15.621698     6A    -15.588347
       7A    -15.540796     8A    -11.369903     9A    -11.345064
      10A    -11.330722    11A    -11.318538    12A    -11.300880
      13A    -11.297007    14A    -11.293099    15A    -11.237060
      16A    -11.236811    17A     -1.416643    18A     -1.382440
      19A     -1.373656    20A     -1.365739    21A     -1.292233
      22A     -1.261423    23A     -1.169108    24A     -1.078976
      25A     -1.068980    26A     -1.028003    27A     -0.926835
      28A     -0.897460    29A     -0.868990    30A     -0.830781
      31A     -0.806418    32A     -0.754257    33A     -0.738701
      34A     -0.721110    35A     -0.706810    36A     -0.692733
      37A     -0.689269    38A     -0.675643    39A     -0.656861
      40A     -0.637202    41A     -0.627424    42A     -0.618468
      43A     -0.604649    44A     -0.595533    45A     -0.588430
      46A     -0.572802    47A     -0.568765    48A     -0.544967
      49A     -0.532486    50A     -0.523698    51A     -0.510420
      52A     -0.486026    53A     -0.482083    54A     -0.468579
      55A     -0.461319    56A     -0.444372    57A     -0.437621
      58A     -0.416361    59A     -0.383742    60A     -0.334971

  @DF-RHF Final Energy:  -811.47915702814328

   => Energetics <=

    Nuclear Repulsion Energy =           1169.9594168505802827
    One-Electron Energy =               -3434.9750679601402226
    Two-Electron Energy =                1453.5364940814170041
    Total Energy =                       -811.4791570281431632
  Basis Set: (AUG-CC-PVTZ AUX)
    Blend: AUG-CC-PVTZ-RI
    Molecular point group: c1

    Geometry (in Angstrom), charge = 0, multiplicity = 1:

       Center              X                  Y                   Z               Mass
    ------------   -----------------  -----------------  -----------------  -----------------
         O            1.362029072186    -0.379987065267    -0.932060548389    15.994914619570
         O            3.202015072186     1.901236934733    -0.299729548389    15.994914619570
         O            2.799365072186    -2.748923065267    -0.400417548389    15.994914619570
         O           -1.362227927814     2.374028934733     0.154566451611    15.994914619570
         N           -0.798285927814     0.199441934733    -0.229472548389    14.003074004430
         N           -3.054213927814     0.805262934733     0.239795451611    14.003074004430
         N           -4.673451927814    -0.812411065267     0.412420451611    14.003074004430
         C            2.701553072186     0.875577934733     0.559257451611    12.000000000000
         C            1.236802072186     1.107249934733     0.887635451611    12.000000000000
         C            2.651777072186    -0.392267065267    -0.285686548389    12.000000000000
         C            0.573916072186     0.683027934733    -0.415132548389    12.000000000000
         C            2.802056072186    -1.659992065267     0.522253451611    12.000000000000
         C           -1.127378927814    -1.115795065267    -0.308492548389    12.000000000000
         C           -1.744729927814     1.203915934733     0.081828451611    12.000000000000
         C           -2.417348927814    -1.504537065267    -0.104758548389    12.000000000000
         C           -3.362033927814    -0.473136065267     0.168294451611    12.000000000000
         H            3.334339072186     0.756808934733     1.450636451611     1.007825032230
         H            0.904665072186     0.443852934733     1.693272451611     1.007825032230
         H            0.985287072186     2.134090934733     1.157930451611     1.007825032230
         H            0.527412072186     1.513277934733    -1.125129548389     1.007825032230
         H            3.417450072186    -0.364259065267    -1.066842548389     1.007825032230
         H            1.970707072186    -1.733160065267     1.243006451611     1.007825032230
         H            3.746047072186    -1.609491065267     1.088072451611     1.007825032230
         H            3.103809072186     2.746347934733     0.177766451611     1.007825032230
         H           -0.301338027814    -1.794578565267    -0.495112548389     1.007825032230
         H            2.909988072186    -3.565048065267     0.118995451611     1.007825032230
         H           -2.703509927814    -2.549060065267    -0.153466548389     1.007825032230
         H           -5.028752927814    -1.637718065267    -0.056935548389     1.007825032230
         H           -5.299512927814    -0.013774065267     0.385884451611     1.007825032230

  Basis Set: AUG-CC-PVTZ
    Blend: AUG-CC-PVTZ
  Basis Set: (AUG-CC-PVTZ AUX)
    Blend: AUG-CC-PVTZ-JKFIT
	 Reference Energy          =    -811.4791570281432769 [Eh]
	 Singles Energy            =      -0.0000000000000000 [Eh]
	 Same-Spin Energy          =      -0.8296654522863366 [Eh]
	 Opposite-Spin Energy      =      -2.5251818245531017 [Eh]
	 Correlation Energy        =      -3.3548472768394384 [Eh]
	 Total Energy              =    -814.8340043049827273 [Eh]

	 ================> DF-SCS-MP2 Energies <==================
	-----------------------------------------------------------
	 SCS Same-Spin Scale       =       0.3333333333333333 [-]
	 SCS Opposite-Spin Scale   =       1.2000000000000000 [-]
	 SCS Same-Spin Energy      =      -0.2765551507621122 [Eh]
	 SCS Opposite-Spin Energy  =      -3.0302181894637221 [Eh]
	 SCS Correlation Energy    =      -3.3067733402258344 [Eh]
	 SCS Total Energy          =    -814.7859303683691223 [Eh]
	-----------------------------------------------------------

  Dipole Moment: [D]
     X:     1.0798      Y:    -4.6799      Z:     2.5164     Total:     5.4221

*** Psi4 exiting successfully. Buy a developer a beer!
