                               Psi4 1.3.2 release

  ==> Input File <==

--------------------------------------------------------------------------
#psi4
#
memory 32 gb

molecule  {
0 1
  O        1.3620710    -0.3800110    -0.9318440
  O        3.2020570     1.9012130    -0.2995130
  O        2.7994070    -2.7489470    -0.4002010
  O       -1.3621860     2.3740050     0.1547830
  N       -0.7982440     0.1994180    -0.2292560
  N       -3.0541720     0.8052390     0.2400120
  N       -4.6734100    -0.8124350     0.4126370
  C        2.7015950     0.8755540     0.5594740
  C        1.2368440     1.1072260     0.8878520
  C        2.6518190    -0.3922910    -0.2854700
  C        0.5739580     0.6830040    -0.4149160
  C        2.8020980    -1.6600160     0.5224700
  C       -1.1273370    -1.1158190    -0.3082760
  C       -1.7813476     1.2269890    -0.1132051
  C       -2.4173070    -1.5045610    -0.1045420
  C       -3.3619920    -0.4731600     0.1685110
  H        3.3343810     0.7567850     1.4508530
  H        0.9047070     0.4438290     1.6934890
  H        0.9853290     2.1340670     1.1581470
  H        0.5274540     1.5132540    -1.1249130
  H        3.4174920    -0.3642830    -1.0666260
  H        1.9707490    -1.7331840     1.2432230
  H        3.7460890    -1.6095150     1.0882890
  H        3.1038510     2.7463240     0.1779830
  H       -0.3107400    -1.7892010    -0.5436980
  H        2.9100300    -3.5650720     0.1192120
  H       -2.7034680    -2.5490840    -0.1532500
  H       -5.0287110    -1.6377420    -0.0567190
  H       -5.2994710    -0.0137980     0.3861010
units angstrom
no_reorient  #important for SAPT in psi4, default
symmetry c1  #important for SAPT in psi4, default
}

set PROPERTIES_ORIGIN ["COM"]
properties('MP2/aug-cc-pvtz', properties = ['dipole'])
--------------------------------------------------------------------------

    Molecular point group: c1
  Charge       = 0
  Multiplicity = 1
  Basis Set: AUG-CC-PVTZ
    Blend: AUG-CC-PVTZ
  Basis Set: (AUG-CC-PVTZ AUX)
    Blend: AUG-CC-PVTZ-JKFIT

    Orbital Energies [Eh]
    ---------------------

    Doubly Occupied:

       1A    -20.577321     2A    -20.573696     3A    -20.572292
       4A    -20.504585     5A    -15.622533     6A    -15.587783
       7A    -15.542466     8A    -11.375046     9A    -11.345410
      10A    -11.330319    11A    -11.318121    12A    -11.299882
      13A    -11.296268    14A    -11.292357    15A    -11.237718
      16A    -11.235327    17A     -1.415647    18A     -1.377289
      19A     -1.373052    20A     -1.363797    21A     -1.288490
      22A     -1.259613    23A     -1.167319    24A     -1.077827
      25A     -1.068491    26A     -1.027064    27A     -0.926153
      28A     -0.895712    29A     -0.867514    30A     -0.829469
      31A     -0.805868    32A     -0.752921    33A     -0.738032
      34A     -0.719673    35A     -0.706665    36A     -0.692440
      37A     -0.688945    38A     -0.675046    39A     -0.653259
      40A     -0.636618    41A     -0.627792    42A     -0.617134
      43A     -0.601829    44A     -0.593613    45A     -0.587819
      46A     -0.570945    47A     -0.568130    48A     -0.544307
      49A     -0.532518    50A     -0.522736    51A     -0.508489
      52A     -0.484834    53A     -0.480504    54A     -0.467819
      55A     -0.459955    56A     -0.443630    57A     -0.436546
      58A     -0.417647    59A     -0.379382    60A     -0.334263

  @DF-RHF Final Energy:  -811.46111235617889

   => Energetics <=

    Nuclear Repulsion Energy =           1168.9009049753371983
    One-Electron Energy =               -3432.9281957721536855
    Two-Electron Energy =                1452.5661784406374863
    Total Energy =                       -811.4611123561790009
  Basis Set: (AUG-CC-PVTZ AUX)
    Blend: AUG-CC-PVTZ-RI
    Molecular point group: c1

    Geometry (in Angstrom), charge = 0, multiplicity = 1:

       Center              X                  Y                   Z               Mass
    ------------   -----------------  -----------------  -----------------  -----------------
         O            1.364008163294    -0.381231536679    -0.921526492752    15.994914619570
         O            3.203994163294     1.899992463321    -0.289195492752    15.994914619570
         O            2.801344163294    -2.750167536679    -0.389883492752    15.994914619570
         O           -1.360248836706     2.372784463321     0.165100507248    15.994914619570
         N           -0.796306836706     0.198197463321    -0.218938492752    14.003074004430
         N           -3.052234836706     0.804018463321     0.250329507248    14.003074004430
         N           -4.671472836706    -0.813655536679     0.422954507248    14.003074004430
         C            2.703532163294     0.874333463321     0.569791507248    12.000000000000
         C            1.238781163294     1.106005463321     0.898169507248    12.000000000000
         C            2.653756163294    -0.393511536679    -0.275152492752    12.000000000000
         C            0.575895163294     0.681783463321    -0.404598492752    12.000000000000
         C            2.804035163294    -1.661236536679     0.532787507248    12.000000000000
         C           -1.125399836706    -1.117039536679    -0.297958492752    12.000000000000
         C           -1.779410436706     1.225768463321    -0.102887592752    12.000000000000
         C           -2.415369836706    -1.505781536679    -0.094224492752    12.000000000000
         C           -3.360054836706    -0.474380536679     0.178828507248    12.000000000000
         H            3.336318163294     0.755564463321     1.461170507248     1.007825032230
         H            0.906644163294     0.442608463321     1.703806507248     1.007825032230
         H            0.987266163294     2.132846463321     1.168464507248     1.007825032230
         H            0.529391163294     1.512033463321    -1.114595492752     1.007825032230
         H            3.419429163294    -0.365503536679    -1.056308492752     1.007825032230
         H            1.972686163294    -1.734404536679     1.253540507248     1.007825032230
         H            3.748026163294    -1.610735536679     1.098606507248     1.007825032230
         H            3.105788163294     2.745103463321     0.188300507248     1.007825032230
         H           -0.308802836706    -1.790421536679    -0.533380492752     1.007825032230
         H            2.911967163294    -3.566292536679     0.129529507248     1.007825032230
         H           -2.701530836706    -2.550304536679    -0.142932492752     1.007825032230
         H           -5.026773836706    -1.638962536679    -0.046401492752     1.007825032230
         H           -5.297533836706    -0.015018536679     0.396418507248     1.007825032230

  Basis Set: AUG-CC-PVTZ
    Blend: AUG-CC-PVTZ
  Basis Set: (AUG-CC-PVTZ AUX)
    Blend: AUG-CC-PVTZ-JKFIT
	 Reference Energy          =    -811.4611123561788872 [Eh]
	 Singles Energy            =      -0.0000000000000000 [Eh]
	 Same-Spin Energy          =      -0.8308818138175804 [Eh]
	 Opposite-Spin Energy      =      -2.5278930800983686 [Eh]
	 Correlation Energy        =      -3.3587748939159487 [Eh]
	 Total Energy              =    -814.8198872500947800 [Eh]

	 ================> DF-SCS-MP2 Energies <==================
	-----------------------------------------------------------
	 SCS Same-Spin Scale       =       0.3333333333333333 [-]
	 SCS Opposite-Spin Scale   =       1.2000000000000000 [-]
	 SCS Same-Spin Energy      =      -0.2769606046058601 [Eh]
	 SCS Opposite-Spin Energy  =      -3.0334716961180423 [Eh]
	 SCS Correlation Energy    =      -3.3104323007239023 [Eh]
	 SCS Total Energy          =    -814.7715446569027335 [Eh]
	-----------------------------------------------------------

  Dipole Moment: [D]
     X:     1.0063      Y:    -4.6701      Z:     2.2805     Total:     5.2937

*** Psi4 exiting successfully. Buy a developer a beer!
