                               Psi4 1.3.2 release

  ==> Input File <==

--------------------------------------------------------------------------
#psi4
#
memory 32 gb

molecule  {
0 1
  O        1.3620710    -0.3800110    -0.9318440
  O        3.2020570     1.9012130    -0.2995130
  O        2.7994070    -2.7489470    -0.4002010
  O       -1.3621860     2.3740050     0.1547830
  N       -0.7982440     0.1994180    -0.2292560
  N       -3.0541720     0.8052390     0.2400120
  N       -4.6734100    -0.8124350     0.4126370
  C        2.7015950     0.8755540     0.5594740
  C        1.2368440     1.1072260     0.8878520
  C        2.6518190    -0.3922910    -0.2854700
  C        0.5739580     0.6830040    -0.4149160
  C        2.8020980    -1.6600160     0.5224700
  C       -1.1273370    -1.1158190    -0.3082760
  C       -1.7446880     1.2038920     0.0820450
  C       -2.3879535    -1.5183144     0.0419135
  C       -3.3619920    -0.4731600     0.1685110
  H        3.3343810     0.7567850     1.4508530
  H        0.9047070     0.4438290     1.6934890
  H        0.9853290     2.1340670     1.1581470
  H        0.5274540     1.5132540    -1.1249130
  H        3.4174920    -0.3642830    -1.0666260
  H        1.9707490    -1.7331840     1.2432230
  H        3.7460890    -1.6095150     1.0882890
  H        3.1038510     2.7463240     0.1779830
  H       -0.3107400    -1.7892010    -0.5436980
  H        2.9100300    -3.5650720     0.1192120
  H       -2.7034680    -2.5490840    -0.1532500
  H       -5.0287110    -1.6377420    -0.0567190
  H       -5.2994710    -0.0137980     0.3861010
units angstrom
no_reorient  #important for SAPT in psi4, default
symmetry c1  #important for SAPT in psi4, default
}

set PROPERTIES_ORIGIN ["COM"]
properties('MP2/aug-cc-pvtz', properties = ['dipole'])
--------------------------------------------------------------------------

    Molecular point group: c1
  Charge       = 0
  Multiplicity = 1
  Basis Set: AUG-CC-PVTZ
    Blend: AUG-CC-PVTZ
  Basis Set: (AUG-CC-PVTZ AUX)
    Blend: AUG-CC-PVTZ-JKFIT

    Orbital Energies [Eh]
    ---------------------

    Doubly Occupied:

       1A    -20.577637     2A    -20.574441     3A    -20.573104
       4A    -20.504067     5A    -15.622327     6A    -15.588715
       7A    -15.541124     8A    -11.370608     9A    -11.345846
      10A    -11.331006    11A    -11.319951    12A    -11.300989
      13A    -11.296716    14A    -11.293154    15A    -11.238600
      16A    -11.236972    17A     -1.416904    18A     -1.382951
      19A     -1.373544    20A     -1.365859    21A     -1.292313
      22A     -1.261752    23A     -1.169400    24A     -1.078604
      25A     -1.068241    26A     -1.027526    27A     -0.926553
      28A     -0.896908    29A     -0.869135    30A     -0.830576
      31A     -0.806235    32A     -0.752877    33A     -0.737960
      34A     -0.720742    35A     -0.706570    36A     -0.693067
      37A     -0.689267    38A     -0.676448    39A     -0.656515
      40A     -0.635582    41A     -0.628108    42A     -0.616571
      43A     -0.604742    44A     -0.594338    45A     -0.587622
      46A     -0.571387    47A     -0.569136    48A     -0.544393
      49A     -0.532433    50A     -0.523356    51A     -0.510276
      52A     -0.485942    53A     -0.481695    54A     -0.468519
      55A     -0.461223    56A     -0.444802    57A     -0.437793
      58A     -0.416962    59A     -0.383787    60A     -0.335412

  @DF-RHF Final Energy:  -811.47400086026073

   => Energetics <=

    Nuclear Repulsion Energy =           1169.8513701756987757
    One-Electron Energy =               -3434.7521807743114550
    Two-Electron Energy =                1453.4268097383519489
    Total Energy =                       -811.4740008602607304
  Basis Set: (AUG-CC-PVTZ AUX)
    Blend: AUG-CC-PVTZ-RI
    Molecular point group: c1

    Geometry (in Angstrom), charge = 0, multiplicity = 1:

       Center              X                  Y                   Z               Mass
    ------------   -----------------  -----------------  -----------------  -----------------
         O            1.360519876331    -0.379284275152    -0.939583017740    15.994914619570
         O            3.200505876331     1.901939724848    -0.307252017740    15.994914619570
         O            2.797855876331    -2.748220275152    -0.407940017740    15.994914619570
         O           -1.363737123669     2.374731724848     0.147043982260    15.994914619570
         N           -0.799795123669     0.200144724848    -0.236995017740    14.003074004430
         N           -3.055723123669     0.805965724848     0.232272982260    14.003074004430
         N           -4.674961123669    -0.811708275152     0.404897982260    14.003074004430
         C            2.700043876331     0.876280724848     0.551734982260    12.000000000000
         C            1.235292876331     1.107952724848     0.880112982260    12.000000000000
         C            2.650267876331    -0.391564275152    -0.293209017740    12.000000000000
         C            0.572406876331     0.683730724848    -0.422655017740    12.000000000000
         C            2.800546876331    -1.659289275152     0.514730982260    12.000000000000
         C           -1.128888123669    -1.115092275152    -0.316015017740    12.000000000000
         C           -1.746239123669     1.204618724848     0.074305982260    12.000000000000
         C           -2.389504623669    -1.517587675152     0.034174482260    12.000000000000
         C           -3.363543123669    -0.472433275152     0.160771982260    12.000000000000
         H            3.332829876331     0.757511724848     1.443113982260     1.007825032230
         H            0.903155876331     0.444555724848     1.685749982260     1.007825032230
         H            0.983777876331     2.134793724848     1.150407982260     1.007825032230
         H            0.525902876331     1.513980724848    -1.132652017740     1.007825032230
         H            3.415940876331    -0.363556275152    -1.074365017740     1.007825032230
         H            1.969197876331    -1.732457275152     1.235483982260     1.007825032230
         H            3.744537876331    -1.608788275152     1.080549982260     1.007825032230
         H            3.102299876331     2.747050724848     0.170243982260     1.007825032230
         H           -0.312291123669    -1.788474275152    -0.551437017740     1.007825032230
         H            2.908478876331    -3.564345275152     0.111472982260     1.007825032230
         H           -2.705019123669    -2.548357275152    -0.160989017740     1.007825032230
         H           -5.030262123669    -1.637015275152    -0.064458017740     1.007825032230
         H           -5.301022123669    -0.013071275152     0.378361982260     1.007825032230

  Basis Set: AUG-CC-PVTZ
    Blend: AUG-CC-PVTZ
  Basis Set: (AUG-CC-PVTZ AUX)
    Blend: AUG-CC-PVTZ-JKFIT
	 Reference Energy          =    -811.4740008602607304 [Eh]
	 Singles Energy            =      -0.0000000000000000 [Eh]
	 Same-Spin Energy          =      -0.8298237396167473 [Eh]
	 Opposite-Spin Energy      =      -2.5256943662752604 [Eh]
	 Correlation Energy        =      -3.3555181058920076 [Eh]
	 Total Energy              =    -814.8295189661527047 [Eh]

	 ================> DF-SCS-MP2 Energies <==================
	-----------------------------------------------------------
	 SCS Same-Spin Scale       =       0.3333333333333333 [-]
	 SCS Opposite-Spin Scale   =       1.2000000000000000 [-]
	 SCS Same-Spin Energy      =      -0.2766079132055824 [Eh]
	 SCS Opposite-Spin Energy  =      -3.0308332395303124 [Eh]
	 SCS Correlation Energy    =      -3.3074411527358949 [Eh]
	 SCS Total Energy          =    -814.7814420129966493 [Eh]
	-----------------------------------------------------------

  Dipole Moment: [D]
     X:     1.0598      Y:    -4.5961      Z:     2.3771     Total:     5.2819

*** Psi4 exiting successfully. Buy a developer a beer!
