                               Psi4 1.3.2 release

  ==> Input File <==

--------------------------------------------------------------------------
#psi4
#
memory 32 gb

molecule  {
0 1
  O        1.3620710    -0.3800110    -0.9318440
  O        3.2020570     1.9012130    -0.2995130
  O        2.7994070    -2.7489470    -0.4002010
  O       -1.3621860     2.3740050     0.1547830
  N       -0.7982440     0.1994180    -0.2292560
  N       -3.0541720     0.8052390     0.2400120
  N       -4.6734100    -0.8124350     0.4126370
  C        2.7015950     0.8755540     0.5594740
  C        1.2368440     1.1072260     0.8878520
  C        2.6518190    -0.3922910    -0.2854700
  C        0.5739580     0.6830040    -0.4149160
  C        2.8020980    -1.6600160     0.5224700
  C       -1.1273370    -1.1158190    -0.3082760
  C       -1.7446880     1.2038920     0.0820450
  C       -2.4173070    -1.5045610    -0.1045420
  C       -3.3619920    -0.4731600     0.1685110
  H        3.3343810     0.7567850     1.4508530
  H        0.9047070     0.4438290     1.6934890
  H        0.9853290     2.1340670     1.1581470
  H        0.5274540     1.5132540    -1.1249130
  H        3.4174920    -0.3642830    -1.0666260
  H        1.9707490    -1.7331840     1.2432230
  H        3.7460890    -1.6095150     1.0882890
  H        3.1038510     2.7463240     0.1779830
  H       -0.3107400    -1.7892010    -0.5436980
  H        2.9100300    -3.5650720     0.1192120
  H       -2.6852883    -2.5584885    -0.0553671
  H       -5.0287110    -1.6377420    -0.0567190
  H       -5.2994710    -0.0137980     0.3861010
units angstrom
no_reorient  #important for SAPT in psi4, default
symmetry c1  #important for SAPT in psi4, default
}

set PROPERTIES_ORIGIN ["COM"]
properties('MP2/aug-cc-pvtz', properties = ['dipole'])
--------------------------------------------------------------------------

    Molecular point group: c1
  Charge       = 0
  Multiplicity = 1
  Basis Set: AUG-CC-PVTZ
    Blend: AUG-CC-PVTZ
  Basis Set: (AUG-CC-PVTZ AUX)
    Blend: AUG-CC-PVTZ-JKFIT

    Orbital Energies [Eh]
    ---------------------

    Doubly Occupied:

       1A    -20.577827     2A    -20.574405     3A    -20.572946
       4A    -20.503131     5A    -15.621849     6A    -15.588255
       7A    -15.540790     8A    -11.369947     9A    -11.344986
      10A    -11.330802    11A    -11.318467    12A    -11.300951
      13A    -11.296959    14A    -11.293152    15A    -11.237247
      16A    -11.236918    17A     -1.416731    18A     -1.382496
      19A     -1.373646    20A     -1.365777    21A     -1.292235
      22A     -1.261442    23A     -1.169071    24A     -1.079017
      25A     -1.068926    26A     -1.027965    27A     -0.926826
      28A     -0.897459    29A     -0.868975    30A     -0.830729
      31A     -0.806438    32A     -0.754220    33A     -0.738582
      34A     -0.721044    35A     -0.706819    36A     -0.692923
      37A     -0.689310    38A     -0.675917    39A     -0.656272
      40A     -0.636590    41A     -0.627203    42A     -0.618420
      43A     -0.604739    44A     -0.595471    45A     -0.589053
      46A     -0.572064    47A     -0.568699    48A     -0.544961
      49A     -0.532725    50A     -0.523949    51A     -0.510489
      52A     -0.485908    53A     -0.482007    54A     -0.468567
      55A     -0.460991    56A     -0.444248    57A     -0.438380
      58A     -0.416207    59A     -0.383726    60A     -0.334888

  @DF-RHF Final Energy:  -811.47886564447970

   => Energetics <=

    Nuclear Repulsion Energy =           1169.9330217201677442
    One-Electron Energy =               -3434.9222930062542218
    Two-Electron Energy =                1453.5104056416068943
    Total Energy =                       -811.4788656444795834
  Basis Set: (AUG-CC-PVTZ AUX)
    Blend: AUG-CC-PVTZ-RI
    Molecular point group: c1

    Geometry (in Angstrom), charge = 0, multiplicity = 1:

       Center              X                  Y                   Z               Mass
    ------------   -----------------  -----------------  -----------------  -----------------
         O            1.361990302824    -0.379969300007    -0.932278368758    15.994914619570
         O            3.201976302824     1.901254699993    -0.299947368758    15.994914619570
         O            2.799326302824    -2.748905300007    -0.400635368758    15.994914619570
         O           -1.362266697176     2.374046699993     0.154348631242    15.994914619570
         N           -0.798324697176     0.199459699993    -0.229690368758    14.003074004430
         N           -3.054252697176     0.805280699993     0.239577631242    14.003074004430
         N           -4.673490697176    -0.812393300007     0.412202631242    14.003074004430
         C            2.701514302824     0.875595699993     0.559039631242    12.000000000000
         C            1.236763302824     1.107267699993     0.887417631242    12.000000000000
         C            2.651738302824    -0.392249300007    -0.285904368758    12.000000000000
         C            0.573877302824     0.683045699993    -0.415350368758    12.000000000000
         C            2.802017302824    -1.659974300007     0.522035631242    12.000000000000
         C           -1.127417697176    -1.115777300007    -0.308710368758    12.000000000000
         C           -1.744768697176     1.203933699993     0.081610631242    12.000000000000
         C           -2.417387697176    -1.504519300007    -0.104976368758    12.000000000000
         C           -3.362072697176    -0.473118300007     0.168076631242    12.000000000000
         H            3.334300302824     0.756826699993     1.450418631242     1.007825032230
         H            0.904626302824     0.443870699993     1.693054631242     1.007825032230
         H            0.985248302824     2.134108699993     1.157712631242     1.007825032230
         H            0.527373302824     1.513295699993    -1.125347368758     1.007825032230
         H            3.417411302824    -0.364241300007    -1.067060368758     1.007825032230
         H            1.970668302824    -1.733142300007     1.242788631242     1.007825032230
         H            3.746008302824    -1.609473300007     1.087854631242     1.007825032230
         H            3.103770302824     2.746365699993     0.177548631242     1.007825032230
         H           -0.310820697176    -1.789159300007    -0.544132368758     1.007825032230
         H            2.909949302824    -3.565030300007     0.118777631242     1.007825032230
         H           -2.685368997176    -2.558446800007    -0.055801468758     1.007825032230
         H           -5.028791697176    -1.637700300007    -0.057153368758     1.007825032230
         H           -5.299551697176    -0.013756300007     0.385666631242     1.007825032230

  Basis Set: AUG-CC-PVTZ
    Blend: AUG-CC-PVTZ
  Basis Set: (AUG-CC-PVTZ AUX)
    Blend: AUG-CC-PVTZ-JKFIT
	 Reference Energy          =    -811.4788656444796970 [Eh]
	 Singles Energy            =      -0.0000000000000000 [Eh]
	 Same-Spin Energy          =      -0.8296779781329116 [Eh]
	 Opposite-Spin Energy      =      -2.5251918925597598 [Eh]
	 Correlation Energy        =      -3.3548698706926716 [Eh]
	 Total Energy              =    -814.8337355151724068 [Eh]

	 ================> DF-SCS-MP2 Energies <==================
	-----------------------------------------------------------
	 SCS Same-Spin Scale       =       0.3333333333333333 [-]
	 SCS Opposite-Spin Scale   =       1.2000000000000000 [-]
	 SCS Same-Spin Energy      =      -0.2765593260443038 [Eh]
	 SCS Opposite-Spin Energy  =      -3.0302302710717117 [Eh]
	 SCS Correlation Energy    =      -3.3067895971160155 [Eh]
	 SCS Total Energy          =    -814.7856552415956912 [Eh]
	-----------------------------------------------------------

  Dipole Moment: [D]
     X:     1.0959      Y:    -4.6762      Z:     2.5623     Total:     5.4437

*** Psi4 exiting successfully. Buy a developer a beer!
