                               Psi4 1.3.2 release

  ==> Input File <==

--------------------------------------------------------------------------
#psi4
#
memory 32 gb

molecule  {
0 1
  O        1.3620710    -0.3800110    -0.9318440
  O        3.2020570     1.9012130    -0.2995130
  O        2.7994070    -2.7489470    -0.4002010
  O       -1.3621860     2.3740050     0.1547830
  N       -0.7982440     0.1994180    -0.2292560
  N       -3.0541720     0.8052390     0.2400120
  N       -4.6734100    -0.8124350     0.4126370
  C        2.7015950     0.8755540     0.5594740
  C        1.2368440     1.1072260     0.8878520
  C        2.6518190    -0.3922910    -0.2854700
  C        0.5739580     0.6830040    -0.4149160
  C        2.8020980    -1.6600160     0.5224700
  C       -1.1273370    -1.1158190    -0.3082760
  C       -1.7446880     1.2038920     0.0820450
  C       -2.4173070    -1.5045610    -0.1045420
  C       -3.3619920    -0.4731600     0.1685110
  H        3.3343810     0.7567850     1.4508530
  H        0.9047070     0.4438290     1.6934890
  H        0.9853290     2.1340670     1.1581470
  H        0.5274540     1.5132540    -1.1249130
  H        3.4174920    -0.3642830    -1.0666260
  H        1.9707490    -1.7331840     1.2432230
  H        3.7460890    -1.6095150     1.0882890
  H        3.1038510     2.7463240     0.1779830
  H       -0.3107400    -1.7892010    -0.5436980
  H        2.9100300    -3.5650720     0.1192120
  H       -2.6943781    -2.5537863    -0.1043086
  H       -5.0287110    -1.6377420    -0.0567190
  H       -5.2994710    -0.0137980     0.3861010
units angstrom
no_reorient  #important for SAPT in psi4, default
symmetry c1  #important for SAPT in psi4, default
}

set PROPERTIES_ORIGIN ["COM"]
properties('MP2/aug-cc-pvtz', properties = ['dipole'])
--------------------------------------------------------------------------

    Molecular point group: c1
  Charge       = 0
  Multiplicity = 1
  Basis Set: AUG-CC-PVTZ
    Blend: AUG-CC-PVTZ
  Basis Set: (AUG-CC-PVTZ AUX)
    Blend: AUG-CC-PVTZ-JKFIT

    Orbital Energies [Eh]
    ---------------------

    Doubly Occupied:

       1A    -20.577787     2A    -20.574366     3A    -20.572903
       4A    -20.503061     5A    -15.621758     6A    -15.588305
       7A    -15.540783     8A    -11.369898     9A    -11.345004
      10A    -11.330756    11A    -11.318341    12A    -11.300896
      13A    -11.296907    14A    -11.293106    15A    -11.237044
      16A    -11.236841    17A     -1.416684    18A     -1.382442
      19A     -1.373605    20A     -1.365735    21A     -1.292216
      22A     -1.261417    23A     -1.169082    24A     -1.078998
      25A     -1.068933    26A     -1.027967    27A     -0.926804
      28A     -0.897458    29A     -0.868975    30A     -0.830774
      31A     -0.806396    32A     -0.754218    33A     -0.738701
      34A     -0.720999    35A     -0.706800    36A     -0.692870
      37A     -0.689280    38A     -0.675855    39A     -0.656469
      40A     -0.636945    41A     -0.627410    42A     -0.618523
      43A     -0.604654    44A     -0.595287    45A     -0.588876
      46A     -0.572439    47A     -0.568741    48A     -0.544903
      49A     -0.532623    50A     -0.523839    51A     -0.510442
      52A     -0.485882    53A     -0.482037    54A     -0.468529
      55A     -0.461045    56A     -0.444345    57A     -0.438106
      58A     -0.416261    59A     -0.383725    60A     -0.334903

  @DF-RHF Final Energy:  -811.47925535830836

   => Energetics <=

    Nuclear Repulsion Energy =           1169.9407913361837927
    One-Electron Energy =               -3434.9401951944873872
    Two-Electron Energy =                1453.5201484999952299
    Total Energy =                       -811.4792553583083645
  Basis Set: (AUG-CC-PVTZ AUX)
    Blend: AUG-CC-PVTZ-RI
    Molecular point group: c1

    Geometry (in Angstrom), charge = 0, multiplicity = 1:

       Center              X                  Y                   Z               Mass
    ------------   -----------------  -----------------  -----------------  -----------------
         O            1.362030643233    -0.379990168307    -0.932061167044    15.994914619570
         O            3.202016643233     1.901233831693    -0.299730167044    15.994914619570
         O            2.799366643233    -2.748926168307    -0.400418167044    15.994914619570
         O           -1.362226356767     2.374025831693     0.154565832956    15.994914619570
         N           -0.798284356767     0.199438831693    -0.229473167044    14.003074004430
         N           -3.054212356767     0.805259831693     0.239794832956    14.003074004430
         N           -4.673450356767    -0.812414168307     0.412419832956    14.003074004430
         C            2.701554643233     0.875574831693     0.559256832956    12.000000000000
         C            1.236803643233     1.107246831693     0.887634832956    12.000000000000
         C            2.651778643233    -0.392270168307    -0.285687167044    12.000000000000
         C            0.573917643233     0.683024831693    -0.415133167044    12.000000000000
         C            2.802057643233    -1.659995168307     0.522252832956    12.000000000000
         C           -1.127377356767    -1.115798168307    -0.308493167044    12.000000000000
         C           -1.744728356767     1.203912831693     0.081827832956    12.000000000000
         C           -2.417347356767    -1.504540168307    -0.104759167044    12.000000000000
         C           -3.362032356767    -0.473139168307     0.168293832956    12.000000000000
         H            3.334340643233     0.756805831693     1.450635832956     1.007825032230
         H            0.904666643233     0.443849831693     1.693271832956     1.007825032230
         H            0.985288643233     2.134087831693     1.157929832956     1.007825032230
         H            0.527413643233     1.513274831693    -1.125130167044     1.007825032230
         H            3.417451643233    -0.364262168307    -1.066843167044     1.007825032230
         H            1.970708643233    -1.733163168307     1.243005832956     1.007825032230
         H            3.746048643233    -1.609494168307     1.088071832956     1.007825032230
         H            3.103810643233     2.746344831693     0.177765832956     1.007825032230
         H           -0.310780356767    -1.789180168307    -0.543915167044     1.007825032230
         H            2.909989643233    -3.565051168307     0.118994832956     1.007825032230
         H           -2.694418456767    -2.553765468307    -0.104525767044     1.007825032230
         H           -5.028751356767    -1.637721168307    -0.056936167044     1.007825032230
         H           -5.299511356767    -0.013777168307     0.385883832956     1.007825032230

  Basis Set: AUG-CC-PVTZ
    Blend: AUG-CC-PVTZ
  Basis Set: (AUG-CC-PVTZ AUX)
    Blend: AUG-CC-PVTZ-JKFIT
	 Reference Energy          =    -811.4792553583083645 [Eh]
	 Singles Energy            =      -0.0000000000000000 [Eh]
	 Same-Spin Energy          =      -0.8296618913342320 [Eh]
	 Opposite-Spin Energy      =      -2.5251565388796919 [Eh]
	 Correlation Energy        =      -3.3548184302139239 [Eh]
	 Total Energy              =    -814.8340737885222325 [Eh]

	 ================> DF-SCS-MP2 Energies <==================
	-----------------------------------------------------------
	 SCS Same-Spin Scale       =       0.3333333333333333 [-]
	 SCS Opposite-Spin Scale   =       1.2000000000000000 [-]
	 SCS Same-Spin Energy      =      -0.2765539637780773 [Eh]
	 SCS Opposite-Spin Energy  =      -3.0301878466556302 [Eh]
	 SCS Correlation Energy    =      -3.3067418104337074 [Eh]
	 SCS Total Energy          =    -814.7859971687420284 [Eh]
	-----------------------------------------------------------

  Dipole Moment: [D]
     X:     1.0845      Y:    -4.6798      Z:     2.5258     Total:     5.4274

*** Psi4 exiting successfully. Buy a developer a beer!
