                               Psi4 1.3.2 release

  ==> Input File <==

--------------------------------------------------------------------------
#psi4
#
memory 32 gb

molecule  {
0 1
  O        1.3620710    -0.3800110    -0.9318440
  O        3.2020570     1.9012130    -0.2995130
  O        2.7994070    -2.7489470    -0.4002010
  O       -1.3621860     2.3740050     0.1547830
  N       -0.7982440     0.1994180    -0.2292560
  N       -3.0541720     0.8052390     0.2400120
  N       -4.6734100    -0.8124350     0.4126370
  C        2.7015950     0.8755540     0.5594740
  C        1.2368440     1.1072260     0.8878520
  C        2.6518190    -0.3922910    -0.2854700
  C        0.5739580     0.6830040    -0.4149160
  C        2.8020980    -1.6600160     0.5224700
  C       -1.1273370    -1.1158190    -0.3082760
  C       -1.7446880     1.2038920     0.0820450
  C       -2.4173070    -1.5045610    -0.1045420
  C       -3.3619920    -0.4731600     0.1685110
  H        3.3343810     0.7567850     1.4508530
  H        0.9047070     0.4438290     1.6934890
  H        0.9853290     2.1340670     1.1581470
  H        0.5274540     1.5132540    -1.1249130
  H        3.4174920    -0.3642830    -1.0666260
  H        1.9707490    -1.7331840     1.2432230
  H        3.7460890    -1.6095150     1.0882890
  H        3.1038510     2.7463240     0.1779830
  H       -0.2635205    -1.8162083    -0.2996879
  H        2.9100300    -3.5650720     0.1192120
  H       -2.7034680    -2.5490840    -0.1532500
  H       -5.0287110    -1.6377420    -0.0567190
  H       -5.2994710    -0.0137980     0.3861010
units angstrom
no_reorient  #important for SAPT in psi4, default
symmetry c1  #important for SAPT in psi4, default
}

set PROPERTIES_ORIGIN ["COM"]
properties('MP2/aug-cc-pvtz', properties = ['dipole'])
--------------------------------------------------------------------------

    Molecular point group: c1
  Charge       = 0
  Multiplicity = 1
  Basis Set: AUG-CC-PVTZ
    Blend: AUG-CC-PVTZ
  Basis Set: (AUG-CC-PVTZ AUX)
    Blend: AUG-CC-PVTZ-JKFIT

    Orbital Energies [Eh]
    ---------------------

    Doubly Occupied:

       1A    -20.578114     2A    -20.574351     3A    -20.572353
       4A    -20.503173     5A    -15.621446     6A    -15.588513
       7A    -15.541094     8A    -11.370038     9A    -11.345425
      10A    -11.330517    11A    -11.321428    12A    -11.300861
      13A    -11.297442    14A    -11.293022    15A    -11.237784
      16A    -11.236823    17A     -1.416324    18A     -1.382506
      19A     -1.373823    20A     -1.365705    21A     -1.292374
      22A     -1.261406    23A     -1.169276    24A     -1.078718
      25A     -1.069035    26A     -1.028097    27A     -0.926858
      28A     -0.895800    29A     -0.869023    30A     -0.830586
      31A     -0.806330    32A     -0.754465    33A     -0.737489
      34A     -0.721496    35A     -0.705965    36A     -0.692136
      37A     -0.689232    38A     -0.674202    39A     -0.657289
      40A     -0.637499    41A     -0.627360    42A     -0.617685
      43A     -0.604079    44A     -0.595919    45A     -0.586231
      46A     -0.572883    47A     -0.568671    48A     -0.545243
      49A     -0.532359    50A     -0.523360    51A     -0.510401
      52A     -0.486445    53A     -0.481530    54A     -0.468692
      55A     -0.461884    56A     -0.444076    57A     -0.436466
      58A     -0.416306    59A     -0.383880    60A     -0.335201

  @DF-RHF Final Energy:  -811.47430895301659

   => Energetics <=

    Nuclear Repulsion Energy =           1169.9327330598496246
    One-Electron Energy =               -3434.9207064044321669
    Two-Electron Energy =                1453.5136643915657260
    Total Energy =                       -811.4743089530165889
  Basis Set: (AUG-CC-PVTZ AUX)
    Blend: AUG-CC-PVTZ-RI
    Molecular point group: c1

    Geometry (in Angstrom), charge = 0, multiplicity = 1:

       Center              X                  Y                   Z               Mass
    ------------   -----------------  -----------------  -----------------  -----------------
         O            1.361861424585    -0.379891179020    -0.932926879292    15.994914619570
         O            3.201847424585     1.901332820980    -0.300595879292    15.994914619570
         O            2.799197424585    -2.748827179020    -0.401283879292    15.994914619570
         O           -1.362395575415     2.374124820980     0.153700120708    15.994914619570
         N           -0.798453575415     0.199537820980    -0.230338879292    14.003074004430
         N           -3.054381575415     0.805358820980     0.238929120708    14.003074004430
         N           -4.673619575415    -0.812315179020     0.411554120708    14.003074004430
         C            2.701385424585     0.875673820980     0.558391120708    12.000000000000
         C            1.236634424585     1.107345820980     0.886769120708    12.000000000000
         C            2.651609424585    -0.392171179020    -0.286552879292    12.000000000000
         C            0.573748424585     0.683123820980    -0.415998879292    12.000000000000
         C            2.801888424585    -1.659896179020     0.521387120708    12.000000000000
         C           -1.127546575415    -1.115699179020    -0.309358879292    12.000000000000
         C           -1.744897575415     1.204011820980     0.080962120708    12.000000000000
         C           -2.417516575415    -1.504441179020    -0.105624879292    12.000000000000
         C           -3.362201575415    -0.473040179020     0.167428120708    12.000000000000
         H            3.334171424585     0.756904820980     1.449770120708     1.007825032230
         H            0.904497424585     0.443948820980     1.692406120708     1.007825032230
         H            0.985119424585     2.134186820980     1.157064120708     1.007825032230
         H            0.527244424585     1.513373820980    -1.125995879292     1.007825032230
         H            3.417282424585    -0.364163179020    -1.067708879292     1.007825032230
         H            1.970539424585    -1.733064179020     1.242140120708     1.007825032230
         H            3.745879424585    -1.609395179020     1.087206120708     1.007825032230
         H            3.103641424585     2.746443820980     0.176900120708     1.007825032230
         H           -0.263730075415    -1.816088479020    -0.300770779292     1.007825032230
         H            2.909820424585    -3.564952179020     0.118129120708     1.007825032230
         H           -2.703677575415    -2.548964179020    -0.154332879292     1.007825032230
         H           -5.028920575415    -1.637622179020    -0.057801879292     1.007825032230
         H           -5.299680575415    -0.013678179020     0.385018120708     1.007825032230

  Basis Set: AUG-CC-PVTZ
    Blend: AUG-CC-PVTZ
  Basis Set: (AUG-CC-PVTZ AUX)
    Blend: AUG-CC-PVTZ-JKFIT
	 Reference Energy          =    -811.4743089530165889 [Eh]
	 Singles Energy            =      -0.0000000000000000 [Eh]
	 Same-Spin Energy          =      -0.8299977801553245 [Eh]
	 Opposite-Spin Energy      =      -2.5259317343536964 [Eh]
	 Correlation Energy        =      -3.3559295145090209 [Eh]
	 Total Energy              =    -814.8302384675256462 [Eh]

	 ================> DF-SCS-MP2 Energies <==================
	-----------------------------------------------------------
	 SCS Same-Spin Scale       =       0.3333333333333333 [-]
	 SCS Opposite-Spin Scale   =       1.2000000000000000 [-]
	 SCS Same-Spin Energy      =      -0.2766659267184415 [Eh]
	 SCS Opposite-Spin Energy  =      -3.0311180812244358 [Eh]
	 SCS Correlation Energy    =      -3.3077840079428773 [Eh]
	 SCS Total Energy          =    -814.7820929609595169 [Eh]
	-----------------------------------------------------------

  Dipole Moment: [D]
     X:     1.0660      Y:    -4.6744      Z:     2.6254     Total:     5.4661

*** Psi4 exiting successfully. Buy a developer a beer!
