                               Psi4 1.3.2 release

  ==> Input File <==

--------------------------------------------------------------------------
#psi4
#
memory 32 gb

molecule  {
0 1
  O        1.3620710    -0.3800110    -0.9318440
  O        3.2020570     1.9012130    -0.2995130
  O        2.7994070    -2.7489470    -0.4002010
  O       -1.3621860     2.3740050     0.1547830
  N       -0.7982440     0.1994180    -0.2292560
  N       -3.0541720     0.8052390     0.2400120
  N       -4.6734100    -0.8124350     0.4126370
  C        2.7015950     0.8755540     0.5594740
  C        1.2368440     1.1072260     0.8878520
  C        2.6518190    -0.3922910    -0.2854700
  C        0.5739580     0.6830040    -0.4149160
  C        2.8020980    -1.6600160     0.5224700
  C       -1.1273370    -1.1158190    -0.3082760
  C       -1.7446880     1.2038920     0.0820450
  C       -2.3683844    -1.5274833     0.1395505
  C       -3.3619920    -0.4731600     0.1685110
  H        3.3343810     0.7567850     1.4508530
  H        0.9047070     0.4438290     1.6934890
  H        0.9853290     2.1340670     1.1581470
  H        0.5274540     1.5132540    -1.1249130
  H        3.4174920    -0.3642830    -1.0666260
  H        1.9707490    -1.7331840     1.2432230
  H        3.7460890    -1.6095150     1.0882890
  H        3.1038510     2.7463240     0.1779830
  H       -0.3107400    -1.7892010    -0.5436980
  H        2.9100300    -3.5650720     0.1192120
  H       -2.7034680    -2.5490840    -0.1532500
  H       -5.0287110    -1.6377420    -0.0567190
  H       -5.2994710    -0.0137980     0.3861010
units angstrom
no_reorient  #important for SAPT in psi4, default
symmetry c1  #important for SAPT in psi4, default
}

set PROPERTIES_ORIGIN ["COM"]
properties('MP2/aug-cc-pvtz', properties = ['dipole'])
--------------------------------------------------------------------------

    Molecular point group: c1
  Charge       = 0
  Multiplicity = 1
  Basis Set: AUG-CC-PVTZ
    Blend: AUG-CC-PVTZ
  Basis Set: (AUG-CC-PVTZ AUX)
    Blend: AUG-CC-PVTZ-JKFIT

    Orbital Energies [Eh]
    ---------------------

    Doubly Occupied:

       1A    -20.577723     2A    -20.574800     3A    -20.573682
       4A    -20.505848     5A    -15.623869     6A    -15.588863
       7A    -15.541344     8A    -11.371878     9A    -11.347107
      10A    -11.331741    11A    -11.323530    12A    -11.301408
      13A    -11.296830    14A    -11.293512    15A    -11.241368
      16A    -11.237540    17A     -1.417544    18A     -1.383966
      19A     -1.373745    20A     -1.366300    21A     -1.292454
      22A     -1.262345    23A     -1.169674    24A     -1.078317
      25A     -1.066866    26A     -1.026820    27A     -0.926419
      28A     -0.896301    29A     -0.869342    30A     -0.830441
      31A     -0.806189    32A     -0.750886    33A     -0.737214
      34A     -0.720790    35A     -0.706565    36A     -0.693548
      37A     -0.689571    38A     -0.677122    39A     -0.656246
      40A     -0.633208    41A     -0.628591    42A     -0.614076
      43A     -0.605114    44A     -0.593423    45A     -0.586428
      46A     -0.569763    47A     -0.568486    48A     -0.544251
      49A     -0.532160    50A     -0.523195    51A     -0.510448
      52A     -0.486321    53A     -0.481220    54A     -0.468725
      55A     -0.461483    56A     -0.445363    57A     -0.437648
      58A     -0.417376    59A     -0.383850    60A     -0.336394

  @DF-RHF Final Energy:  -811.46419657627916

   => Energetics <=

    Nuclear Repulsion Energy =           1169.4934844413730843
    One-Electron Energy =               -3434.0009053680068973
    Two-Electron Energy =                1453.0432243503548762
    Total Energy =                       -811.4641965762791642
  Basis Set: (AUG-CC-PVTZ AUX)
    Blend: AUG-CC-PVTZ-RI
    Molecular point group: c1

    Geometry (in Angstrom), charge = 0, multiplicity = 1:

       Center              X                  Y                   Z               Mass
    ------------   -----------------  -----------------  -----------------  -----------------
         O            1.359485799210    -0.378799768981    -0.944742385717    15.994914619570
         O            3.199471799210     1.902424231019    -0.312411385717    15.994914619570
         O            2.796821799210    -2.747735768981    -0.413099385717    15.994914619570
         O           -1.364771200790     2.375216231019     0.141884614283    15.994914619570
         N           -0.800829200790     0.200629231019    -0.242154385717    14.003074004430
         N           -3.056757200790     0.806450231019     0.227113614283    14.003074004430
         N           -4.675995200790    -0.811223768981     0.399738614283    14.003074004430
         C            2.699009799210     0.876765231019     0.546575614283    12.000000000000
         C            1.234258799210     1.108437231019     0.874953614283    12.000000000000
         C            2.649233799210    -0.391079768981    -0.298368385717    12.000000000000
         C            0.571372799210     0.684215231019    -0.427814385717    12.000000000000
         C            2.799512799210    -1.658804768981     0.509571614283    12.000000000000
         C           -1.129922200790    -1.114607768981    -0.321174385717    12.000000000000
         C           -1.747273200790     1.205103231019     0.069146614283    12.000000000000
         C           -2.370969600790    -1.526272068981     0.126652114283    12.000000000000
         C           -3.364577200790    -0.471948768981     0.155612614283    12.000000000000
         H            3.331795799210     0.757996231019     1.437954614283     1.007825032230
         H            0.902121799210     0.445040231019     1.680590614283     1.007825032230
         H            0.982743799210     2.135278231019     1.145248614283     1.007825032230
         H            0.524868799210     1.514465231019    -1.137811385717     1.007825032230
         H            3.414906799210    -0.363071768981    -1.079524385717     1.007825032230
         H            1.968163799210    -1.731972768981     1.230324614283     1.007825032230
         H            3.743503799210    -1.608303768981     1.075390614283     1.007825032230
         H            3.101265799210     2.747535231019     0.165084614283     1.007825032230
         H           -0.313325200790    -1.787989768981    -0.556596385717     1.007825032230
         H            2.907444799210    -3.563860768981     0.106313614283     1.007825032230
         H           -2.706053200790    -2.547872768981    -0.166148385717     1.007825032230
         H           -5.031296200790    -1.636530768981    -0.069617385717     1.007825032230
         H           -5.302056200790    -0.012586768981     0.373202614283     1.007825032230

  Basis Set: AUG-CC-PVTZ
    Blend: AUG-CC-PVTZ
  Basis Set: (AUG-CC-PVTZ AUX)
    Blend: AUG-CC-PVTZ-JKFIT
	 Reference Energy          =    -811.4641965762791642 [Eh]
	 Singles Energy            =      -0.0000000000000000 [Eh]
	 Same-Spin Energy          =      -0.8301099081010007 [Eh]
	 Opposite-Spin Energy      =      -2.5268653261658041 [Eh]
	 Correlation Energy        =      -3.3569752342668049 [Eh]
	 Total Energy              =    -814.8211718105459340 [Eh]

	 ================> DF-SCS-MP2 Energies <==================
	-----------------------------------------------------------
	 SCS Same-Spin Scale       =       0.3333333333333333 [-]
	 SCS Opposite-Spin Scale   =       1.2000000000000000 [-]
	 SCS Same-Spin Energy      =      -0.2767033027003336 [Eh]
	 SCS Opposite-Spin Energy  =      -3.0322383913989648 [Eh]
	 SCS Correlation Energy    =      -3.3089416940992984 [Eh]
	 SCS Total Energy          =    -814.7731382703784675 [Eh]
	-----------------------------------------------------------

  Dipole Moment: [D]
     X:     1.0788      Y:    -4.4657      Z:     2.3024     Total:     5.1388

*** Psi4 exiting successfully. Buy a developer a beer!
