                               Psi4 1.3.2 release

  ==> Input File <==

--------------------------------------------------------------------------
#psi4
#
memory 32 gb

molecule  {
0 1
  O        1.3620710    -0.3800110    -0.9318440
  O        3.2020570     1.9012130    -0.2995130
  O        2.7994070    -2.7489470    -0.4002010
  O       -1.3621860     2.3740050     0.1547830
  N       -0.7982440     0.1994180    -0.2292560
  N       -3.0541720     0.8052390     0.2400120
  N       -4.6734100    -0.8124350     0.4126370
  C        2.7015950     0.8755540     0.5594740
  C        1.2368440     1.1072260     0.8878520
  C        2.6518190    -0.3922910    -0.2854700
  C        0.5739580     0.6830040    -0.4149160
  C        2.8020980    -1.6600160     0.5224700
  C       -1.1273370    -1.1158190    -0.3082760
  C       -1.7446880     1.2038920     0.0820450
  C       -2.4173070    -1.5045610    -0.1045420
  C       -3.3619920    -0.4731600     0.1685110
  H        3.3343810     0.7567850     1.4508530
  H        0.9047070     0.4438290     1.6934890
  H        0.9853290     2.1340670     1.1581470
  H        0.5274540     1.5132540    -1.1249130
  H        3.4174920    -0.3642830    -1.0666260
  H        1.9707490    -1.7331840     1.2432230
  H        3.7460890    -1.6095150     1.0882890
  H        3.1038510     2.7463240     0.1779830
  H       -0.3107400    -1.7892010    -0.5436980
  H        2.9100300    -3.5650720     0.1192120
  H       -2.6671086    -2.5678931     0.0425157
  H       -5.0287110    -1.6377420    -0.0567190
  H       -5.2994710    -0.0137980     0.3861010
units angstrom
no_reorient  #important for SAPT in psi4, default
symmetry c1  #important for SAPT in psi4, default
}

set PROPERTIES_ORIGIN ["COM"]
properties('MP2/aug-cc-pvtz', properties = ['dipole'])
--------------------------------------------------------------------------

    Molecular point group: c1
  Charge       = 0
  Multiplicity = 1
  Basis Set: AUG-CC-PVTZ
    Blend: AUG-CC-PVTZ
  Basis Set: (AUG-CC-PVTZ AUX)
    Blend: AUG-CC-PVTZ-JKFIT

    Orbital Energies [Eh]
    ---------------------

    Doubly Occupied:

       1A    -20.577929     2A    -20.574528     3A    -20.573091
       4A    -20.503410     5A    -15.622189     6A    -15.588129
       7A    -15.540849     8A    -11.370153     9A    -11.344962
      10A    -11.330971    11A    -11.318902    12A    -11.301111
      13A    -11.297095    14A    -11.293286    15A    -11.238153
      16A    -11.237138    17A     -1.416894    18A     -1.382702
      19A     -1.373758    20A     -1.365913    21A     -1.292336
      22A     -1.261555    23A     -1.169075    24A     -1.079070
      25A     -1.068880    26A     -1.027929    27A     -0.926886
      28A     -0.897458    29A     -0.868983    30A     -0.830587
      31A     -0.806566    32A     -0.754254    33A     -0.738098
      34A     -0.721125    35A     -0.706892    36A     -0.693062
      37A     -0.689398    38A     -0.676035    39A     -0.655765
      40A     -0.635520    41A     -0.626716    42A     -0.617731
      43A     -0.604951    44A     -0.595834    45A     -0.589372
      46A     -0.571252    47A     -0.568402    48A     -0.545106
      49A     -0.532928    50A     -0.524176    51A     -0.510610
      52A     -0.486013    53A     -0.481981    54A     -0.468671
      55A     -0.460929    56A     -0.444106    57A     -0.438938
      58A     -0.416153    59A     -0.383740    60A     -0.334877

  @DF-RHF Final Energy:  -811.47720014261688

   => Energetics <=

    Nuclear Repulsion Energy =           1169.8897513462222832
    One-Electron Energy =               -3434.8276536308812865
    Two-Electron Energy =                1453.4607021420420097
    Total Energy =                       -811.4772001426167662
  Basis Set: (AUG-CC-PVTZ AUX)
    Blend: AUG-CC-PVTZ-RI
    Molecular point group: c1

    Geometry (in Angstrom), charge = 0, multiplicity = 1:

       Center              X                  Y                   Z               Mass
    ------------   -----------------  -----------------  -----------------  -----------------
         O            1.361909621562    -0.379927562520    -0.932712771298    15.994914619570
         O            3.201895621562     1.901296437480    -0.300381771298    15.994914619570
         O            2.799245621562    -2.748863562520    -0.401069771298    15.994914619570
         O           -1.362347378438     2.374088437480     0.153914228702    15.994914619570
         N           -0.798405378438     0.199501437480    -0.230124771298    14.003074004430
         N           -3.054333378438     0.805322437480     0.239143228702    14.003074004430
         N           -4.673571378438    -0.812351562520     0.411768228702    14.003074004430
         C            2.701433621562     0.875637437480     0.558605228702    12.000000000000
         C            1.236682621562     1.107309437480     0.886983228702    12.000000000000
         C            2.651657621562    -0.392207562520    -0.286338771298    12.000000000000
         C            0.573796621562     0.683087437480    -0.415784771298    12.000000000000
         C            2.801936621562    -1.659932562520     0.521601228702    12.000000000000
         C           -1.127498378438    -1.115735562520    -0.309144771298    12.000000000000
         C           -1.744849378438     1.203975437480     0.081176228702    12.000000000000
         C           -2.417468378438    -1.504477562520    -0.105410771298    12.000000000000
         C           -3.362153378438    -0.473076562520     0.167642228702    12.000000000000
         H            3.334219621562     0.756868437480     1.449984228702     1.007825032230
         H            0.904545621562     0.443912437480     1.692620228702     1.007825032230
         H            0.985167621562     2.134150437480     1.157278228702     1.007825032230
         H            0.527292621562     1.513337437480    -1.125781771298     1.007825032230
         H            3.417330621562    -0.364199562520    -1.067494771298     1.007825032230
         H            1.970587621562    -1.733100562520     1.242354228702     1.007825032230
         H            3.745927621562    -1.609431562520     1.087420228702     1.007825032230
         H            3.103689621562     2.746407437480     0.177114228702     1.007825032230
         H           -0.310901378438    -1.789117562520    -0.544566771298     1.007825032230
         H            2.909868621562    -3.564988562520     0.118343228702     1.007825032230
         H           -2.667269978438    -2.567809662520     0.041646928702     1.007825032230
         H           -5.028872378438    -1.637658562520    -0.057587771298     1.007825032230
         H           -5.299632378438    -0.013714562520     0.385232228702     1.007825032230

  Basis Set: AUG-CC-PVTZ
    Blend: AUG-CC-PVTZ
  Basis Set: (AUG-CC-PVTZ AUX)
    Blend: AUG-CC-PVTZ-JKFIT
	 Reference Energy          =    -811.4772001426168799 [Eh]
	 Singles Energy            =      -0.0000000000000000 [Eh]
	 Same-Spin Energy          =      -0.8297385980820152 [Eh]
	 Opposite-Spin Energy      =      -2.5253412989067003 [Eh]
	 Correlation Energy        =      -3.3550798969887157 [Eh]
	 Total Energy              =    -814.8322800396056209 [Eh]

	 ================> DF-SCS-MP2 Energies <==================
	-----------------------------------------------------------
	 SCS Same-Spin Scale       =       0.3333333333333333 [-]
	 SCS Opposite-Spin Scale   =       1.2000000000000000 [-]
	 SCS Same-Spin Energy      =      -0.2765795326940050 [Eh]
	 SCS Opposite-Spin Energy  =      -3.0304095586880404 [Eh]
	 SCS Correlation Energy    =      -3.3069890913820457 [Eh]
	 SCS Total Energy          =    -814.7841892339989727 [Eh]
	-----------------------------------------------------------

  Dipole Moment: [D]
     X:     1.1241      Y:    -4.6548      Z:     2.6354     Total:     5.4659

*** Psi4 exiting successfully. Buy a developer a beer!
