                               Psi4 1.3.2 release

  ==> Input File <==

--------------------------------------------------------------------------
#psi4
#
memory 32 gb

molecule  {
0 1
  O        1.3620710    -0.3800110    -0.9318440
  O        3.2020570     1.9012130    -0.2995130
  O        2.7994070    -2.7489470    -0.4002010
  O       -1.3621860     2.3740050     0.1547830
  N       -0.7982440     0.1994180    -0.2292560
  N       -3.0541720     0.8052390     0.2400120
  N       -4.6734100    -0.8124350     0.4126370
  C        2.7015950     0.8755540     0.5594740
  C        1.2368440     1.1072260     0.8878520
  C        2.6518190    -0.3922910    -0.2854700
  C        0.5739580     0.6830040    -0.4149160
  C        2.8020980    -1.6600160     0.5224700
  C       -1.1273370    -1.1158190    -0.3082760
  C       -1.7446880     1.2038920     0.0820450
  C       -2.4173070    -1.5045610    -0.1045420
  C       -3.3619920    -0.4731600     0.1685110
  H        3.3343810     0.7567850     1.4508530
  H        0.9047070     0.4438290     1.6934890
  H        0.9853290     2.1340670     1.1581470
  H        0.5274540     1.5132540    -1.1249130
  H        3.4174920    -0.3642830    -1.0666260
  H        1.9707490    -1.7331840     1.2432230
  H        3.7460890    -1.6095150     1.0882890
  H        3.1038510     2.7463240     0.1779830
  H       -0.3107400    -1.7892010    -0.5436980
  H        2.9100300    -3.5650720     0.1192120
  H       -2.7034680    -2.5490840    -0.1532500
  H       -5.0287110    -1.6377420    -0.0567190
  H       -5.3066579     0.0245017     0.2412511
units angstrom
no_reorient  #important for SAPT in psi4, default
symmetry c1  #important for SAPT in psi4, default
}

set PROPERTIES_ORIGIN ["COM"]
properties('MP2/aug-cc-pvtz', properties = ['dipole'])
--------------------------------------------------------------------------

    Molecular point group: c1
  Charge       = 0
  Multiplicity = 1
  Basis Set: AUG-CC-PVTZ
    Blend: AUG-CC-PVTZ
  Basis Set: (AUG-CC-PVTZ AUX)
    Blend: AUG-CC-PVTZ-JKFIT

    Orbital Energies [Eh]
    ---------------------

    Doubly Occupied:

       1A    -20.577943     2A    -20.574568     3A    -20.573214
       4A    -20.503592     5A    -15.622459     6A    -15.592388
       7A    -15.541665     8A    -11.370473     9A    -11.344936
      10A    -11.331149    11A    -11.318799    12A    -11.301105
      13A    -11.297072    14A    -11.293328    15A    -11.237381
      16A    -11.237093    17A     -1.417016    18A     -1.382903
      19A     -1.373781    20A     -1.365991    21A     -1.292121
      22A     -1.260757    23A     -1.167389    24A     -1.079271
      25A     -1.069125    26A     -1.027890    27A     -0.926412
      28A     -0.897162    29A     -0.868870    30A     -0.830850
      31A     -0.806271    32A     -0.750460    33A     -0.739110
      34A     -0.721161    35A     -0.705822    36A     -0.692356
      37A     -0.689486    38A     -0.671426    39A     -0.652830
      40A     -0.637097    41A     -0.628302    42A     -0.617095
      43A     -0.603707    44A     -0.592692    45A     -0.588214
      46A     -0.573515    47A     -0.568850    48A     -0.545379
      49A     -0.533266    50A     -0.524048    51A     -0.511178
      52A     -0.486173    53A     -0.482527    54A     -0.468720
      55A     -0.461470    56A     -0.445168    57A     -0.438021
      58A     -0.416949    59A     -0.385756    60A     -0.335378

  @DF-RHF Final Energy:  -811.47522235259146

   => Energetics <=

    Nuclear Repulsion Energy =           1169.7825472726144653
    One-Electron Energy =               -3434.6172751588323990
    Two-Electron Energy =                1453.3595055336263613
    Total Energy =                       -811.4752223525915724
  Basis Set: (AUG-CC-PVTZ AUX)
    Blend: AUG-CC-PVTZ-RI
    Molecular point group: c1

    Geometry (in Angstrom), charge = 0, multiplicity = 1:

       Center              X                  Y                   Z               Mass
    ------------   -----------------  -----------------  -----------------  -----------------
         O            1.362102879451    -0.380181010601    -0.931201123880    15.994914619570
         O            3.202088879451     1.901042989399    -0.298870123880    15.994914619570
         O            2.799438879451    -2.749117010601    -0.399558123880    15.994914619570
         O           -1.362154120549     2.373834989399     0.155425876120    15.994914619570
         N           -0.798212120549     0.199247989399    -0.228613123880    14.003074004430
         N           -3.054140120549     0.805068989399     0.240654876120    14.003074004430
         N           -4.673378120549    -0.812605010601     0.413279876120    14.003074004430
         C            2.701626879451     0.875383989399     0.560116876120    12.000000000000
         C            1.236875879451     1.107055989399     0.888494876120    12.000000000000
         C            2.651850879451    -0.392461010601    -0.284827123880    12.000000000000
         C            0.573989879451     0.682833989399    -0.414273123880    12.000000000000
         C            2.802129879451    -1.660186010601     0.523112876120    12.000000000000
         C           -1.127305120549    -1.115989010601    -0.307633123880    12.000000000000
         C           -1.744656120549     1.203721989399     0.082687876120    12.000000000000
         C           -2.417275120549    -1.504731010601    -0.103899123880    12.000000000000
         C           -3.361960120549    -0.473330010601     0.169153876120    12.000000000000
         H            3.334412879451     0.756614989399     1.451495876120     1.007825032230
         H            0.904738879451     0.443658989399     1.694131876120     1.007825032230
         H            0.985360879451     2.133896989399     1.158789876120     1.007825032230
         H            0.527485879451     1.513083989399    -1.124270123880     1.007825032230
         H            3.417523879451    -0.364453010601    -1.065983123880     1.007825032230
         H            1.970780879451    -1.733354010601     1.243865876120     1.007825032230
         H            3.746120879451    -1.609685010601     1.088931876120     1.007825032230
         H            3.103882879451     2.746153989399     0.178625876120     1.007825032230
         H           -0.310708120549    -1.789371010601    -0.543055123880     1.007825032230
         H            2.910061879451    -3.565242010601     0.119854876120     1.007825032230
         H           -2.703436120549    -2.549254010601    -0.152607123880     1.007825032230
         H           -5.028679120549    -1.637912010601    -0.056076123880     1.007825032230
         H           -5.306626020549     0.024331689399     0.241893976120     1.007825032230

  Basis Set: AUG-CC-PVTZ
    Blend: AUG-CC-PVTZ
  Basis Set: (AUG-CC-PVTZ AUX)
    Blend: AUG-CC-PVTZ-JKFIT
	 Reference Energy          =    -811.4752223525914587 [Eh]
	 Singles Energy            =      -0.0000000000000000 [Eh]
	 Same-Spin Energy          =      -0.8300183632558307 [Eh]
	 Opposite-Spin Energy      =      -2.5261551792252224 [Eh]
	 Correlation Energy        =      -3.3561735424810530 [Eh]
	 Total Energy              =    -814.8313958950725464 [Eh]

	 ================> DF-SCS-MP2 Energies <==================
	-----------------------------------------------------------
	 SCS Same-Spin Scale       =       0.3333333333333333 [-]
	 SCS Opposite-Spin Scale   =       1.2000000000000000 [-]
	 SCS Same-Spin Energy      =      -0.2766727877519435 [Eh]
	 SCS Opposite-Spin Energy  =      -3.0313862150702668 [Eh]
	 SCS Correlation Energy    =      -3.3080590028222105 [Eh]
	 SCS Total Energy          =    -814.7832813554136919 [Eh]
	-----------------------------------------------------------

  Dipole Moment: [D]
     X:     1.1827      Y:    -4.6450      Z:     2.3077     Total:     5.3198

*** Psi4 exiting successfully. Buy a developer a beer!
