                               Psi4 1.3.2 release

  ==> Input File <==

--------------------------------------------------------------------------
#psi4
#
memory 32 gb

molecule  {
0 1
  O        1.3620710    -0.3800110    -0.9318440
  O        3.2020570     1.9012130    -0.2995130
  O        2.7994070    -2.7489470    -0.4002010
  O       -1.3621860     2.3740050     0.1547830
  N       -0.7982440     0.1994180    -0.2292560
  N       -3.0541720     0.8052390     0.2400120
  N       -4.6734100    -0.8124350     0.4126370
  C        2.7015950     0.8755540     0.5594740
  C        1.2368440     1.1072260     0.8878520
  C        2.6518190    -0.3922910    -0.2854700
  C        0.5739580     0.6830040    -0.4149160
  C        2.8020980    -1.6600160     0.5224700
  C       -1.1273370    -1.1158190    -0.3082760
  C       -1.7446880     1.2038920     0.0820450
  C       -2.4173070    -1.5045610    -0.1045420
  C       -3.3619920    -0.4731600     0.1685110
  H        3.3343810     0.7567850     1.4508530
  H        0.9047070     0.4438290     1.6934890
  H        0.9853290     2.1340670     1.1581470
  H        0.5274540     1.5132540    -1.1249130
  H        3.4174920    -0.3642830    -1.0666260
  H        1.9707490    -1.7331840     1.2432230
  H        3.7460890    -1.6095150     1.0882890
  H        3.1038510     2.7463240     0.1779830
  H       -0.2918522    -1.8000039    -0.4460940
  H        2.9100300    -3.5650720     0.1192120
  H       -2.7034680    -2.5490840    -0.1532500
  H       -5.0287110    -1.6377420    -0.0567190
  H       -5.2994710    -0.0137980     0.3861010
units angstrom
no_reorient  #important for SAPT in psi4, default
symmetry c1  #important for SAPT in psi4, default
}

set PROPERTIES_ORIGIN ["COM"]
properties('MP2/aug-cc-pvtz', properties = ['dipole'])
--------------------------------------------------------------------------

    Molecular point group: c1
  Charge       = 0
  Multiplicity = 1
  Basis Set: AUG-CC-PVTZ
    Blend: AUG-CC-PVTZ
  Basis Set: (AUG-CC-PVTZ AUX)
    Blend: AUG-CC-PVTZ-JKFIT

    Orbital Energies [Eh]
    ---------------------

    Doubly Occupied:

       1A    -20.577959     2A    -20.574372     3A    -20.572770
       4A    -20.503079     5A    -15.621657     6A    -15.588362
       7A    -15.540830     8A    -11.369925     9A    -11.345122
      10A    -11.330693    11A    -11.318987    12A    -11.300891
      13A    -11.297136    14A    -11.293105    15A    -11.237161
      16A    -11.236826    17A     -1.416601    18A     -1.382458
      19A     -1.373722    20A     -1.365753    21A     -1.292256
      22A     -1.261426    23A     -1.169129    24A     -1.078945
      25A     -1.069016    26A     -1.028039    27A     -0.926865
      28A     -0.897286    29A     -0.869001    30A     -0.830749
      31A     -0.806439    32A     -0.754296    33A     -0.738554
      34A     -0.721246    35A     -0.706725    36A     -0.692613
      37A     -0.689271    38A     -0.675406    39A     -0.657062
      40A     -0.637269    41A     -0.627318    42A     -0.618354
      43A     -0.604632    44A     -0.595821    45A     -0.588077
      46A     -0.572831    47A     -0.568763    48A     -0.545061
      49A     -0.532453    50A     -0.523644    51A     -0.510426
      52A     -0.486165    53A     -0.482023    54A     -0.468637
      55A     -0.461497    56A     -0.444287    57A     -0.437378
      58A     -0.416373    59A     -0.383763    60A     -0.335023

  @DF-RHF Final Energy:  -811.47856064167638

   => Energetics <=

    Nuclear Repulsion Energy =           1169.9687469537955167
    One-Electron Energy =               -3434.9915545376202317
    Two-Electron Energy =                1453.5442469421486749
    Total Energy =                       -811.4785606416762676
  Basis Set: (AUG-CC-PVTZ AUX)
    Blend: AUG-CC-PVTZ-RI
    Molecular point group: c1

    Geometry (in Angstrom), charge = 0, multiplicity = 1:

       Center              X                  Y                   Z               Mass
    ------------   -----------------  -----------------  -----------------  -----------------
         O            1.361987160286    -0.379963093927    -0.932277131004    15.994914619570
         O            3.201973160286     1.901260906073    -0.299946131004    15.994914619570
         O            2.799323160286    -2.748899093927    -0.400634131004    15.994914619570
         O           -1.362269839714     2.374052906073     0.154349868996    15.994914619570
         N           -0.798327839714     0.199465906073    -0.229689131004    14.003074004430
         N           -3.054255839714     0.805286906073     0.239578868996    14.003074004430
         N           -4.673493839714    -0.812387093927     0.412203868996    14.003074004430
         C            2.701511160286     0.875601906073     0.559040868996    12.000000000000
         C            1.236760160286     1.107273906073     0.887418868996    12.000000000000
         C            2.651735160286    -0.392243093927    -0.285903131004    12.000000000000
         C            0.573874160286     0.683051906073    -0.415349131004    12.000000000000
         C            2.802014160286    -1.659968093927     0.522036868996    12.000000000000
         C           -1.127420839714    -1.115771093927    -0.308709131004    12.000000000000
         C           -1.744771839714     1.203939906073     0.081611868996    12.000000000000
         C           -2.417390839714    -1.504513093927    -0.104975131004    12.000000000000
         C           -3.362075839714    -0.473112093927     0.168077868996    12.000000000000
         H            3.334297160286     0.756832906073     1.450419868996     1.007825032230
         H            0.904623160286     0.443876906073     1.693055868996     1.007825032230
         H            0.985245160286     2.134114906073     1.157713868996     1.007825032230
         H            0.527370160286     1.513301906073    -1.125346131004     1.007825032230
         H            3.417408160286    -0.364235093927    -1.067059131004     1.007825032230
         H            1.970665160286    -1.733136093927     1.242789868996     1.007825032230
         H            3.746005160286    -1.609467093927     1.087855868996     1.007825032230
         H            3.103767160286     2.746371906073     0.177549868996     1.007825032230
         H           -0.291936039714    -1.799955993927    -0.446527131004     1.007825032230
         H            2.909946160286    -3.565024093927     0.118778868996     1.007825032230
         H           -2.703551839714    -2.549036093927    -0.153683131004     1.007825032230
         H           -5.028794839714    -1.637694093927    -0.057152131004     1.007825032230
         H           -5.299554839714    -0.013750093927     0.385667868996     1.007825032230

  Basis Set: AUG-CC-PVTZ
    Blend: AUG-CC-PVTZ
  Basis Set: (AUG-CC-PVTZ AUX)
    Blend: AUG-CC-PVTZ-JKFIT
	 Reference Energy          =    -811.4785606416763812 [Eh]
	 Singles Energy            =      -0.0000000000000000 [Eh]
	 Same-Spin Energy          =      -0.8297049724309127 [Eh]
	 Opposite-Spin Energy      =      -2.5252781189619258 [Eh]
	 Correlation Energy        =      -3.3549830913928385 [Eh]
	 Total Energy              =    -814.8335437330691775 [Eh]

	 ================> DF-SCS-MP2 Energies <==================
	-----------------------------------------------------------
	 SCS Same-Spin Scale       =       0.3333333333333333 [-]
	 SCS Opposite-Spin Scale   =       1.2000000000000000 [-]
	 SCS Same-Spin Energy      =      -0.2765683241436375 [Eh]
	 SCS Opposite-Spin Energy  =      -3.0303337427543107 [Eh]
	 SCS Correlation Energy    =      -3.3069020668979481 [Eh]
	 SCS Total Energy          =    -814.7854627085743004 [Eh]
	-----------------------------------------------------------

  Dipole Moment: [D]
     X:     1.0813      Y:    -4.6802      Z:     2.5435     Total:     5.4353

*** Psi4 exiting successfully. Buy a developer a beer!
