                               Psi4 1.3.2 release

  ==> Input File <==

--------------------------------------------------------------------------
#psi4
#
memory 32 gb

molecule  {
0 1
  O        1.3620710    -0.3800110    -0.9318440
  O        3.2020570     1.9012130    -0.2995130
  O        2.7994070    -2.7489470    -0.4002010
  O       -1.3621860     2.3740050     0.1547830
  N       -0.7982440     0.1994180    -0.2292560
  N       -3.0963414     0.8374479    -0.0042918
  N       -4.6734100    -0.8124350     0.4126370
  C        2.7015950     0.8755540     0.5594740
  C        1.2368440     1.1072260     0.8878520
  C        2.6518190    -0.3922910    -0.2854700
  C        0.5739580     0.6830040    -0.4149160
  C        2.8020980    -1.6600160     0.5224700
  C       -1.1273370    -1.1158190    -0.3082760
  C       -1.7446880     1.2038920     0.0820450
  C       -2.4173070    -1.5045610    -0.1045420
  C       -3.3619920    -0.4731600     0.1685110
  H        3.3343810     0.7567850     1.4508530
  H        0.9047070     0.4438290     1.6934890
  H        0.9853290     2.1340670     1.1581470
  H        0.5274540     1.5132540    -1.1249130
  H        3.4174920    -0.3642830    -1.0666260
  H        1.9707490    -1.7331840     1.2432230
  H        3.7460890    -1.6095150     1.0882890
  H        3.1038510     2.7463240     0.1779830
  H       -0.3107400    -1.7892010    -0.5436980
  H        2.9100300    -3.5650720     0.1192120
  H       -2.7034680    -2.5490840    -0.1532500
  H       -5.0287110    -1.6377420    -0.0567190
  H       -5.2994710    -0.0137980     0.3861010
units angstrom
no_reorient  #important for SAPT in psi4, default
symmetry c1  #important for SAPT in psi4, default
}

set PROPERTIES_ORIGIN ["COM"]
properties('MP2/aug-cc-pvtz', properties = ['dipole'])
--------------------------------------------------------------------------

    Molecular point group: c1
  Charge       = 0
  Multiplicity = 1
  Basis Set: AUG-CC-PVTZ
    Blend: AUG-CC-PVTZ
  Basis Set: (AUG-CC-PVTZ AUX)
    Blend: AUG-CC-PVTZ-JKFIT

    Orbital Energies [Eh]
    ---------------------

    Doubly Occupied:

       1A    -20.577980     2A    -20.574650     3A    -20.573244
       4A    -20.506106     5A    -15.622206     6A    -15.589576
       7A    -15.545190     8A    -11.371013     9A    -11.348107
      10A    -11.331275    11A    -11.318322    12A    -11.301171
      13A    -11.297171    14A    -11.293392    15A    -11.237607
      16A    -11.237269    17A     -1.416893    18A     -1.381961
      19A     -1.373834    20A     -1.365903    21A     -1.289249
      22A     -1.259888    23A     -1.160721    24A     -1.079014
      25A     -1.068903    26A     -1.028082    27A     -0.926131
      28A     -0.897550    29A     -0.863264    30A     -0.828594
      31A     -0.806668    32A     -0.748993    33A     -0.738834
      34A     -0.721320    35A     -0.707152    36A     -0.693182
      37A     -0.689691    38A     -0.676543    39A     -0.656689
      40A     -0.638159    41A     -0.624727    42A     -0.618399
      43A     -0.604540    44A     -0.594785    45A     -0.588120
      46A     -0.573851    47A     -0.567526    48A     -0.544203
      49A     -0.527549    50A     -0.522940    51A     -0.508157
      52A     -0.486213    53A     -0.484665    54A     -0.468825
      55A     -0.461673    56A     -0.445479    57A     -0.439679
      58A     -0.414517    59A     -0.381888    60A     -0.334343

  @DF-RHF Final Energy:  -811.46542361314584

   => Energetics <=

    Nuclear Repulsion Energy =           1168.5876313746102824
    One-Electron Energy =               -3432.2389427554580834
    Two-Electron Energy =                1452.1858877677020701
    Total Energy =                       -811.4654236131457310
  Basis Set: (AUG-CC-PVTZ AUX)
    Blend: AUG-CC-PVTZ-RI
    Molecular point group: c1

    Geometry (in Angstrom), charge = 0, multiplicity = 1:

       Center              X                  Y                   Z               Mass
    ------------   -----------------  -----------------  -----------------  -----------------
         O            1.364671273194    -0.381997132462    -0.916779475646    15.994914619570
         O            3.204657273194     1.899226867538    -0.284448475646    15.994914619570
         O            2.802007273194    -2.750933132462    -0.385136475646    15.994914619570
         O           -1.359585726806     2.372018867538     0.169847524354    15.994914619570
         N           -0.795643726806     0.197431867538    -0.214191475646    14.003074004430
         N           -3.093741126806     0.835461767538     0.010772724354    14.003074004430
         N           -4.670809726806    -0.814421132462     0.427701524354    14.003074004430
         C            2.704195273194     0.873567867538     0.574538524354    12.000000000000
         C            1.239444273194     1.105239867538     0.902916524354    12.000000000000
         C            2.654419273194    -0.394277132462    -0.270405475646    12.000000000000
         C            0.576558273194     0.681017867538    -0.399851475646    12.000000000000
         C            2.804698273194    -1.662002132462     0.537534524354    12.000000000000
         C           -1.124736726806    -1.117805132462    -0.293211475646    12.000000000000
         C           -1.742087726806     1.201905867538     0.097109524354    12.000000000000
         C           -2.414706726806    -1.506547132462    -0.089477475646    12.000000000000
         C           -3.359391726806    -0.475146132462     0.183575524354    12.000000000000
         H            3.336981273194     0.754798867538     1.465917524354     1.007825032230
         H            0.907307273194     0.441842867538     1.708553524354     1.007825032230
         H            0.987929273194     2.132080867538     1.173211524354     1.007825032230
         H            0.530054273194     1.511267867538    -1.109848475646     1.007825032230
         H            3.420092273194    -0.366269132462    -1.051561475646     1.007825032230
         H            1.973349273194    -1.735170132462     1.258287524354     1.007825032230
         H            3.748689273194    -1.611501132462     1.103353524354     1.007825032230
         H            3.106451273194     2.744337867538     0.193047524354     1.007825032230
         H           -0.308139726806    -1.791187132462    -0.528633475646     1.007825032230
         H            2.912630273194    -3.567058132462     0.134276524354     1.007825032230
         H           -2.700867726806    -2.551070132462    -0.138185475646     1.007825032230
         H           -5.026110726806    -1.639728132462    -0.041654475646     1.007825032230
         H           -5.296870726806    -0.015784132462     0.401165524354     1.007825032230

  Basis Set: AUG-CC-PVTZ
    Blend: AUG-CC-PVTZ
  Basis Set: (AUG-CC-PVTZ AUX)
    Blend: AUG-CC-PVTZ-JKFIT
	 Reference Energy          =    -811.4654236131458447 [Eh]
	 Singles Energy            =      -0.0000000000000000 [Eh]
	 Same-Spin Energy          =      -0.8305746737167156 [Eh]
	 Opposite-Spin Energy      =      -2.5276243517425541 [Eh]
	 Correlation Energy        =      -3.3581990254592697 [Eh]
	 Total Energy              =    -814.8236226386051158 [Eh]

	 ================> DF-SCS-MP2 Energies <==================
	-----------------------------------------------------------
	 SCS Same-Spin Scale       =       0.3333333333333333 [-]
	 SCS Opposite-Spin Scale   =       1.2000000000000000 [-]
	 SCS Same-Spin Energy      =      -0.2768582245722385 [Eh]
	 SCS Opposite-Spin Energy  =      -3.0331492220910650 [Eh]
	 SCS Correlation Energy    =      -3.3100074466633034 [Eh]
	 SCS Total Energy          =    -814.7754310598091934 [Eh]
	-----------------------------------------------------------

  Dipole Moment: [D]
     X:     1.1674      Y:    -4.6696      Z:     2.8245     Total:     5.5808

*** Psi4 exiting successfully. Buy a developer a beer!
