                               Psi4 1.3.2 release

  ==> Input File <==

--------------------------------------------------------------------------
#psi4
#
memory 32 gb

molecule  {
0 1
  O        1.3620710    -0.3800110    -0.9318440
  O        3.2020570     1.9012130    -0.2995130
  O        2.7994070    -2.7489470    -0.4002010
  O       -1.3621860     2.3740050     0.1547830
  N       -0.7982440     0.1994180    -0.2292560
  N       -3.1047753     0.8438897    -0.0531525
  N       -4.6734100    -0.8124350     0.4126370
  C        2.7015950     0.8755540     0.5594740
  C        1.2368440     1.1072260     0.8878520
  C        2.6518190    -0.3922910    -0.2854700
  C        0.5739580     0.6830040    -0.4149160
  C        2.8020980    -1.6600160     0.5224700
  C       -1.1273370    -1.1158190    -0.3082760
  C       -1.7446880     1.2038920     0.0820450
  C       -2.4173070    -1.5045610    -0.1045420
  C       -3.3619920    -0.4731600     0.1685110
  H        3.3343810     0.7567850     1.4508530
  H        0.9047070     0.4438290     1.6934890
  H        0.9853290     2.1340670     1.1581470
  H        0.5274540     1.5132540    -1.1249130
  H        3.4174920    -0.3642830    -1.0666260
  H        1.9707490    -1.7331840     1.2432230
  H        3.7460890    -1.6095150     1.0882890
  H        3.1038510     2.7463240     0.1779830
  H       -0.3107400    -1.7892010    -0.5436980
  H        2.9100300    -3.5650720     0.1192120
  H       -2.7034680    -2.5490840    -0.1532500
  H       -5.0287110    -1.6377420    -0.0567190
  H       -5.2994710    -0.0137980     0.3861010
units angstrom
no_reorient  #important for SAPT in psi4, default
symmetry c1  #important for SAPT in psi4, default
}

set PROPERTIES_ORIGIN ["COM"]
properties('MP2/aug-cc-pvtz', properties = ['dipole'])
--------------------------------------------------------------------------

    Molecular point group: c1
  Charge       = 0
  Multiplicity = 1
  Basis Set: AUG-CC-PVTZ
    Blend: AUG-CC-PVTZ
  Basis Set: (AUG-CC-PVTZ AUX)
    Blend: AUG-CC-PVTZ-JKFIT

    Orbital Energies [Eh]
    ---------------------

    Doubly Occupied:

       1A    -20.578029     2A    -20.574728     3A    -20.573341
       4A    -20.507195     5A    -15.622318     6A    -15.590131
       7A    -15.546757     8A    -11.371476     9A    -11.349175
      10A    -11.331427    11A    -11.318326    12A    -11.301251
      13A    -11.297238    14A    -11.293469    15A    -11.237802
      16A    -11.237386    17A     -1.416943    18A     -1.381779
      19A     -1.373895    20A     -1.365943    21A     -1.288323
      22A     -1.259305    23A     -1.157288    24A     -1.078961
      25A     -1.068804    26A     -1.028093    27A     -0.925936
      28A     -0.897553    29A     -0.861629    30A     -0.827577
      31A     -0.806731    32A     -0.747089    33A     -0.738864
      34A     -0.721393    35A     -0.707073    36A     -0.693252
      37A     -0.689761    38A     -0.676522    39A     -0.656423
      40A     -0.638302    41A     -0.624188    42A     -0.618258
      43A     -0.604402    44A     -0.594585    45A     -0.587931
      46A     -0.573922    47A     -0.567142    48A     -0.544089
      49A     -0.526607    50A     -0.522498    51A     -0.507208
      52A     -0.486584    53A     -0.485092    54A     -0.468899
      55A     -0.461805    56A     -0.446154    57A     -0.440049
      58A     -0.414012    59A     -0.380662    60A     -0.333995

  @DF-RHF Final Energy:  -811.45946495112958

   => Energetics <=

    Nuclear Repulsion Energy =           1168.1160077619035746
    One-Electron Energy =               -3431.2998060764293768
    Two-Electron Energy =                1451.7243333633964539
    Total Energy =                       -811.4594649511295756
  Basis Set: (AUG-CC-PVTZ AUX)
    Blend: AUG-CC-PVTZ-RI
    Molecular point group: c1

    Geometry (in Angstrom), charge = 0, multiplicity = 1:

       Center              X                  Y                   Z               Mass
    ------------   -----------------  -----------------  -----------------  -----------------
         O            1.365191332248    -0.382394352778    -0.913766581320    15.994914619570
         O            3.205177332248     1.898829647222    -0.281435581320    15.994914619570
         O            2.802527332248    -2.751330352778    -0.382123581320    15.994914619570
         O           -1.359065667752     2.371621647222     0.172860418680    15.994914619570
         N           -0.795123667752     0.197034647222    -0.211178581320    14.003074004430
         N           -3.101654967752     0.841506347222    -0.035075081320    14.003074004430
         N           -4.670289667752    -0.814818352778     0.430714418680    14.003074004430
         C            2.704715332248     0.873170647222     0.577551418680    12.000000000000
         C            1.239964332248     1.104842647222     0.905929418680    12.000000000000
         C            2.654939332248    -0.394674352778    -0.267392581320    12.000000000000
         C            0.577078332248     0.680620647222    -0.396838581320    12.000000000000
         C            2.805218332248    -1.662399352778     0.540547418680    12.000000000000
         C           -1.124216667752    -1.118202352778    -0.290198581320    12.000000000000
         C           -1.741567667752     1.201508647222     0.100122418680    12.000000000000
         C           -2.414186667752    -1.506944352778    -0.086464581320    12.000000000000
         C           -3.358871667752    -0.475543352778     0.186588418680    12.000000000000
         H            3.337501332248     0.754401647222     1.468930418680     1.007825032230
         H            0.907827332248     0.441445647222     1.711566418680     1.007825032230
         H            0.988449332248     2.131683647222     1.176224418680     1.007825032230
         H            0.530574332248     1.510870647222    -1.106835581320     1.007825032230
         H            3.420612332248    -0.366666352778    -1.048548581320     1.007825032230
         H            1.973869332248    -1.735567352778     1.261300418680     1.007825032230
         H            3.749209332248    -1.611898352778     1.106366418680     1.007825032230
         H            3.106971332248     2.743940647222     0.196060418680     1.007825032230
         H           -0.307619667752    -1.791584352778    -0.525620581320     1.007825032230
         H            2.913150332248    -3.567455352778     0.137289418680     1.007825032230
         H           -2.700347667752    -2.551467352778    -0.135172581320     1.007825032230
         H           -5.025590667752    -1.640125352778    -0.038641581320     1.007825032230
         H           -5.296350667752    -0.016181352778     0.404178418680     1.007825032230

  Basis Set: AUG-CC-PVTZ
    Blend: AUG-CC-PVTZ
  Basis Set: (AUG-CC-PVTZ AUX)
    Blend: AUG-CC-PVTZ-JKFIT
	 Reference Energy          =    -811.4594649511295756 [Eh]
	 Singles Energy            =      -0.0000000000000000 [Eh]
	 Same-Spin Energy          =      -0.8309461767413137 [Eh]
	 Opposite-Spin Energy      =      -2.5286930042795408 [Eh]
	 Correlation Energy        =      -3.3596391810208543 [Eh]
	 Total Energy              =    -814.8191041321504144 [Eh]

	 ================> DF-SCS-MP2 Energies <==================
	-----------------------------------------------------------
	 SCS Same-Spin Scale       =       0.3333333333333333 [-]
	 SCS Opposite-Spin Scale   =       1.2000000000000000 [-]
	 SCS Same-Spin Energy      =      -0.2769820589137712 [Eh]
	 SCS Opposite-Spin Energy  =      -3.0344316051354490 [Eh]
	 SCS Correlation Energy    =      -3.3114136640492200 [Eh]
	 SCS Total Energy          =    -814.7708786151788445 [Eh]
	-----------------------------------------------------------

  Dipole Moment: [D]
     X:     1.1844      Y:    -4.6597      Z:     2.8919     Total:     5.6106

*** Psi4 exiting successfully. Buy a developer a beer!
