                               Psi4 1.3.2 release

  ==> Input File <==

--------------------------------------------------------------------------
#psi4
#
memory 32 gb

molecule  {
0 1
  O        1.3620710    -0.3800110    -0.9318440
  O        3.2020570     1.9012130    -0.2995130
  O        2.7994070    -2.7489470    -0.4002010
  O       -1.3621860     2.3740050     0.1547830
  N       -0.7982440     0.1994180    -0.2292560
  N       -3.0541720     0.8052390     0.2400120
  N       -4.6734100    -0.8124350     0.4126370
  C        2.7015950     0.8755540     0.5594740
  C        1.2368440     1.1072260     0.8878520
  C        2.6518190    -0.3922910    -0.2854700
  C        0.5739580     0.6830040    -0.4149160
  C        2.8020980    -1.6600160     0.5224700
  C       -1.1273370    -1.1158190    -0.3082760
  C       -1.7446880     1.2038920     0.0820450
  C       -2.4173070    -1.5045610    -0.1045420
  C       -3.3619920    -0.4731600     0.1685110
  H        3.3343810     0.7567850     1.4508530
  H        0.9047070     0.4438290     1.6934890
  H        0.9853290     2.1340670     1.1581470
  H        0.5274540     1.5132540    -1.1249130
  H        3.4174920    -0.3642830    -1.0666260
  H        1.9707490    -1.7331840     1.2432230
  H        3.7460890    -1.6095150     1.0882890
  H        3.1038510     2.7463240     0.1779830
  H       -0.3107400    -1.7892010    -0.5436980
  H        2.9100300    -3.5650720     0.1192120
  H       -2.6580187    -2.5725954     0.0914571
  H       -5.0287110    -1.6377420    -0.0567190
  H       -5.2994710    -0.0137980     0.3861010
units angstrom
no_reorient  #important for SAPT in psi4, default
symmetry c1  #important for SAPT in psi4, default
}

set PROPERTIES_ORIGIN ["COM"]
properties('MP2/aug-cc-pvtz', properties = ['dipole'])
--------------------------------------------------------------------------

    Molecular point group: c1
  Charge       = 0
  Multiplicity = 1
  Basis Set: AUG-CC-PVTZ
    Blend: AUG-CC-PVTZ
  Basis Set: (AUG-CC-PVTZ AUX)
    Blend: AUG-CC-PVTZ-JKFIT

    Orbital Energies [Eh]
    ---------------------

    Doubly Occupied:

       1A    -20.577989     2A    -20.574610     3A    -20.573192
       4A    -20.503616     5A    -15.622435     6A    -15.588055
       7A    -15.540901     8A    -11.370309     9A    -11.344960
      10A    -11.331092    11A    -11.319208    12A    -11.301213
      13A    -11.297177    14A    -11.293374    15A    -11.238848
      16A    -11.237278    17A     -1.417008    18A     -1.382852
      19A     -1.373828    20A     -1.366005    21A     -1.292418
      22A     -1.261642    23A     -1.169089    24A     -1.079107
      25A     -1.068843    26A     -1.027898    27A     -0.926924
      28A     -0.897460    29A     -0.868995    30A     -0.830497
      31A     -0.806651    32A     -0.754288    33A     -0.737764
      34A     -0.721161    35A     -0.706946    36A     -0.693146
      37A     -0.689456    38A     -0.676092    39A     -0.655496
      40A     -0.634896    41A     -0.626454    42A     -0.617061
      43A     -0.605074    44A     -0.596007    45A     -0.589516
      46A     -0.570899    47A     -0.568024    48A     -0.545191
      49A     -0.533027    50A     -0.524290    51A     -0.510684
      52A     -0.486090    53A     -0.481985    54A     -0.468737
      55A     -0.460920    56A     -0.444060    57A     -0.439219
      58A     -0.416149    59A     -0.383755    60A     -0.334882

  @DF-RHF Final Energy:  -811.47584682779484

   => Energetics <=

    Nuclear Repulsion Energy =           1169.8549584859824790
    One-Electron Energy =               -3434.7521177033377171
    Two-Electron Energy =                1453.4213123895603985
    Total Energy =                       -811.4758468277948396
  Basis Set: (AUG-CC-PVTZ AUX)
    Blend: AUG-CC-PVTZ-RI
    Molecular point group: c1

    Geometry (in Angstrom), charge = 0, multiplicity = 1:

       Center              X                  Y                   Z               Mass
    ------------   -----------------  -----------------  -----------------  -----------------
         O            1.361869280709    -0.379906693776    -0.932929972568    15.994914619570
         O            3.201855280709     1.901317306224    -0.300598972568    15.994914619570
         O            2.799205280709    -2.748842693776    -0.401286972568    15.994914619570
         O           -1.362387719291     2.374109306224     0.153697027432    15.994914619570
         N           -0.798445719291     0.199522306224    -0.230341972568    14.003074004430
         N           -3.054373719291     0.805343306224     0.238926027432    14.003074004430
         N           -4.673611719291    -0.812330693776     0.411551027432    14.003074004430
         C            2.701393280709     0.875658306224     0.558388027432    12.000000000000
         C            1.236642280709     1.107330306224     0.886766027432    12.000000000000
         C            2.651617280709    -0.392186693776    -0.286555972568    12.000000000000
         C            0.573756280709     0.683108306224    -0.416001972568    12.000000000000
         C            2.801896280709    -1.659911693776     0.521384027432    12.000000000000
         C           -1.127538719291    -1.115714693776    -0.309361972568    12.000000000000
         C           -1.744889719291     1.203996306224     0.080959027432    12.000000000000
         C           -2.417508719291    -1.504456693776    -0.105627972568    12.000000000000
         C           -3.362193719291    -0.473055693776     0.167425027432    12.000000000000
         H            3.334179280709     0.756889306224     1.449767027432     1.007825032230
         H            0.904505280709     0.443933306224     1.692403027432     1.007825032230
         H            0.985127280709     2.134171306224     1.157061027432     1.007825032230
         H            0.527252280709     1.513358306224    -1.125998972568     1.007825032230
         H            3.417290280709    -0.364178693776    -1.067711972568     1.007825032230
         H            1.970547280709    -1.733079693776     1.242137027432     1.007825032230
         H            3.745887280709    -1.609410693776     1.087203027432     1.007825032230
         H            3.103649280709     2.746428306224     0.176897027432     1.007825032230
         H           -0.310941719291    -1.789096693776    -0.544783972568     1.007825032230
         H            2.909828280709    -3.564967693776     0.118126027432     1.007825032230
         H           -2.658220419291    -2.572491093776     0.090371127432     1.007825032230
         H           -5.028912719291    -1.637637693776    -0.057804972568     1.007825032230
         H           -5.299672719291    -0.013693693776     0.385015027432     1.007825032230

  Basis Set: AUG-CC-PVTZ
    Blend: AUG-CC-PVTZ
  Basis Set: (AUG-CC-PVTZ AUX)
    Blend: AUG-CC-PVTZ-JKFIT
	 Reference Energy          =    -811.4758468277948396 [Eh]
	 Singles Energy            =      -0.0000000000000000 [Eh]
	 Same-Spin Energy          =      -0.8297826997102673 [Eh]
	 Opposite-Spin Energy      =      -2.5254616397326597 [Eh]
	 Correlation Energy        =      -3.3552443394429270 [Eh]
	 Total Energy              =    -814.8310911672377870 [Eh]

	 ================> DF-SCS-MP2 Energies <==================
	-----------------------------------------------------------
	 SCS Same-Spin Scale       =       0.3333333333333333 [-]
	 SCS Opposite-Spin Scale   =       1.2000000000000000 [-]
	 SCS Same-Spin Energy      =      -0.2765942332367557 [Eh]
	 SCS Opposite-Spin Energy  =      -3.0305539676791917 [Eh]
	 SCS Correlation Energy    =      -3.3071482009159476 [Eh]
	 SCS Total Energy          =    -814.7829950287108431 [Eh]
	-----------------------------------------------------------

  Dipole Moment: [D]
     X:     1.1407      Y:    -4.6372      Z:     2.6717     Total:     5.4720

*** Psi4 exiting successfully. Buy a developer a beer!
