                               Psi4 1.3.2 release

  ==> Input File <==

--------------------------------------------------------------------------
#psi4
#
memory 32 gb

molecule  {
0 1
  O        1.3620710    -0.3800110    -0.9318440
  O        3.2020570     1.9012130    -0.2995130
  O        2.7994070    -2.7489470    -0.4002010
  O       -1.3621860     2.3740050     0.1547830
  N       -0.7982440     0.1994180    -0.2292560
  N       -3.0541720     0.8052390     0.2400120
  N       -4.6734100    -0.8124350     0.4126370
  C        2.7015950     0.8755540     0.5594740
  C        1.2368440     1.1072260     0.8878520
  C        2.6518190    -0.3922910    -0.2854700
  C        0.5739580     0.6830040    -0.4149160
  C        2.8020980    -1.6600160     0.5224700
  C       -1.1273370    -1.1158190    -0.3082760
  C       -1.7996775     1.2385375    -0.2108301
  C       -2.4173070    -1.5045610    -0.1045420
  C       -3.3619920    -0.4731600     0.1685110
  H        3.3343810     0.7567850     1.4508530
  H        0.9047070     0.4438290     1.6934890
  H        0.9853290     2.1340670     1.1581470
  H        0.5274540     1.5132540    -1.1249130
  H        3.4174920    -0.3642830    -1.0666260
  H        1.9707490    -1.7331840     1.2432230
  H        3.7460890    -1.6095150     1.0882890
  H        3.1038510     2.7463240     0.1779830
  H       -0.3107400    -1.7892010    -0.5436980
  H        2.9100300    -3.5650720     0.1192120
  H       -2.7034680    -2.5490840    -0.1532500
  H       -5.0287110    -1.6377420    -0.0567190
  H       -5.2994710    -0.0137980     0.3861010
units angstrom
no_reorient  #important for SAPT in psi4, default
symmetry c1  #important for SAPT in psi4, default
}

set PROPERTIES_ORIGIN ["COM"]
properties('MP2/aug-cc-pvtz', properties = ['dipole'])
--------------------------------------------------------------------------

    Molecular point group: c1
  Charge       = 0
  Multiplicity = 1
  Basis Set: AUG-CC-PVTZ
    Blend: AUG-CC-PVTZ
  Basis Set: (AUG-CC-PVTZ AUX)
    Blend: AUG-CC-PVTZ-JKFIT

    Orbital Energies [Eh]
    ---------------------

    Doubly Occupied:

       1A    -20.577012     2A    -20.573334     3A    -20.571687
       4A    -20.507460     5A    -15.623279     6A    -15.587348
       7A    -15.544437     8A    -11.381202     9A    -11.345051
      10A    -11.329723    11A    -11.317472    12A    -11.299359
      13A    -11.295874    14A    -11.291856    15A    -11.238200
      16A    -11.234646    17A     -1.414698    18A     -1.372929
      19A     -1.372609    20A     -1.360453    21A     -1.284261
      22A     -1.256993    23A     -1.164335    24A     -1.076914
      25A     -1.067900    26A     -1.025977    27A     -0.925356
      28A     -0.893020    29A     -0.865685    30A     -0.827979
      31A     -0.805427    32A     -0.749823    33A     -0.737344
      34A     -0.718835    35A     -0.706682    36A     -0.692022
      37A     -0.688642    38A     -0.674155    39A     -0.650767
      40A     -0.636203    41A     -0.626717    42A     -0.616040
      43A     -0.599233    44A     -0.591770    45A     -0.586019
      46A     -0.569529    47A     -0.567075    48A     -0.543910
      49A     -0.531836    50A     -0.522012    51A     -0.506904
      52A     -0.484290    53A     -0.478210    54A     -0.467351
      55A     -0.459072    56A     -0.442867    57A     -0.435482
      58A     -0.417036    59A     -0.375674    60A     -0.333015

  @DF-RHF Final Energy:  -811.43582175204165

   => Energetics <=

    Nuclear Repulsion Energy =           1167.8564123462406315
    One-Electron Energy =               -3430.9024820997615279
    Two-Electron Energy =                1451.6102480014792491
    Total Energy =                       -811.4358217520416474
  Basis Set: (AUG-CC-PVTZ AUX)
    Blend: AUG-CC-PVTZ-RI
    Molecular point group: c1

    Geometry (in Angstrom), charge = 0, multiplicity = 1:

       Center              X                  Y                   Z               Mass
    ------------   -----------------  -----------------  -----------------  -----------------
         O            1.364976758182    -0.381841786493    -0.916367758883    15.994914619570
         O            3.204962758182     1.899382213507    -0.284036758883    15.994914619570
         O            2.802312758182    -2.750777786493    -0.384724758883    15.994914619570
         O           -1.359280241818     2.372174213507     0.170259241117    15.994914619570
         N           -0.795338241818     0.197587213507    -0.213779758883    14.003074004430
         N           -3.051266241818     0.803408213507     0.255488241117    14.003074004430
         N           -4.670504241818    -0.814265786493     0.428113241117    14.003074004430
         C            2.704500758182     0.873723213507     0.574950241117    12.000000000000
         C            1.239749758182     1.105395213507     0.903328241117    12.000000000000
         C            2.654724758182    -0.394121786493    -0.269993758883    12.000000000000
         C            0.576863758182     0.681173213507    -0.399439758883    12.000000000000
         C            2.805003758182    -1.661846786493     0.537946241117    12.000000000000
         C           -1.124431241818    -1.117649786493    -0.292799758883    12.000000000000
         C           -1.796771741818     1.236706713507    -0.195353858883    12.000000000000
         C           -2.414401241818    -1.506391786493    -0.089065758883    12.000000000000
         C           -3.359086241818    -0.474990786493     0.183987241117    12.000000000000
         H            3.337286758182     0.754954213507     1.466329241117     1.007825032230
         H            0.907612758182     0.441998213507     1.708965241117     1.007825032230
         H            0.988234758182     2.132236213507     1.173623241117     1.007825032230
         H            0.530359758182     1.511423213507    -1.109436758883     1.007825032230
         H            3.420397758182    -0.366113786493    -1.051149758883     1.007825032230
         H            1.973654758182    -1.735014786493     1.258699241117     1.007825032230
         H            3.748994758182    -1.611345786493     1.103765241117     1.007825032230
         H            3.106756758182     2.744493213507     0.193459241117     1.007825032230
         H           -0.307834241818    -1.791031786493    -0.528221758883     1.007825032230
         H            2.912935758182    -3.566902786493     0.134688241117     1.007825032230
         H           -2.700562241818    -2.550914786493    -0.137773758883     1.007825032230
         H           -5.025805241818    -1.639572786493    -0.041242758883     1.007825032230
         H           -5.296565241818    -0.015628786493     0.401577241117     1.007825032230

  Basis Set: AUG-CC-PVTZ
    Blend: AUG-CC-PVTZ
  Basis Set: (AUG-CC-PVTZ AUX)
    Blend: AUG-CC-PVTZ-JKFIT
	 Reference Energy          =    -811.4358217520416474 [Eh]
	 Singles Energy            =      -0.0000000000000000 [Eh]
	 Same-Spin Energy          =      -0.8326204305512139 [Eh]
	 Opposite-Spin Energy      =      -2.5321792997523076 [Eh]
	 Correlation Energy        =      -3.3647997303035213 [Eh]
	 Total Energy              =    -814.8006214823451501 [Eh]

	 ================> DF-SCS-MP2 Energies <==================
	-----------------------------------------------------------
	 SCS Same-Spin Scale       =       0.3333333333333333 [-]
	 SCS Opposite-Spin Scale   =       1.2000000000000000 [-]
	 SCS Same-Spin Energy      =      -0.2775401435170713 [Eh]
	 SCS Opposite-Spin Energy  =      -3.0386151597027689 [Eh]
	 SCS Correlation Energy    =      -3.3161553032198401 [Eh]
	 SCS Total Energy          =    -814.7519770552614773 [Eh]
	-----------------------------------------------------------

  Dipole Moment: [D]
     X:     0.9757      Y:    -4.6553      Z:     2.1974     Total:     5.2395

*** Psi4 exiting successfully. Buy a developer a beer!
