                               Psi4 1.3.2 release

  ==> Input File <==

--------------------------------------------------------------------------
#psi4
#
memory 32 gb

molecule  {
0 1
  O        1.3620710    -0.3800110    -0.9318440
  O        3.2020570     1.9012130    -0.2995130
  O        2.7994070    -2.7489470    -0.4002010
  O       -1.3621860     2.3740050     0.1547830
  N       -0.7982440     0.1994180    -0.2292560
  N       -3.0541720     0.8052390     0.2400120
  N       -4.6734100    -0.8124350     0.4126370
  C        2.7015950     0.8755540     0.5594740
  C        1.2368440     1.1072260     0.8878520
  C        2.6518190    -0.3922910    -0.2854700
  C        0.5739580     0.6830040    -0.4149160
  C        2.8020980    -1.6600160     0.5224700
  C       -1.1273370    -1.1158190    -0.3082760
  C       -1.7446880     1.2038920     0.0820450
  C       -2.4173070    -1.5045610    -0.1045420
  C       -3.3619920    -0.4731600     0.1685110
  H        3.3343810     0.7567850     1.4508530
  H        0.9047070     0.4438290     1.6934890
  H        0.9853290     2.1340670     1.1581470
  H        0.5274540     1.5132540    -1.1249130
  H        3.4174920    -0.3642830    -1.0666260
  H        1.9707490    -1.7331840     1.2432230
  H        3.7460890    -1.6095150     1.0882890
  H        3.1038510     2.7463240     0.1779830
  H       -0.3107400    -1.7892010    -0.5436980
  H        2.9100300    -3.5650720     0.1192120
  H       -2.7034680    -2.5490840    -0.1532500
  H       -5.0287110    -1.6377420    -0.0567190
  H       -5.3042623     0.0117351     0.2895344
units angstrom
no_reorient  #important for SAPT in psi4, default
symmetry c1  #important for SAPT in psi4, default
}

set PROPERTIES_ORIGIN ["COM"]
properties('MP2/aug-cc-pvtz', properties = ['dipole'])
--------------------------------------------------------------------------

    Molecular point group: c1
  Charge       = 0
  Multiplicity = 1
  Basis Set: AUG-CC-PVTZ
    Blend: AUG-CC-PVTZ
  Basis Set: (AUG-CC-PVTZ AUX)
    Blend: AUG-CC-PVTZ-JKFIT

    Orbital Energies [Eh]
    ---------------------

    Doubly Occupied:

       1A    -20.577877     2A    -20.574490     3A    -20.573101
       4A    -20.503411     5A    -15.622205     6A    -15.590914
       7A    -15.541382     8A    -11.370285     9A    -11.344967
      10A    -11.331008    11A    -11.318620    12A    -11.301020
      13A    -11.297001    14A    -11.293242    15A    -11.237253
      16A    -11.236988    17A     -1.416895    18A     -1.382744
      19A     -1.373710    20A     -1.365896    21A     -1.292185
      22A     -1.261039    23A     -1.168055    24A     -1.079175
      25A     -1.069062    26A     -1.027922    27A     -0.926544
      28A     -0.897272    29A     -0.868918    30A     -0.830835
      31A     -0.806302    32A     -0.751704    33A     -0.738981
      34A     -0.721088    35A     -0.706144    36A     -0.692492
      37A     -0.689412    38A     -0.672754    39A     -0.654361
      40A     -0.637132    41A     -0.628076    42A     -0.617624
      43A     -0.604014    44A     -0.593594    45A     -0.588606
      46A     -0.573272    47A     -0.568849    48A     -0.545214
      49A     -0.533091    50A     -0.523941    51A     -0.510942
      52A     -0.486072    53A     -0.482377    54A     -0.468645
      55A     -0.461350    56A     -0.444939    57A     -0.437961
      58A     -0.416752    59A     -0.385089    60A     -0.335229

  @DF-RHF Final Energy:  -811.47723283324399

   => Energetics <=

    Nuclear Repulsion Energy =           1169.8430680842641323
    One-Electron Energy =               -3434.7405559953153897
    Two-Electron Energy =                1453.4202550778070417
    Total Energy =                       -811.4772328332439884
  Basis Set: (AUG-CC-PVTZ AUX)
    Blend: AUG-CC-PVTZ-RI
    Molecular point group: c1

    Geometry (in Angstrom), charge = 0, multiplicity = 1:

       Center              X                  Y                   Z               Mass
    ------------   -----------------  -----------------  -----------------  -----------------
         O            1.362092247811    -0.380124352603    -0.931415404512    15.994914619570
         O            3.202078247811     1.901099647397    -0.299084404512    15.994914619570
         O            2.799428247811    -2.749060352603    -0.399772404512    15.994914619570
         O           -1.362164752189     2.373891647397     0.155211595488    15.994914619570
         N           -0.798222752189     0.199304647397    -0.228827404512    14.003074004430
         N           -3.054150752189     0.805125647397     0.240440595488    14.003074004430
         N           -4.673388752189    -0.812548352603     0.413065595488    14.003074004430
         C            2.701616247811     0.875440647397     0.559902595488    12.000000000000
         C            1.236865247811     1.107112647397     0.888280595488    12.000000000000
         C            2.651840247811    -0.392404352603    -0.285041404512    12.000000000000
         C            0.573979247811     0.682890647397    -0.414487404512    12.000000000000
         C            2.802119247811    -1.660129352603     0.522898595488    12.000000000000
         C           -1.127315752189    -1.115932352603    -0.307847404512    12.000000000000
         C           -1.744666752189     1.203778647397     0.082473595488    12.000000000000
         C           -2.417285752189    -1.504674352603    -0.104113404512    12.000000000000
         C           -3.361970752189    -0.473273352603     0.168939595488    12.000000000000
         H            3.334402247811     0.756671647397     1.451281595488     1.007825032230
         H            0.904728247811     0.443715647397     1.693917595488     1.007825032230
         H            0.985350247811     2.133953647397     1.158575595488     1.007825032230
         H            0.527475247811     1.513140647397    -1.124484404512     1.007825032230
         H            3.417513247811    -0.364396352603    -1.066197404512     1.007825032230
         H            1.970770247811    -1.733297352603     1.243651595488     1.007825032230
         H            3.746110247811    -1.609628352603     1.088717595488     1.007825032230
         H            3.103872247811     2.746210647397     0.178411595488     1.007825032230
         H           -0.310718752189    -1.789314352603    -0.543269404512     1.007825032230
         H            2.910051247811    -3.565185352603     0.119640595488     1.007825032230
         H           -2.703446752189    -2.549197352603    -0.152821404512     1.007825032230
         H           -5.028689752189    -1.637855352603    -0.056290404512     1.007825032230
         H           -5.304241052189     0.011621747397     0.289962995488     1.007825032230

  Basis Set: AUG-CC-PVTZ
    Blend: AUG-CC-PVTZ
  Basis Set: (AUG-CC-PVTZ AUX)
    Blend: AUG-CC-PVTZ-JKFIT
	 Reference Energy          =    -811.4772328332439884 [Eh]
	 Singles Energy            =      -0.0000000000000000 [Eh]
	 Same-Spin Energy          =      -0.8298763153688147 [Eh]
	 Opposite-Spin Energy      =      -2.5257617846672749 [Eh]
	 Correlation Energy        =      -3.3556381000360895 [Eh]
	 Total Energy              =    -814.8328709332801054 [Eh]

	 ================> DF-SCS-MP2 Energies <==================
	-----------------------------------------------------------
	 SCS Same-Spin Scale       =       0.3333333333333333 [-]
	 SCS Opposite-Spin Scale   =       1.2000000000000000 [-]
	 SCS Same-Spin Energy      =      -0.2766254384562715 [Eh]
	 SCS Opposite-Spin Energy  =      -3.0309141416007299 [Eh]
	 SCS Correlation Energy    =      -3.3075395800570013 [Eh]
	 SCS Total Energy          =    -814.7847724133009706 [Eh]
	-----------------------------------------------------------

  Dipole Moment: [D]
     X:     1.1445      Y:    -4.6553      Z:     2.3665     Total:     5.3462

*** Psi4 exiting successfully. Buy a developer a beer!
