                               Psi4 1.3.2 release

  ==> Input File <==

--------------------------------------------------------------------------
#psi4
#
memory 32 gb

molecule  {
0 1
  O        1.3620710    -0.3800110    -0.9318440
  O        3.2020570     1.9012130    -0.2995130
  O        2.7994070    -2.7489470    -0.4002010
  O       -1.3621860     2.3740050     0.1547830
  N       -0.7982440     0.1994180    -0.2292560
  N       -3.0541720     0.8052390     0.2400120
  N       -4.6734100    -0.8124350     0.4126370
  C        2.7015950     0.8755540     0.5594740
  C        1.2368440     1.1072260     0.8878520
  C        2.6518190    -0.3922910    -0.2854700
  C        0.5739580     0.6830040    -0.4149160
  C        2.8020980    -1.6600160     0.5224700
  C       -1.1273370    -1.1158190    -0.3082760
  C       -1.7446880     1.2038920     0.0820450
  C       -2.3781689    -1.5228989     0.0907320
  C       -3.3619920    -0.4731600     0.1685110
  H        3.3343810     0.7567850     1.4508530
  H        0.9047070     0.4438290     1.6934890
  H        0.9853290     2.1340670     1.1581470
  H        0.5274540     1.5132540    -1.1249130
  H        3.4174920    -0.3642830    -1.0666260
  H        1.9707490    -1.7331840     1.2432230
  H        3.7460890    -1.6095150     1.0882890
  H        3.1038510     2.7463240     0.1779830
  H       -0.3107400    -1.7892010    -0.5436980
  H        2.9100300    -3.5650720     0.1192120
  H       -2.7034680    -2.5490840    -0.1532500
  H       -5.0287110    -1.6377420    -0.0567190
  H       -5.2994710    -0.0137980     0.3861010
units angstrom
no_reorient  #important for SAPT in psi4, default
symmetry c1  #important for SAPT in psi4, default
}

set PROPERTIES_ORIGIN ["COM"]
properties('MP2/aug-cc-pvtz', properties = ['dipole'])
--------------------------------------------------------------------------

    Molecular point group: c1
  Charge       = 0
  Multiplicity = 1
  Basis Set: AUG-CC-PVTZ
    Blend: AUG-CC-PVTZ
  Basis Set: (AUG-CC-PVTZ AUX)
    Blend: AUG-CC-PVTZ-JKFIT

    Orbital Energies [Eh]
    ---------------------

    Doubly Occupied:

       1A    -20.577664     2A    -20.574591     3A    -20.573351
       4A    -20.504849     5A    -15.622982     6A    -15.588797
       7A    -15.541230     8A    -11.371165     9A    -11.346416
      10A    -11.331318    11A    -11.321512    12A    -11.301166
      13A    -11.296752    14A    -11.293303    15A    -11.239818
      16A    -11.237212    17A     -1.417177    18A     -1.383392
      19A     -1.373623    20A     -1.366047    21A     -1.292371
      22A     -1.262014    23A     -1.169529    24A     -1.078438
      25A     -1.067660    26A     -1.027228    27A     -0.926478
      28A     -0.896624    29A     -0.869227    30A     -0.830503
      31A     -0.806204    32A     -0.751980    33A     -0.737580
      34A     -0.720743    35A     -0.706550    36A     -0.693275
      37A     -0.689388    38A     -0.676762    39A     -0.656375
      40A     -0.634483    41A     -0.628329    42A     -0.615438
      43A     -0.604888    44A     -0.593898    45A     -0.587099
      46A     -0.570348    47A     -0.569269    48A     -0.544304
      49A     -0.532317    50A     -0.523276    51A     -0.510338
      52A     -0.486096    53A     -0.481479    54A     -0.468603
      55A     -0.461335    56A     -0.445044    57A     -0.437732
      58A     -0.417181    59A     -0.383815    60A     -0.335828

  @DF-RHF Final Energy:  -811.46974787305226

   => Energetics <=

    Nuclear Repulsion Energy =           1169.7012992750667308
    One-Electron Energy =               -3434.4373062143195057
    Two-Electron Energy =                1453.2662590662002913
    Total Energy =                       -811.4697478730522562
  Basis Set: (AUG-CC-PVTZ AUX)
    Blend: AUG-CC-PVTZ-RI
    Molecular point group: c1

    Geometry (in Angstrom), charge = 0, multiplicity = 1:

       Center              X                  Y                   Z               Mass
    ------------   -----------------  -----------------  -----------------  -----------------
         O            1.360002835128    -0.379042019424    -0.942162701728    15.994914619570
         O            3.199988835128     1.902181980576    -0.309831701728    15.994914619570
         O            2.797338835128    -2.747978019424    -0.410519701728    15.994914619570
         O           -1.364254164872     2.374973980576     0.144464298272    15.994914619570
         N           -0.800312164872     0.200386980576    -0.239574701728    14.003074004430
         N           -3.056240164872     0.806207980576     0.229693298272    14.003074004430
         N           -4.675478164872    -0.811466019424     0.402318298272    14.003074004430
         C            2.699526835128     0.876522980576     0.549155298272    12.000000000000
         C            1.234775835128     1.108194980576     0.877533298272    12.000000000000
         C            2.649750835128    -0.391322019424    -0.295788701728    12.000000000000
         C            0.571889835128     0.683972980576    -0.425234701728    12.000000000000
         C            2.800029835128    -1.659047019424     0.512151298272    12.000000000000
         C           -1.129405164872    -1.114850019424    -0.318594701728    12.000000000000
         C           -1.746756164872     1.204860980576     0.071726298272    12.000000000000
         C           -2.380237064872    -1.521929919424     0.080413298272    12.000000000000
         C           -3.364060164872    -0.472191019424     0.158192298272    12.000000000000
         H            3.332312835128     0.757753980576     1.440534298272     1.007825032230
         H            0.902638835128     0.444797980576     1.683170298272     1.007825032230
         H            0.983260835128     2.135035980576     1.147828298272     1.007825032230
         H            0.525385835128     1.514222980576    -1.135231701728     1.007825032230
         H            3.415423835128    -0.363314019424    -1.076944701728     1.007825032230
         H            1.968680835128    -1.732215019424     1.232904298272     1.007825032230
         H            3.744020835128    -1.608546019424     1.077970298272     1.007825032230
         H            3.101782835128     2.747292980576     0.167664298272     1.007825032230
         H           -0.312808164872    -1.788232019424    -0.554016701728     1.007825032230
         H            2.907961835128    -3.564103019424     0.108893298272     1.007825032230
         H           -2.705536164872    -2.548115019424    -0.163568701728     1.007825032230
         H           -5.030779164872    -1.636773019424    -0.067037701728     1.007825032230
         H           -5.301539164872    -0.012829019424     0.375782298272     1.007825032230

  Basis Set: AUG-CC-PVTZ
    Blend: AUG-CC-PVTZ
  Basis Set: (AUG-CC-PVTZ AUX)
    Blend: AUG-CC-PVTZ-JKFIT
	 Reference Energy          =    -811.4697478730522562 [Eh]
	 Singles Energy            =      -0.0000000000000000 [Eh]
	 Same-Spin Energy          =      -0.8299495304448919 [Eh]
	 Opposite-Spin Energy      =      -2.5261949230977661 [Eh]
	 Correlation Energy        =      -3.3561444535426581 [Eh]
	 Total Energy              =    -814.8258923265949534 [Eh]

	 ================> DF-SCS-MP2 Energies <==================
	-----------------------------------------------------------
	 SCS Same-Spin Scale       =       0.3333333333333333 [-]
	 SCS Opposite-Spin Scale   =       1.2000000000000000 [-]
	 SCS Same-Spin Energy      =      -0.2766498434816306 [Eh]
	 SCS Opposite-Spin Energy  =      -3.0314339077173194 [Eh]
	 SCS Correlation Energy    =      -3.3080837511989500 [Eh]
	 SCS Total Energy          =    -814.7778316242512346 [Eh]
	-----------------------------------------------------------

  Dipole Moment: [D]
     X:     1.0664      Y:    -4.5383      Z:     2.3400     Total:     5.2162

*** Psi4 exiting successfully. Buy a developer a beer!
