                               Psi4 1.3.2 release

  ==> Input File <==

--------------------------------------------------------------------------
#psi4
#
memory 32 gb

molecule  {
0 1
  O        1.3620710    -0.3800110    -0.9318440
  O        3.2020570     1.9012130    -0.2995130
  O        2.7994070    -2.7489470    -0.4002010
  O       -1.3621860     2.3740050     0.1547830
  N       -0.7982440     0.1994180    -0.2292560
  N       -3.0541720     0.8052390     0.2400120
  N       -4.6734100    -0.8124350     0.4126370
  C        2.7015950     0.8755540     0.5594740
  C        1.2368440     1.1072260     0.8878520
  C        2.6518190    -0.3922910    -0.2854700
  C        0.5739580     0.6830040    -0.4149160
  C        2.8020980    -1.6600160     0.5224700
  C       -1.1273370    -1.1158190    -0.3082760
  C       -1.7905126     1.2327632    -0.1620176
  C       -2.4173070    -1.5045610    -0.1045420
  C       -3.3619920    -0.4731600     0.1685110
  H        3.3343810     0.7567850     1.4508530
  H        0.9047070     0.4438290     1.6934890
  H        0.9853290     2.1340670     1.1581470
  H        0.5274540     1.5132540    -1.1249130
  H        3.4174920    -0.3642830    -1.0666260
  H        1.9707490    -1.7331840     1.2432230
  H        3.7460890    -1.6095150     1.0882890
  H        3.1038510     2.7463240     0.1779830
  H       -0.3107400    -1.7892010    -0.5436980
  H        2.9100300    -3.5650720     0.1192120
  H       -2.7034680    -2.5490840    -0.1532500
  H       -5.0287110    -1.6377420    -0.0567190
  H       -5.2994710    -0.0137980     0.3861010
units angstrom
no_reorient  #important for SAPT in psi4, default
symmetry c1  #important for SAPT in psi4, default
}

set PROPERTIES_ORIGIN ["COM"]
properties('MP2/aug-cc-pvtz', properties = ['dipole'])
--------------------------------------------------------------------------

    Molecular point group: c1
  Charge       = 0
  Multiplicity = 1
  Basis Set: AUG-CC-PVTZ
    Blend: AUG-CC-PVTZ
  Basis Set: (AUG-CC-PVTZ AUX)
    Blend: AUG-CC-PVTZ-JKFIT

    Orbital Energies [Eh]
    ---------------------

    Doubly Occupied:

       1A    -20.577173     2A    -20.573517     3A    -20.572014
       4A    -20.505853     5A    -15.622889     6A    -15.587577
       7A    -15.543375     8A    -11.377893     9A    -11.345274
      10A    -11.330052    11A    -11.317839    12A    -11.299620
      13A    -11.296077    14A    -11.292116    15A    -11.237943
      16A    -11.234979    17A     -1.415196    18A     -1.375024
      19A     -1.372883    20A     -1.362489    21A     -1.286521
      22A     -1.258465    23A     -1.165986    24A     -1.077393
      25A     -1.068224    26A     -1.026568    27A     -0.925790
      28A     -0.894491    29A     -0.866694    30A     -0.828780
      31A     -0.805662    32A     -0.751572    33A     -0.737713
      34A     -0.719269    35A     -0.706666    36A     -0.692248
      37A     -0.688802    38A     -0.674642    39A     -0.652074
      40A     -0.636429    41A     -0.627335    42A     -0.616595
      43A     -0.600560    44A     -0.592821    45A     -0.587064
      46A     -0.570284    47A     -0.567692    48A     -0.544120
      49A     -0.532225    50A     -0.522386    51A     -0.507732
      52A     -0.484568    53A     -0.479453    54A     -0.467595
      55A     -0.459540    56A     -0.443266    57A     -0.436048
      58A     -0.417452    59A     -0.377625    60A     -0.333714

  @DF-RHF Final Energy:  -811.44980700474946

   => Energetics <=

    Nuclear Repulsion Energy =           1168.4196106722627064
    One-Electron Energy =               -3431.9951475458597088
    Two-Electron Energy =                1452.1257298688476567
    Total Energy =                       -811.4498070047495730
  Basis Set: (AUG-CC-PVTZ AUX)
    Blend: AUG-CC-PVTZ-RI
    Molecular point group: c1

    Geometry (in Angstrom), charge = 0, multiplicity = 1:

       Center              X                  Y                   Z               Mass
    ------------   -----------------  -----------------  -----------------  -----------------
         O            1.364492463380    -0.381536658944    -0.918947125818    15.994914619570
         O            3.204478463380     1.899687341056    -0.286616125818    15.994914619570
         O            2.801828463380    -2.750472658944    -0.387304125818    15.994914619570
         O           -1.359764536620     2.372479341056     0.167679874182    15.994914619570
         N           -0.795822536620     0.197892341056    -0.216359125818    14.003074004430
         N           -3.051750536620     0.803713341056     0.252908874182    14.003074004430
         N           -4.670988536620    -0.813960658944     0.425533874182    14.003074004430
         C            2.704016463380     0.874028341056     0.572370874182    12.000000000000
         C            1.239265463380     1.105700341056     0.900748874182    12.000000000000
         C            2.654240463380    -0.393816658944    -0.272573125818    12.000000000000
         C            0.576379463380     0.681478341056    -0.402019125818    12.000000000000
         C            2.804519463380    -1.661541658944     0.535366874182    12.000000000000
         C           -1.124915536620    -1.117344658944    -0.295379125818    12.000000000000
         C           -1.788091136620     1.231237541056    -0.149120725818    12.000000000000
         C           -2.414885536620    -1.506086658944    -0.091645125818    12.000000000000
         C           -3.359570536620    -0.474685658944     0.181407874182    12.000000000000
         H            3.336802463380     0.755259341056     1.463749874182     1.007825032230
         H            0.907128463380     0.442303341056     1.706385874182     1.007825032230
         H            0.987750463380     2.132541341056     1.171043874182     1.007825032230
         H            0.529875463380     1.511728341056    -1.112016125818     1.007825032230
         H            3.419913463380    -0.365808658944    -1.053729125818     1.007825032230
         H            1.973170463380    -1.734709658944     1.256119874182     1.007825032230
         H            3.748510463380    -1.611040658944     1.101185874182     1.007825032230
         H            3.106272463380     2.744798341056     0.190879874182     1.007825032230
         H           -0.308318536620    -1.790726658944    -0.530801125818     1.007825032230
         H            2.912451463380    -3.566597658944     0.132108874182     1.007825032230
         H           -2.701046536620    -2.550609658944    -0.140353125818     1.007825032230
         H           -5.026289536620    -1.639267658944    -0.043822125818     1.007825032230
         H           -5.297049536620    -0.015323658944     0.398997874182     1.007825032230

  Basis Set: AUG-CC-PVTZ
    Blend: AUG-CC-PVTZ
  Basis Set: (AUG-CC-PVTZ AUX)
    Blend: AUG-CC-PVTZ-JKFIT
	 Reference Energy          =    -811.4498070047494593 [Eh]
	 Singles Energy            =      -0.0000000000000000 [Eh]
	 Same-Spin Energy          =      -0.8316593333985672 [Eh]
	 Opposite-Spin Energy      =      -2.5297896393859691 [Eh]
	 Correlation Energy        =      -3.3614489727845362 [Eh]
	 Total Energy              =    -814.8112559775339605 [Eh]

	 ================> DF-SCS-MP2 Energies <==================
	-----------------------------------------------------------
	 SCS Same-Spin Scale       =       0.3333333333333333 [-]
	 SCS Opposite-Spin Scale   =       1.2000000000000000 [-]
	 SCS Same-Spin Energy      =      -0.2772197777995224 [Eh]
	 SCS Opposite-Spin Energy  =      -3.0357475672631629 [Eh]
	 SCS Correlation Energy    =      -3.3129673450626851 [Eh]
	 SCS Total Energy          =    -814.7627743498121617 [Eh]
	-----------------------------------------------------------

  Dipole Moment: [D]
     X:     0.9903      Y:    -4.6631      Z:     2.2363     Total:     5.2656

*** Psi4 exiting successfully. Buy a developer a beer!
