                               Psi4 1.3.2 release

  ==> Input File <==

--------------------------------------------------------------------------
#psi4
#
memory 32 gb

molecule  {
0 1
  O        1.3620710    -0.3800110    -0.9318440
  O        3.2020570     1.9012130    -0.2995130
  O        2.7994070    -2.7489470    -0.4002010
  O       -1.3621860     2.3740050     0.1547830
  N       -0.7982440     0.1994180    -0.2292560
  N       -3.0541720     0.8052390     0.2400120
  N       -4.6734100    -0.8124350     0.4126370
  C        2.7015950     0.8755540     0.5594740
  C        1.2368440     1.1072260     0.8878520
  C        2.6518190    -0.3922910    -0.2854700
  C        0.5739580     0.6830040    -0.4149160
  C        2.8020980    -1.6600160     0.5224700
  C       -1.1273370    -1.1158190    -0.3082760
  C       -1.7446880     1.2038920     0.0820450
  C       -2.3977380    -1.5137299    -0.0069050
  C       -3.3619920    -0.4731600     0.1685110
  H        3.3343810     0.7567850     1.4508530
  H        0.9047070     0.4438290     1.6934890
  H        0.9853290     2.1340670     1.1581470
  H        0.5274540     1.5132540    -1.1249130
  H        3.4174920    -0.3642830    -1.0666260
  H        1.9707490    -1.7331840     1.2432230
  H        3.7460890    -1.6095150     1.0882890
  H        3.1038510     2.7463240     0.1779830
  H       -0.3107400    -1.7892010    -0.5436980
  H        2.9100300    -3.5650720     0.1192120
  H       -2.7034680    -2.5490840    -0.1532500
  H       -5.0287110    -1.6377420    -0.0567190
  H       -5.2994710    -0.0137980     0.3861010
units angstrom
no_reorient  #important for SAPT in psi4, default
symmetry c1  #important for SAPT in psi4, default
}

set PROPERTIES_ORIGIN ["COM"]
properties('MP2/aug-cc-pvtz', properties = ['dipole'])
--------------------------------------------------------------------------

    Molecular point group: c1
  Charge       = 0
  Multiplicity = 1
  Basis Set: AUG-CC-PVTZ
    Blend: AUG-CC-PVTZ
  Basis Set: (AUG-CC-PVTZ AUX)
    Blend: AUG-CC-PVTZ-JKFIT

    Orbital Energies [Eh]
    ---------------------

    Doubly Occupied:

       1A    -20.577642     2A    -20.574348     3A    -20.572944
       4A    -20.503503     5A    -15.621900     6A    -15.588614
       7A    -15.541019     8A    -11.370208     9A    -11.345415
      10A    -11.330805    11A    -11.318879    12A    -11.300878
      13A    -11.296722    14A    -11.293067    15A    -11.237722
      16A    -11.236821    17A     -1.416727    18A     -1.382643
      19A     -1.373510    20A     -1.365739    21A     -1.292272
      22A     -1.261562    23A     -1.169287    24A     -1.078772
      25A     -1.068632    26A     -1.027737    27A     -0.926635
      28A     -0.897145    29A     -0.869064    30A     -0.830654
      31A     -0.806277    32A     -0.753559    33A     -0.738306
      34A     -0.720781    35A     -0.706620    36A     -0.692924
      37A     -0.689207    38A     -0.676182    39A     -0.656621
      40A     -0.636420    41A     -0.627917    42A     -0.617460
      43A     -0.604656    44A     -0.594704    45A     -0.588036
      46A     -0.572108    47A     -0.568982    48A     -0.544516
      49A     -0.532506    50A     -0.523452    51A     -0.510264
      52A     -0.485856    53A     -0.481865    54A     -0.468474
      55A     -0.461149    56A     -0.444628    57A     -0.437829
      58A     -0.416740    59A     -0.383763    60A     -0.335130

  @DF-RHF Final Energy:  -811.47700139953906

   => Energetics <=

    Nuclear Repulsion Energy =           1169.9418312055624938
    One-Electron Energy =               -3434.9420738855819764
    Two-Electron Energy =                1453.5232412804803062
    Total Energy =                       -811.4770013995389490
  Basis Set: (AUG-CC-PVTZ AUX)
    Blend: AUG-CC-PVTZ-RI
    Molecular point group: c1

    Geometry (in Angstrom), charge = 0, multiplicity = 1:

       Center              X                  Y                   Z               Mass
    ------------   -----------------  -----------------  -----------------  -----------------
         O            1.361036912249    -0.379526530880    -0.937003333751    15.994914619570
         O            3.201022912249     1.901697469120    -0.304672333751    15.994914619570
         O            2.798372912249    -2.748462530880    -0.405360333751    15.994914619570
         O           -1.363220087751     2.374489469120     0.149623666249    15.994914619570
         N           -0.799278087751     0.199902469120    -0.234415333751    14.003074004430
         N           -3.055206087751     0.805723469120     0.234852666249    14.003074004430
         N           -4.674444087751    -0.811950530880     0.407477666249    14.003074004430
         C            2.700560912249     0.876038469120     0.554314666249    12.000000000000
         C            1.235809912249     1.107710469120     0.882692666249    12.000000000000
         C            2.650784912249    -0.391806530880    -0.290629333751    12.000000000000
         C            0.572923912249     0.683488469120    -0.420075333751    12.000000000000
         C            2.801063912249    -1.659531530880     0.517310666249    12.000000000000
         C           -1.128371087751    -1.115334530880    -0.313435333751    12.000000000000
         C           -1.745722087751     1.204376469120     0.076885666249    12.000000000000
         C           -2.398772087751    -1.513245430880    -0.012064333751    12.000000000000
         C           -3.363026087751    -0.472675530880     0.163351666249    12.000000000000
         H            3.333346912249     0.757269469120     1.445693666249     1.007825032230
         H            0.903672912249     0.444313469120     1.688329666249     1.007825032230
         H            0.984294912249     2.134551469120     1.152987666249     1.007825032230
         H            0.526419912249     1.513738469120    -1.130072333751     1.007825032230
         H            3.416457912249    -0.363798530880    -1.071785333751     1.007825032230
         H            1.969714912249    -1.732699530880     1.238063666249     1.007825032230
         H            3.745054912249    -1.609030530880     1.083129666249     1.007825032230
         H            3.102816912249     2.746808469120     0.172823666249     1.007825032230
         H           -0.311774087751    -1.788716530880    -0.548857333751     1.007825032230
         H            2.908995912249    -3.564587530880     0.114052666249     1.007825032230
         H           -2.704502087751    -2.548599530880    -0.158409333751     1.007825032230
         H           -5.029745087751    -1.637257530880    -0.061878333751     1.007825032230
         H           -5.300505087751    -0.013313530880     0.380941666249     1.007825032230

  Basis Set: AUG-CC-PVTZ
    Blend: AUG-CC-PVTZ
  Basis Set: (AUG-CC-PVTZ AUX)
    Blend: AUG-CC-PVTZ-JKFIT
	 Reference Energy          =    -811.4770013995390627 [Eh]
	 Singles Energy            =      -0.0000000000000000 [Eh]
	 Same-Spin Energy          =      -0.8297331922217822 [Eh]
	 Opposite-Spin Energy      =      -2.5253672048115408 [Eh]
	 Correlation Energy        =      -3.3551003970333229 [Eh]
	 Total Energy              =    -814.8321017965723740 [Eh]

	 ================> DF-SCS-MP2 Energies <==================
	-----------------------------------------------------------
	 SCS Same-Spin Scale       =       0.3333333333333333 [-]
	 SCS Opposite-Spin Scale   =       1.2000000000000000 [-]
	 SCS Same-Spin Energy      =      -0.2765777307405941 [Eh]
	 SCS Opposite-Spin Energy  =      -3.0304406457738486 [Eh]
	 SCS Correlation Energy    =      -3.3070183765144425 [Eh]
	 SCS Total Energy          =    -814.7840197760534693 [Eh]
	-----------------------------------------------------------

  Dipole Moment: [D]
     X:     1.0590      Y:    -4.6389      Z:     2.4141     Total:     5.3356

*** Psi4 exiting successfully. Buy a developer a beer!
