                               Psi4 1.3.2 release

  ==> Input File <==

--------------------------------------------------------------------------
#psi4
#
memory 32 gb

molecule  {
0 1
  O        1.3620710    -0.3800110    -0.9318440
  O        3.2020570     1.9012130    -0.2995130
  O        2.7994070    -2.7489470    -0.4002010
  O       -1.3621860     2.3740050     0.1547830
  N       -0.7982440     0.1994180    -0.2292560
  N       -3.0626059     0.8116808     0.1911512
  N       -4.6734100    -0.8124350     0.4126370
  C        2.7015950     0.8755540     0.5594740
  C        1.2368440     1.1072260     0.8878520
  C        2.6518190    -0.3922910    -0.2854700
  C        0.5739580     0.6830040    -0.4149160
  C        2.8020980    -1.6600160     0.5224700
  C       -1.1273370    -1.1158190    -0.3082760
  C       -1.7446880     1.2038920     0.0820450
  C       -2.4173070    -1.5045610    -0.1045420
  C       -3.3619920    -0.4731600     0.1685110
  H        3.3343810     0.7567850     1.4508530
  H        0.9047070     0.4438290     1.6934890
  H        0.9853290     2.1340670     1.1581470
  H        0.5274540     1.5132540    -1.1249130
  H        3.4174920    -0.3642830    -1.0666260
  H        1.9707490    -1.7331840     1.2432230
  H        3.7460890    -1.6095150     1.0882890
  H        3.1038510     2.7463240     0.1779830
  H       -0.3107400    -1.7892010    -0.5436980
  H        2.9100300    -3.5650720     0.1192120
  H       -2.7034680    -2.5490840    -0.1532500
  H       -5.0287110    -1.6377420    -0.0567190
  H       -5.2994710    -0.0137980     0.3861010
units angstrom
no_reorient  #important for SAPT in psi4, default
symmetry c1  #important for SAPT in psi4, default
}

set PROPERTIES_ORIGIN ["COM"]
properties('MP2/aug-cc-pvtz', properties = ['dipole'])
--------------------------------------------------------------------------

    Molecular point group: c1
  Charge       = 0
  Multiplicity = 1
  Basis Set: AUG-CC-PVTZ
    Blend: AUG-CC-PVTZ
  Basis Set: (AUG-CC-PVTZ AUX)
    Blend: AUG-CC-PVTZ-JKFIT

    Orbital Energies [Eh]
    ---------------------

    Doubly Occupied:

       1A    -20.577796     2A    -20.574392     3A    -20.572937
       4A    -20.503313     5A    -15.621803     6A    -15.588354
       7A    -15.541203     8A    -11.369930     9A    -11.345283
      10A    -11.330810    11A    -11.318300    12A    -11.300908
      13A    -11.296924    14A    -11.293129    15A    -11.237064
      16A    -11.236869    17A     -1.416707    18A     -1.382427
      19A     -1.373620    20A     -1.365753    21A     -1.291953
      22A     -1.261291    23A     -1.168527    24A     -1.079018
      25A     -1.068966    26A     -1.027996    27A     -0.926743
      28A     -0.897486    29A     -0.868440    30A     -0.830748
      31A     -0.806421    32A     -0.753806    33A     -0.738748
      34A     -0.721025    35A     -0.706942    36A     -0.692902
      37A     -0.689346    38A     -0.676038    39A     -0.656772
      40A     -0.637345    41A     -0.627146    42A     -0.618488
      43A     -0.604666    44A     -0.595141    45A     -0.588619
      46A     -0.573088    47A     -0.568600    48A     -0.544728
      49A     -0.531722    50A     -0.523649    51A     -0.510187
      52A     -0.485864    53A     -0.482516    54A     -0.468558
      55A     -0.461198    56A     -0.444432    57A     -0.438074
      58A     -0.416057    59A     -0.383961    60A     -0.334945

  @DF-RHF Final Energy:  -811.47852302063211

   => Energetics <=

    Nuclear Repulsion Energy =           1169.8104385561923664
    One-Electron Energy =               -3434.6785747051553699
    Two-Electron Energy =                1453.3896131283308932
    Total Energy =                       -811.4785230206321103
  Basis Set: (AUG-CC-PVTZ AUX)
    Blend: AUG-CC-PVTZ-RI
    Molecular point group: c1

    Geometry (in Angstrom), charge = 0, multiplicity = 1:

       Center              X                  Y                   Z               Mass
    ------------   -----------------  -----------------  -----------------  -----------------
         O            1.362591043141    -0.380408257367    -0.928831065282    15.994914619570
         O            3.202577043141     1.900815742633    -0.296500065282    15.994914619570
         O            2.799927043141    -2.749344257367    -0.397188065282    15.994914619570
         O           -1.361665956859     2.373607742633     0.157795934718    15.994914619570
         N           -0.797723956859     0.199020742633    -0.226243065282    14.003074004430
         N           -3.062085856859     0.811283542633     0.194164134718    14.003074004430
         N           -4.672889956859    -0.812832257367     0.415649934718    14.003074004430
         C            2.702115043141     0.875156742633     0.562486934718    12.000000000000
         C            1.237364043141     1.106828742633     0.890864934718    12.000000000000
         C            2.652339043141    -0.392688257367    -0.282457065282    12.000000000000
         C            0.574478043141     0.682606742633    -0.411903065282    12.000000000000
         C            2.802618043141    -1.660413257367     0.525482934718    12.000000000000
         C           -1.126816956859    -1.116216257367    -0.305263065282    12.000000000000
         C           -1.744167956859     1.203494742633     0.085057934718    12.000000000000
         C           -2.416786956859    -1.504958257367    -0.101529065282    12.000000000000
         C           -3.361471956859    -0.473557257367     0.171523934718    12.000000000000
         H            3.334901043141     0.756387742633     1.453865934718     1.007825032230
         H            0.905227043141     0.443431742633     1.696501934718     1.007825032230
         H            0.985849043141     2.133669742633     1.161159934718     1.007825032230
         H            0.527974043141     1.512856742633    -1.121900065282     1.007825032230
         H            3.418012043141    -0.364680257367    -1.063613065282     1.007825032230
         H            1.971269043141    -1.733581257367     1.246235934718     1.007825032230
         H            3.746609043141    -1.609912257367     1.091301934718     1.007825032230
         H            3.104371043141     2.745926742633     0.180995934718     1.007825032230
         H           -0.310219956859    -1.789598257367    -0.540685065282     1.007825032230
         H            2.910550043141    -3.565469257367     0.122224934718     1.007825032230
         H           -2.702947956859    -2.549481257367    -0.150237065282     1.007825032230
         H           -5.028190956859    -1.638139257367    -0.053706065282     1.007825032230
         H           -5.298950956859    -0.014195257367     0.389113934718     1.007825032230

  Basis Set: AUG-CC-PVTZ
    Blend: AUG-CC-PVTZ
  Basis Set: (AUG-CC-PVTZ AUX)
    Blend: AUG-CC-PVTZ-JKFIT
	 Reference Energy          =    -811.4785230206321103 [Eh]
	 Singles Energy            =      -0.0000000000000000 [Eh]
	 Same-Spin Energy          =      -0.8297220105626401 [Eh]
	 Opposite-Spin Energy      =      -2.5253026975976929 [Eh]
	 Correlation Energy        =      -3.3550247081603328 [Eh]
	 Total Energy              =    -814.8335477287924959 [Eh]

	 ================> DF-SCS-MP2 Energies <==================
	-----------------------------------------------------------
	 SCS Same-Spin Scale       =       0.3333333333333333 [-]
	 SCS Opposite-Spin Scale   =       1.2000000000000000 [-]
	 SCS Same-Spin Energy      =      -0.2765740035208800 [Eh]
	 SCS Opposite-Spin Energy  =      -3.0303632371172315 [Eh]
	 SCS Correlation Energy    =      -3.3069372406381117 [Eh]
	 SCS Total Energy          =    -814.7854602612702593 [Eh]
	-----------------------------------------------------------

  Dipole Moment: [D]
     X:     1.0944      Y:    -4.6815      Z:     2.5554     Total:     5.4447

*** Psi4 exiting successfully. Buy a developer a beer!
