                               Psi4 1.3.2 release

  ==> Input File <==

--------------------------------------------------------------------------
#psi4
#
memory 32 gb

molecule  {
0 1
  O        1.3620710    -0.3800110    -0.9318440
  O        3.2020570     1.9012130    -0.2995130
  O        2.7994070    -2.7489470    -0.4002010
  O       -1.3621860     2.3740050     0.1547830
  N       -0.7982440     0.1994180    -0.2292560
  N       -3.0541720     0.8052390     0.2400120
  N       -4.6734100    -0.8124350     0.4126370
  C        2.7015950     0.8755540     0.5594740
  C        1.2368440     1.1072260     0.8878520
  C        2.6518190    -0.3922910    -0.2854700
  C        0.5739580     0.6830040    -0.4149160
  C        2.8020980    -1.6600160     0.5224700
  C       -1.1273370    -1.1158190    -0.3082760
  C       -1.7446880     1.2038920     0.0820450
  C       -2.4173070    -1.5045610    -0.1045420
  C       -3.3619920    -0.4731600     0.1685110
  H        3.3343810     0.7567850     1.4508530
  H        0.9047070     0.4438290     1.6934890
  H        0.9853290     2.1340670     1.1581470
  H        0.5274540     1.5132540    -1.1249130
  H        3.4174920    -0.3642830    -1.0666260
  H        1.9707490    -1.7331840     1.2432230
  H        3.7460890    -1.6095150     1.0882890
  H        3.1038510     2.7463240     0.1779830
  H       -0.3107400    -1.7892010    -0.5436980
  H        2.9100300    -3.5650720     0.1192120
  H       -2.6761984    -2.5631908    -0.0064257
  H       -5.0287110    -1.6377420    -0.0567190
  H       -5.2994710    -0.0137980     0.3861010
units angstrom
no_reorient  #important for SAPT in psi4, default
symmetry c1  #important for SAPT in psi4, default
}

set PROPERTIES_ORIGIN ["COM"]
properties('MP2/aug-cc-pvtz', properties = ['dipole'])
--------------------------------------------------------------------------

    Molecular point group: c1
  Charge       = 0
  Multiplicity = 1
  Basis Set: AUG-CC-PVTZ
    Blend: AUG-CC-PVTZ
  Basis Set: (AUG-CC-PVTZ AUX)
    Blend: AUG-CC-PVTZ-JKFIT

    Orbital Energies [Eh]
    ---------------------

    Doubly Occupied:

       1A    -20.577875     2A    -20.574459     3A    -20.573008
       4A    -20.503248     5A    -15.621993     6A    -15.588196
       7A    -15.540812     8A    -11.370032     9A    -11.344971
      10A    -11.330874    11A    -11.318655    12A    -11.301023
      13A    -11.297022    14A    -11.293212    15A    -11.237618
      16A    -11.237017    17A     -1.416802    18A     -1.382583
      19A     -1.373697    20A     -1.365837    21A     -1.292275
      22A     -1.261488    23A     -1.169069    24A     -1.079041
      25A     -1.068909    26A     -1.027952    27A     -0.926853
      28A     -0.897458    29A     -0.868977    30A     -0.830666
      31A     -0.806495    32A     -0.754232    33A     -0.738377
      34A     -0.721087    35A     -0.706850    36A     -0.692988
      37A     -0.689349    38A     -0.675977    39A     -0.656030
      40A     -0.636102    41A     -0.626970    42A     -0.618169
      43A     -0.604839    44A     -0.595655    45A     -0.589217
      46A     -0.571658    47A     -0.568602    48A     -0.545029
      49A     -0.532827    50A     -0.524062    51A     -0.510545
      52A     -0.485952    53A     -0.481989    54A     -0.468614
      55A     -0.460953    56A     -0.444169    57A     -0.438658
      58A     -0.416172    59A     -0.383730    60A     -0.334879

  @DF-RHF Final Energy:  -811.47819203746155

   => Energetics <=

    Nuclear Repulsion Energy =           1169.9159076148087024
    One-Electron Energy =               -3434.8846083787343559
    Two-Electron Energy =                1453.4905087264644408
    Total Energy =                       -811.4781920374614401
  Basis Set: (AUG-CC-PVTZ AUX)
    Blend: AUG-CC-PVTZ-RI
    Molecular point group: c1

    Geometry (in Angstrom), charge = 0, multiplicity = 1:

       Center              X                  Y                   Z               Mass
    ------------   -----------------  -----------------  -----------------  -----------------
         O            1.361949961971    -0.379948431264    -0.932495570028    15.994914619570
         O            3.201935961971     1.901275568736    -0.300164570028    15.994914619570
         O            2.799285961971    -2.748884431264    -0.400852570028    15.994914619570
         O           -1.362307038029     2.374067568736     0.154131429972    15.994914619570
         N           -0.798365038029     0.199480568736    -0.229907570028    14.003074004430
         N           -3.054293038029     0.805301568736     0.239360429972    14.003074004430
         N           -4.673531038029    -0.812372431264     0.411985429972    14.003074004430
         C            2.701473961971     0.875616568736     0.558822429972    12.000000000000
         C            1.236722961971     1.107288568736     0.887200429972    12.000000000000
         C            2.651697961971    -0.392228431264    -0.286121570028    12.000000000000
         C            0.573836961971     0.683066568736    -0.415567570028    12.000000000000
         C            2.801976961971    -1.659953431264     0.521818429972    12.000000000000
         C           -1.127458038029    -1.115756431264    -0.308927570028    12.000000000000
         C           -1.744809038029     1.203954568736     0.081393429972    12.000000000000
         C           -2.417428038029    -1.504498431264    -0.105193570028    12.000000000000
         C           -3.362113038029    -0.473097431264     0.167859429972    12.000000000000
         H            3.334259961971     0.756847568736     1.450201429972     1.007825032230
         H            0.904585961971     0.443891568736     1.692837429972     1.007825032230
         H            0.985207961971     2.134129568736     1.157495429972     1.007825032230
         H            0.527332961971     1.513316568736    -1.125564570028     1.007825032230
         H            3.417370961971    -0.364220431264    -1.067277570028     1.007825032230
         H            1.970627961971    -1.733121431264     1.242571429972     1.007825032230
         H            3.745967961971    -1.609452431264     1.087637429972     1.007825032230
         H            3.103729961971     2.746386568736     0.177331429972     1.007825032230
         H           -0.310861038029    -1.789138431264    -0.544349570028     1.007825032230
         H            2.909908961971    -3.565009431264     0.118560429972     1.007825032230
         H           -2.676319438029    -2.563128231264    -0.007077270028     1.007825032230
         H           -5.028832038029    -1.637679431264    -0.057370570028     1.007825032230
         H           -5.299592038029    -0.013735431264     0.385449429972     1.007825032230

  Basis Set: AUG-CC-PVTZ
    Blend: AUG-CC-PVTZ
  Basis Set: (AUG-CC-PVTZ AUX)
    Blend: AUG-CC-PVTZ-JKFIT
	 Reference Energy          =    -811.4781920374615538 [Eh]
	 Singles Energy            =      -0.0000000000000000 [Eh]
	 Same-Spin Energy          =      -0.8297035941943830 [Eh]
	 Opposite-Spin Energy      =      -2.5252523745605684 [Eh]
	 Correlation Energy        =      -3.3549559687549513 [Eh]
	 Total Energy              =    -814.8331480062165610 [Eh]

	 ================> DF-SCS-MP2 Energies <==================
	-----------------------------------------------------------
	 SCS Same-Spin Scale       =       0.3333333333333333 [-]
	 SCS Opposite-Spin Scale   =       1.2000000000000000 [-]
	 SCS Same-Spin Energy      =      -0.2765678647314610 [Eh]
	 SCS Opposite-Spin Energy  =      -3.0303028494726818 [Eh]
	 SCS Correlation Energy    =      -3.3068707142041429 [Eh]
	 SCS Total Energy          =    -814.7850627516656914 [Eh]
	-----------------------------------------------------------

  Dipole Moment: [D]
     X:     1.1092      Y:    -4.6678      Z:     2.5989     Total:     5.4565

*** Psi4 exiting successfully. Buy a developer a beer!
