                               Psi4 1.3.2 release

  ==> Input File <==

--------------------------------------------------------------------------
#psi4
#
memory 32 gb

molecule  {
0 1
  O        1.3620710    -0.3800110    -0.9318440
  O        3.2020570     1.9012130    -0.2995130
  O        2.7994070    -2.7489470    -0.4002010
  O       -1.3621860     2.3740050     0.1547830
  N       -0.7982440     0.1994180    -0.2292560
  N       -3.0541720     0.8052390     0.2400120
  N       -4.6734100    -0.8124350     0.4126370
  C        2.7015950     0.8755540     0.5594740
  C        1.2368440     1.1072260     0.8878520
  C        2.6518190    -0.3922910    -0.2854700
  C        0.5739580     0.6830040    -0.4149160
  C        2.8020980    -1.6600160     0.5224700
  C       -1.1273370    -1.1158190    -0.3082760
  C       -1.7446880     1.2038920     0.0820450
  C       -2.4173070    -1.5045610    -0.1045420
  C       -3.3619920    -0.4731600     0.1685110
  H        3.3343810     0.7567850     1.4508530
  H        0.9047070     0.4438290     1.6934890
  H        0.9853290     2.1340670     1.1581470
  H        0.5274540     1.5132540    -1.1249130
  H        3.4174920    -0.3642830    -1.0666260
  H        1.9707490    -1.7331840     1.2432230
  H        3.7460890    -1.6095150     1.0882890
  H        3.1038510     2.7463240     0.1779830
  H       -0.2824083    -1.8054054    -0.3972920
  H        2.9100300    -3.5650720     0.1192120
  H       -2.7034680    -2.5490840    -0.1532500
  H       -5.0287110    -1.6377420    -0.0567190
  H       -5.2994710    -0.0137980     0.3861010
units angstrom
no_reorient  #important for SAPT in psi4, default
symmetry c1  #important for SAPT in psi4, default
}

set PROPERTIES_ORIGIN ["COM"]
properties('MP2/aug-cc-pvtz', properties = ['dipole'])
--------------------------------------------------------------------------

    Molecular point group: c1
  Charge       = 0
  Multiplicity = 1
  Basis Set: AUG-CC-PVTZ
    Blend: AUG-CC-PVTZ
  Basis Set: (AUG-CC-PVTZ AUX)
    Blend: AUG-CC-PVTZ-JKFIT

    Orbital Energies [Eh]
    ---------------------

    Doubly Occupied:

       1A    -20.578031     2A    -20.574374     3A    -20.572664
       4A    -20.503105     5A    -15.621599     6A    -15.588395
       7A    -15.540890     8A    -11.369955     9A    -11.345201
      10A    -11.330648    11A    -11.319623    12A    -11.300892
      13A    -11.297251    14A    -11.293093    15A    -11.237315
      16A    -11.236833    17A     -1.416534    18A     -1.382475
      19A     -1.373772    20A     -1.365752    21A     -1.292287
      22A     -1.261423    23A     -1.169164    24A     -1.078890
      25A     -1.069037    26A     -1.028066    27A     -0.926877
      28A     -0.896942    29A     -0.869009    30A     -0.830705
      31A     -0.806430    32A     -0.754344    33A     -0.738293
      34A     -0.721357    35A     -0.706549    36A     -0.692473
      37A     -0.689264    38A     -0.675084    39A     -0.657203
      40A     -0.637341    41A     -0.627276    42A     -0.618174
      43A     -0.604528    44A     -0.595976    45A     -0.587611
      46A     -0.572854    47A     -0.568746    48A     -0.545138
      49A     -0.532420    50A     -0.523569    51A     -0.510426
      52A     -0.486283    53A     -0.481906    54A     -0.468676
      55A     -0.461650    56A     -0.444207    57A     -0.437106
      58A     -0.416368    59A     -0.383793    60A     -0.335078

  @DF-RHF Final Energy:  -811.47757507410620

   => Energetics <=

    Nuclear Repulsion Energy =           1169.9671945898364811
    One-Electron Energy =               -3434.9876871107949228
    Two-Electron Energy =                1453.5429174468520159
    Total Energy =                       -811.4775750741061984
  Basis Set: (AUG-CC-PVTZ AUX)
    Blend: AUG-CC-PVTZ-RI
    Molecular point group: c1

    Geometry (in Angstrom), charge = 0, multiplicity = 1:

       Center              X                  Y                   Z               Mass
    ------------   -----------------  -----------------  -----------------  -----------------
         O            1.361945248386    -0.379939122143    -0.932493713619    15.994914619570
         O            3.201931248386     1.901284877857    -0.300162713619    15.994914619570
         O            2.799281248386    -2.748875122143    -0.400850713619    15.994914619570
         O           -1.362311751614     2.374076877857     0.154133286381    15.994914619570
         N           -0.798369751614     0.199489877857    -0.229905713619    14.003074004430
         N           -3.054297751614     0.805310877857     0.239362286381    14.003074004430
         N           -4.673535751614    -0.812363122143     0.411987286381    14.003074004430
         C            2.701469248386     0.875625877857     0.558824286381    12.000000000000
         C            1.236718248386     1.107297877857     0.887202286381    12.000000000000
         C            2.651693248386    -0.392219122143    -0.286119713619    12.000000000000
         C            0.573832248386     0.683075877857    -0.415565713619    12.000000000000
         C            2.801972248386    -1.659944122143     0.521820286381    12.000000000000
         C           -1.127462751614    -1.115747122143    -0.308925713619    12.000000000000
         C           -1.744813751614     1.203963877857     0.081395286381    12.000000000000
         C           -2.417432751614    -1.504489122143    -0.105191713619    12.000000000000
         C           -3.362117751614    -0.473088122143     0.167861286381    12.000000000000
         H            3.334255248386     0.756856877857     1.450203286381     1.007825032230
         H            0.904581248386     0.443900877857     1.692839286381     1.007825032230
         H            0.985203248386     2.134138877857     1.157497286381     1.007825032230
         H            0.527328248386     1.513325877857    -1.125562713619     1.007825032230
         H            3.417366248386    -0.364211122143    -1.067275713619     1.007825032230
         H            1.970623248386    -1.733112122143     1.242573286381     1.007825032230
         H            3.745963248386    -1.609443122143     1.087639286381     1.007825032230
         H            3.103725248386     2.746395877857     0.177333286381     1.007825032230
         H           -0.282534051614    -1.805333522143    -0.397941713619     1.007825032230
         H            2.909904248386    -3.565000122143     0.118562286381     1.007825032230
         H           -2.703593751614    -2.549012122143    -0.153899713619     1.007825032230
         H           -5.028836751614    -1.637670122143    -0.057368713619     1.007825032230
         H           -5.299596751614    -0.013726122143     0.385451286381     1.007825032230

  Basis Set: AUG-CC-PVTZ
    Blend: AUG-CC-PVTZ
  Basis Set: (AUG-CC-PVTZ AUX)
    Blend: AUG-CC-PVTZ-JKFIT
	 Reference Energy          =    -811.4775750741061984 [Eh]
	 Singles Energy            =      -0.0000000000000000 [Eh]
	 Same-Spin Energy          =      -0.8297737863965643 [Eh]
	 Opposite-Spin Energy      =      -2.5254336850073087 [Eh]
	 Correlation Energy        =      -3.3552074714038729 [Eh]
	 Total Energy              =    -814.8327825455100992 [Eh]

	 ================> DF-SCS-MP2 Energies <==================
	-----------------------------------------------------------
	 SCS Same-Spin Scale       =       0.3333333333333333 [-]
	 SCS Opposite-Spin Scale   =       1.2000000000000000 [-]
	 SCS Same-Spin Energy      =      -0.2765912621321881 [Eh]
	 SCS Opposite-Spin Energy  =      -3.0305204220087703 [Eh]
	 SCS Correlation Energy    =      -3.3071116841409585 [Eh]
	 SCS Total Energy          =    -814.7846867582471759 [Eh]
	-----------------------------------------------------------

  Dipole Moment: [D]
     X:     1.0795      Y:    -4.6794      Z:     2.5707     Total:     5.4470

*** Psi4 exiting successfully. Buy a developer a beer!
