                               Psi4 1.3.2 release

  ==> Input File <==

--------------------------------------------------------------------------
#psi4
#
memory 32 gb

molecule  {
0 1
  O        1.3620710    -0.3800110    -0.9318440
  O        3.2020570     1.9012130    -0.2995130
  O        2.7994070    -2.7489470    -0.4002010
  O       -1.3621860     2.3740050     0.1547830
  N       -0.7982440     0.1994180    -0.2292560
  N       -3.0541720     0.8052390     0.2400120
  N       -4.6734100    -0.8124350     0.4126370
  C        2.7015950     0.8755540     0.5594740
  C        1.2368440     1.1072260     0.8878520
  C        2.6518190    -0.3922910    -0.2854700
  C        0.5739580     0.6830040    -0.4149160
  C        2.8020980    -1.6600160     0.5224700
  C       -1.1273370    -1.1158190    -0.3082760
  C       -1.7630178     1.2154405    -0.0155800
  C       -2.4173070    -1.5045610    -0.1045420
  C       -3.3619920    -0.4731600     0.1685110
  H        3.3343810     0.7567850     1.4508530
  H        0.9047070     0.4438290     1.6934890
  H        0.9853290     2.1340670     1.1581470
  H        0.5274540     1.5132540    -1.1249130
  H        3.4174920    -0.3642830    -1.0666260
  H        1.9707490    -1.7331840     1.2432230
  H        3.7460890    -1.6095150     1.0882890
  H        3.1038510     2.7463240     0.1779830
  H       -0.3107400    -1.7892010    -0.5436980
  H        2.9100300    -3.5650720     0.1192120
  H       -2.7034680    -2.5490840    -0.1532500
  H       -5.0287110    -1.6377420    -0.0567190
  H       -5.2994710    -0.0137980     0.3861010
units angstrom
no_reorient  #important for SAPT in psi4, default
symmetry c1  #important for SAPT in psi4, default
}

set PROPERTIES_ORIGIN ["COM"]
properties('MP2/aug-cc-pvtz', properties = ['dipole'])
--------------------------------------------------------------------------

    Molecular point group: c1
  Charge       = 0
  Multiplicity = 1
  Basis Set: AUG-CC-PVTZ
    Blend: AUG-CC-PVTZ
  Basis Set: (AUG-CC-PVTZ AUX)
    Blend: AUG-CC-PVTZ-JKFIT

    Orbital Energies [Eh]
    ---------------------

    Doubly Occupied:

       1A    -20.577572     2A    -20.574037     3A    -20.572695
       4A    -20.503098     5A    -15.621984     6A    -15.588119
       7A    -15.541206     8A    -11.371098     9A    -11.345407
      10A    -11.330660    11A    -11.318401    12A    -11.300390
      13A    -11.296603    14A    -11.292769    15A    -11.237335
      16A    -11.236052    17A     -1.416343    18A     -1.380931
      19A     -1.373344    20A     -1.365182    21A     -1.291274
      22A     -1.261040    23A     -1.168944    24A     -1.078530
      25A     -1.068841    26A     -1.027740    27A     -0.926639
      28A     -0.897259    29A     -0.868600    30A     -0.830445
      31A     -0.806187    32A     -0.754393    33A     -0.738502
      34A     -0.720384    35A     -0.706704    36A     -0.692710
      37A     -0.689162    38A     -0.675593    39A     -0.655225
      40A     -0.636920    41A     -0.628133    42A     -0.618046
      43A     -0.603749    44A     -0.594620    45A     -0.588644
      46A     -0.572011    47A     -0.568637    48A     -0.544619
      49A     -0.532770    50A     -0.523330    51A     -0.509704
      52A     -0.485359    53A     -0.481859    54A     -0.468205
      55A     -0.460635    56A     -0.444196    57A     -0.437332
      58A     -0.417384    59A     -0.382159    60A     -0.334902

  @DF-RHF Final Energy:  -811.47562993243889

   => Energetics <=

    Nuclear Repulsion Energy =           1169.6025064416633086
    One-Electron Energy =               -3434.2870522599678225
    Two-Electron Energy =                1453.2089158858652809
    Total Energy =                       -811.4756299324390056
  Basis Set: (AUG-CC-PVTZ AUX)
    Blend: AUG-CC-PVTZ-RI
    Molecular point group: c1

    Geometry (in Angstrom), charge = 0, multiplicity = 1:

       Center              X                  Y                   Z               Mass
    ------------   -----------------  -----------------  -----------------  -----------------
         O            1.363039573690    -0.380621286865    -0.926685231905    15.994914619570
         O            3.203025573690     1.900602713135    -0.294354231905    15.994914619570
         O            2.800375573690    -2.749557286865    -0.395042231905    15.994914619570
         O           -1.361217426310     2.373394713135     0.159941768095    15.994914619570
         N           -0.797275426310     0.198807713135    -0.224097231905    14.003074004430
         N           -3.053203426310     0.804628713135     0.245170768095    14.003074004430
         N           -4.672441426310    -0.813045286865     0.417795768095    14.003074004430
         C            2.702563573690     0.874943713135     0.564632768095    12.000000000000
         C            1.237812573690     1.106615713135     0.893010768095    12.000000000000
         C            2.652787573690    -0.392901286865    -0.280311231905    12.000000000000
         C            0.574926573690     0.682393713135    -0.409757231905    12.000000000000
         C            2.803066573690    -1.660626286865     0.527628768095    12.000000000000
         C           -1.126368426310    -1.116429286865    -0.303117231905    12.000000000000
         C           -1.762049226310     1.214830213135    -0.010421231905    12.000000000000
         C           -2.416338426310    -1.505171286865    -0.099383231905    12.000000000000
         C           -3.361023426310    -0.473770286865     0.173669768095    12.000000000000
         H            3.335349573690     0.756174713135     1.456011768095     1.007825032230
         H            0.905675573690     0.443218713135     1.698647768095     1.007825032230
         H            0.986297573690     2.133456713135     1.163305768095     1.007825032230
         H            0.528422573690     1.512643713135    -1.119754231905     1.007825032230
         H            3.418460573690    -0.364893286865    -1.061467231905     1.007825032230
         H            1.971717573690    -1.733794286865     1.248381768095     1.007825032230
         H            3.747057573690    -1.610125286865     1.093447768095     1.007825032230
         H            3.104819573690     2.745713713135     0.183141768095     1.007825032230
         H           -0.309771426310    -1.789811286865    -0.538539231905     1.007825032230
         H            2.910998573690    -3.565682286865     0.124370768095     1.007825032230
         H           -2.702499426310    -2.549694286865    -0.148091231905     1.007825032230
         H           -5.027742426310    -1.638352286865    -0.051560231905     1.007825032230
         H           -5.298502426310    -0.014408286865     0.391259768095     1.007825032230

  Basis Set: AUG-CC-PVTZ
    Blend: AUG-CC-PVTZ
  Basis Set: (AUG-CC-PVTZ AUX)
    Blend: AUG-CC-PVTZ-JKFIT
	 Reference Energy          =    -811.4756299324388920 [Eh]
	 Singles Energy            =      -0.0000000000000000 [Eh]
	 Same-Spin Energy          =      -0.8298907632670148 [Eh]
	 Opposite-Spin Energy      =      -2.5256093127056625 [Eh]
	 Correlation Energy        =      -3.3555000759726772 [Eh]
	 Total Energy              =    -814.8311300084116056 [Eh]

	 ================> DF-SCS-MP2 Energies <==================
	-----------------------------------------------------------
	 SCS Same-Spin Scale       =       0.3333333333333333 [-]
	 SCS Opposite-Spin Scale   =       1.2000000000000000 [-]
	 SCS Same-Spin Energy      =      -0.2766302544223382 [Eh]
	 SCS Opposite-Spin Energy  =      -3.0307311752467947 [Eh]
	 SCS Correlation Energy    =      -3.3073614296691329 [Eh]
	 SCS Total Energy          =    -814.7829913621080777 [Eh]
	-----------------------------------------------------------

  Dipole Moment: [D]
     X:     1.0405      Y:    -4.6792      Z:     2.3806     Total:     5.3520

*** Psi4 exiting successfully. Buy a developer a beer!
