                               Psi4 1.3.2 release

  ==> Input File <==

--------------------------------------------------------------------------
#psi4
#
memory 32 gb

molecule  {
0 1
  O        1.3620710    -0.3800110    -0.9318440
  O        3.2020570     1.9012130    -0.2995130
  O        2.7994070    -2.7489470    -0.4002010
  O       -1.3621860     2.3740050     0.1547830
  N       -0.7982440     0.1994180    -0.2292560
  N       -3.0541720     0.8052390     0.2400120
  N       -4.6734100    -0.8124350     0.4126370
  C        2.7015950     0.8755540     0.5594740
  C        1.2368440     1.1072260     0.8878520
  C        2.6518190    -0.3922910    -0.2854700
  C        0.5739580     0.6830040    -0.4149160
  C        2.8020980    -1.6600160     0.5224700
  C       -1.1273370    -1.1158190    -0.3082760
  C       -1.7721827     1.2212147    -0.0643926
  C       -2.4173070    -1.5045610    -0.1045420
  C       -3.3619920    -0.4731600     0.1685110
  H        3.3343810     0.7567850     1.4508530
  H        0.9047070     0.4438290     1.6934890
  H        0.9853290     2.1340670     1.1581470
  H        0.5274540     1.5132540    -1.1249130
  H        3.4174920    -0.3642830    -1.0666260
  H        1.9707490    -1.7331840     1.2432230
  H        3.7460890    -1.6095150     1.0882890
  H        3.1038510     2.7463240     0.1779830
  H       -0.3107400    -1.7892010    -0.5436980
  H        2.9100300    -3.5650720     0.1192120
  H       -2.7034680    -2.5490840    -0.1532500
  H       -5.0287110    -1.6377420    -0.0567190
  H       -5.2994710    -0.0137980     0.3861010
units angstrom
no_reorient  #important for SAPT in psi4, default
symmetry c1  #important for SAPT in psi4, default
}

set PROPERTIES_ORIGIN ["COM"]
properties('MP2/aug-cc-pvtz', properties = ['dipole'])
--------------------------------------------------------------------------

    Molecular point group: c1
  Charge       = 0
  Multiplicity = 1
  Basis Set: AUG-CC-PVTZ
    Blend: AUG-CC-PVTZ
  Basis Set: (AUG-CC-PVTZ AUX)
    Blend: AUG-CC-PVTZ-JKFIT

    Orbital Energies [Eh]
    ---------------------

    Doubly Occupied:

       1A    -20.577455     2A    -20.573871     3A    -20.572520
       4A    -20.503665     5A    -15.622227     6A    -15.587964
       7A    -15.541737     8A    -11.372755     9A    -11.345456
      10A    -11.330522    11A    -11.318310    12A    -11.300140
      13A    -11.296444    14A    -11.292575    15A    -11.237517
      16A    -11.235686    17A     -1.416035    18A     -1.379327
      19A     -1.373205    20A     -1.364637    21A     -1.290094
      22A     -1.260465    23A     -1.168310    24A     -1.078208
      25A     -1.068698    26A     -1.027457    27A     -0.926437
      28A     -0.896644    29A     -0.868148    30A     -0.830029
      31A     -0.806044    32A     -0.753863    33A     -0.738296
      34A     -0.720046    35A     -0.706678    36A     -0.692594
      37A     -0.689066    38A     -0.675363    39A     -0.654312
      40A     -0.636780    41A     -0.628065    42A     -0.617630
      43A     -0.602916    44A     -0.594197    45A     -0.588335
      46A     -0.571518    47A     -0.568437    48A     -0.544473
      49A     -0.532703    50A     -0.523053    51A     -0.509153
      52A     -0.485096    53A     -0.481317    54A     -0.468022
      55A     -0.460320    56A     -0.443944    57A     -0.436974
      58A     -0.417622    59A     -0.380906    60A     -0.334659

  @DF-RHF Final Energy:  -811.46972042497475

   => Energetics <=

    Nuclear Repulsion Energy =           1169.2962823062994175
    One-Electron Energy =               -3433.6941639376668718
    Two-Electron Energy =                1452.9281612063928151
    Total Energy =                       -811.4697204249746392
  Basis Set: (AUG-CC-PVTZ AUX)
    Blend: AUG-CC-PVTZ-RI
    Molecular point group: c1

    Geometry (in Angstrom), charge = 0, multiplicity = 1:

       Center              X                  Y                   Z               Mass
    ------------   -----------------  -----------------  -----------------  -----------------
         O            1.363523868492    -0.380926409130    -0.924105859687    15.994914619570
         O            3.203509868492     1.900297590870    -0.291774859687    15.994914619570
         O            2.800859868492    -2.749862409130    -0.392462859687    15.994914619570
         O           -1.360733131508     2.373089590870     0.162521140313    15.994914619570
         N           -0.796791131508     0.198502590870    -0.221517859687    14.003074004430
         N           -3.052719131508     0.804323590870     0.247750140313    14.003074004430
         N           -4.671957131508    -0.813350409130     0.420375140313    14.003074004430
         C            2.703047868492     0.874638590870     0.567212140313    12.000000000000
         C            1.238296868492     1.106310590870     0.895590140313    12.000000000000
         C            2.653271868492    -0.393206409130    -0.277731859687    12.000000000000
         C            0.575410868492     0.682088590870    -0.407177859687    12.000000000000
         C            2.803550868492    -1.660931409130     0.530208140313    12.000000000000
         C           -1.125884131508    -1.116734409130    -0.300537859687    12.000000000000
         C           -1.770729831508     1.220299290870    -0.056654459687    12.000000000000
         C           -2.415854131508    -1.505476409130    -0.096803859687    12.000000000000
         C           -3.360539131508    -0.474075409130     0.176249140313    12.000000000000
         H            3.335833868492     0.755869590870     1.458591140313     1.007825032230
         H            0.906159868492     0.442913590870     1.701227140313     1.007825032230
         H            0.986781868492     2.133151590870     1.165885140313     1.007825032230
         H            0.528906868492     1.512338590870    -1.117174859687     1.007825032230
         H            3.418944868492    -0.365198409130    -1.058887859687     1.007825032230
         H            1.972201868492    -1.734099409130     1.250961140313     1.007825032230
         H            3.747541868492    -1.610430409130     1.096027140313     1.007825032230
         H            3.105303868492     2.745408590870     0.185721140313     1.007825032230
         H           -0.309287131508    -1.790116409130    -0.535959859687     1.007825032230
         H            2.911482868492    -3.565987409130     0.126950140313     1.007825032230
         H           -2.702015131508    -2.549999409130    -0.145511859687     1.007825032230
         H           -5.027258131508    -1.638657409130    -0.048980859687     1.007825032230
         H           -5.298018131508    -0.014713409130     0.393839140313     1.007825032230

  Basis Set: AUG-CC-PVTZ
    Blend: AUG-CC-PVTZ
  Basis Set: (AUG-CC-PVTZ AUX)
    Blend: AUG-CC-PVTZ-JKFIT
	 Reference Energy          =    -811.4697204249747529 [Eh]
	 Singles Energy            =      -0.0000000000000000 [Eh]
	 Same-Spin Energy          =      -0.8302917431914926 [Eh]
	 Opposite-Spin Energy      =      -2.5265030639482986 [Eh]
	 Correlation Energy        =      -3.3567948071397913 [Eh]
	 Total Energy              =    -814.8265152321145024 [Eh]

	 ================> DF-SCS-MP2 Energies <==================
	-----------------------------------------------------------
	 SCS Same-Spin Scale       =       0.3333333333333333 [-]
	 SCS Opposite-Spin Scale   =       1.2000000000000000 [-]
	 SCS Same-Spin Energy      =      -0.2767639143971642 [Eh]
	 SCS Opposite-Spin Energy  =      -3.0318036767379581 [Eh]
	 SCS Correlation Energy    =      -3.3085675911351222 [Eh]
	 SCS Total Energy          =    -814.7782880161098547 [Eh]
	-----------------------------------------------------------

  Dipole Moment: [D]
     X:     1.0232      Y:    -4.6757      Z:     2.3289     Total:     5.3228

*** Psi4 exiting successfully. Buy a developer a beer!
