                               Psi4 1.3.2 release

  ==> Input File <==

--------------------------------------------------------------------------
#psi4
#
memory 32 gb

molecule  {
0 1
  O        1.3620710    -0.3800110    -0.9318440
  O        3.2020570     1.9012130    -0.2995130
  O        2.7994070    -2.7489470    -0.4002010
  O       -1.3621860     2.3740050     0.1547830
  N       -0.7982440     0.1994180    -0.2292560
  N       -3.0541720     0.8052390     0.2400120
  N       -4.6734100    -0.8124350     0.4126370
  C        2.7015950     0.8755540     0.5594740
  C        1.2368440     1.1072260     0.8878520
  C        2.6518190    -0.3922910    -0.2854700
  C        0.5739580     0.6830040    -0.4149160
  C        2.8020980    -1.6600160     0.5224700
  C       -1.1273370    -1.1158190    -0.3082760
  C       -1.7446880     1.2038920     0.0820450
  C       -2.4173070    -1.5045610    -0.1045420
  C       -3.3619920    -0.4731600     0.1685110
  H        3.3343810     0.7567850     1.4508530
  H        0.9047070     0.4438290     1.6934890
  H        0.9853290     2.1340670     1.1581470
  H        0.5274540     1.5132540    -1.1249130
  H        3.4174920    -0.3642830    -1.0666260
  H        1.9707490    -1.7331840     1.2432230
  H        3.7460890    -1.6095150     1.0882890
  H        3.1038510     2.7463240     0.1779830
  H       -0.3107400    -1.7892010    -0.5436980
  H        2.9100300    -3.5650720     0.1192120
  H       -2.6489289    -2.5772976     0.1403986
  H       -5.0287110    -1.6377420    -0.0567190
  H       -5.2994710    -0.0137980     0.3861010
units angstrom
no_reorient  #important for SAPT in psi4, default
symmetry c1  #important for SAPT in psi4, default
}

set PROPERTIES_ORIGIN ["COM"]
properties('MP2/aug-cc-pvtz', properties = ['dipole'])
--------------------------------------------------------------------------

    Molecular point group: c1
  Charge       = 0
  Multiplicity = 1
  Basis Set: AUG-CC-PVTZ
    Blend: AUG-CC-PVTZ
  Basis Set: (AUG-CC-PVTZ AUX)
    Blend: AUG-CC-PVTZ-JKFIT

    Orbital Energies [Eh]
    ---------------------

    Doubly Occupied:

       1A    -20.578055     2A    -20.574704     3A    -20.573312
       4A    -20.503864     5A    -15.622729     6A    -15.587975
       7A    -15.540969     8A    -11.370499     9A    -11.344967
      10A    -11.331237    11A    -11.319570    12A    -11.301330
      13A    -11.297268    14A    -11.293475    15A    -11.239695
      16A    -11.237439    17A     -1.417143    18A     -1.383032
      19A     -1.373906    20A     -1.366112    21A     -1.292521
      22A     -1.261749    23A     -1.169112    24A     -1.079154
      25A     -1.068799    26A     -1.027861    27A     -0.926970
      28A     -0.897466    29A     -0.869014    30A     -0.830401
      31A     -0.806750    32A     -0.754333    33A     -0.737392
      34A     -0.721193    35A     -0.707011    36A     -0.693240
      37A     -0.689524    38A     -0.676146    39A     -0.655239
      40A     -0.634284    41A     -0.626206    42A     -0.616121
      43A     -0.605206    44A     -0.596168    45A     -0.589649
      46A     -0.570650    47A     -0.567388    48A     -0.545285
      49A     -0.533126    50A     -0.524401    51A     -0.510765
      52A     -0.486183    53A     -0.481998    54A     -0.468811
      55A     -0.460926    56A     -0.444030    57A     -0.439498
      58A     -0.416160    59A     -0.383775    60A     -0.334897

  @DF-RHF Final Energy:  -811.47408489544330

   => Energetics <=

    Nuclear Repulsion Energy =           1169.8120196168185885
    One-Electron Energy =               -3434.6588403231930897
    Two-Electron Energy =                1453.3727358109308625
    Total Energy =                       -811.4740848954434114
  Basis Set: (AUG-CC-PVTZ AUX)
    Blend: AUG-CC-PVTZ-RI
    Molecular point group: c1

    Geometry (in Angstrom), charge = 0, multiplicity = 1:

       Center              X                  Y                   Z               Mass
    ------------   -----------------  -----------------  -----------------  -----------------
         O            1.361828940300    -0.379885825476    -0.933147174282    15.994914619570
         O            3.201814940300     1.901338174524    -0.300816174282    15.994914619570
         O            2.799164940300    -2.748821825476    -0.401504174282    15.994914619570
         O           -1.362428059700     2.374130174524     0.153479825718    15.994914619570
         N           -0.798486059700     0.199543174524    -0.230559174282    14.003074004430
         N           -3.054414059700     0.805364174524     0.238708825718    14.003074004430
         N           -4.673652059700    -0.812309825476     0.411333825718    14.003074004430
         C            2.701352940300     0.875679174524     0.558170825718    12.000000000000
         C            1.236601940300     1.107351174524     0.886548825718    12.000000000000
         C            2.651576940300    -0.392165825476    -0.286773174282    12.000000000000
         C            0.573715940300     0.683129174524    -0.416219174282    12.000000000000
         C            2.801855940300    -1.659890825476     0.521166825718    12.000000000000
         C           -1.127579059700    -1.115693825476    -0.309579174282    12.000000000000
         C           -1.744930059700     1.204017174524     0.080741825718    12.000000000000
         C           -2.417549059700    -1.504435825476    -0.105845174282    12.000000000000
         C           -3.362234059700    -0.473034825476     0.167207825718    12.000000000000
         H            3.334138940300     0.756910174524     1.449549825718     1.007825032230
         H            0.904464940300     0.443954174524     1.692185825718     1.007825032230
         H            0.985086940300     2.134192174524     1.156843825718     1.007825032230
         H            0.527211940300     1.513379174524    -1.126216174282     1.007825032230
         H            3.417249940300    -0.364157825476    -1.067929174282     1.007825032230
         H            1.970506940300    -1.733058825476     1.241919825718     1.007825032230
         H            3.745846940300    -1.609389825476     1.086985825718     1.007825032230
         H            3.103608940300     2.746449174524     0.176679825718     1.007825032230
         H           -0.310982059700    -1.789075825476    -0.545001174282     1.007825032230
         H            2.909787940300    -3.564946825476     0.117908825718     1.007825032230
         H           -2.649170959700    -2.577172425476     0.139095425718     1.007825032230
         H           -5.028953059700    -1.637616825476    -0.058022174282     1.007825032230
         H           -5.299713059700    -0.013672825476     0.384797825718     1.007825032230

  Basis Set: AUG-CC-PVTZ
    Blend: AUG-CC-PVTZ
  Basis Set: (AUG-CC-PVTZ AUX)
    Blend: AUG-CC-PVTZ-JKFIT
	 Reference Energy          =    -811.4740848954432977 [Eh]
	 Singles Energy            =      -0.0000000000000000 [Eh]
	 Same-Spin Energy          =      -0.8298354839341360 [Eh]
	 Opposite-Spin Energy      =      -2.5256157133026247 [Eh]
	 Correlation Energy        =      -3.3554511972367607 [Eh]
	 Total Energy              =    -814.8295360926800868 [Eh]

	 ================> DF-SCS-MP2 Energies <==================
	-----------------------------------------------------------
	 SCS Same-Spin Scale       =       0.3333333333333333 [-]
	 SCS Opposite-Spin Scale   =       1.2000000000000000 [-]
	 SCS Same-Spin Energy      =      -0.2766118279780453 [Eh]
	 SCS Opposite-Spin Energy  =      -3.0307388559631496 [Eh]
	 SCS Correlation Energy    =      -3.3073506839411948 [Eh]
	 SCS Total Energy          =    -814.7814355793844925 [Eh]
	-----------------------------------------------------------

  Dipole Moment: [D]
     X:     1.1587      Y:    -4.6154      Z:     2.7076     Total:     5.4750

*** Psi4 exiting successfully. Buy a developer a beer!
