                               Psi4 1.3.2 release

  ==> Input File <==

--------------------------------------------------------------------------
#psi4
#
memory 32 gb

molecule  {
0 1
  O        1.3620710    -0.3800110    -0.9318440
  O        3.2020570     1.9012130    -0.2995130
  O        2.7994070    -2.7489470    -0.4002010
  O       -1.3621860     2.3740050     0.1547830
  N       -0.7982440     0.1994180    -0.2292560
  N       -3.0541720     0.8052390     0.2400120
  N       -4.6734100    -0.8124350     0.4126370
  C        2.7015950     0.8755540     0.5594740
  C        1.2368440     1.1072260     0.8878520
  C        2.6518190    -0.3922910    -0.2854700
  C        0.5739580     0.6830040    -0.4149160
  C        2.8020980    -1.6600160     0.5224700
  C       -1.1273370    -1.1158190    -0.3082760
  C       -1.7446880     1.2038920     0.0820450
  C       -2.4173070    -1.5045610    -0.1045420
  C       -3.3619920    -0.4731600     0.1685110
  H        3.3343810     0.7567850     1.4508530
  H        0.9047070     0.4438290     1.6934890
  H        0.9853290     2.1340670     1.1581470
  H        0.5274540     1.5132540    -1.1249130
  H        3.4174920    -0.3642830    -1.0666260
  H        1.9707490    -1.7331840     1.2432230
  H        3.7460890    -1.6095150     1.0882890
  H        3.1038510     2.7463240     0.1779830
  H       -0.3107400    -1.7892010    -0.5436980
  H        2.9100300    -3.5650720     0.1192120
  H       -2.7034680    -2.5490840    -0.1532500
  H       -5.0287110    -1.6377420    -0.0567190
  H       -5.2994710    -0.0137980     0.3861010
units angstrom
no_reorient  #important for SAPT in psi4, default
symmetry c1  #important for SAPT in psi4, default
}

set PROPERTIES_ORIGIN ["COM"]
properties('MP2/aug-cc-pvtz', properties = ['dipole'])
--------------------------------------------------------------------------

    Molecular point group: c1
  Charge       = 0
  Multiplicity = 1
  Basis Set: AUG-CC-PVTZ
    Blend: AUG-CC-PVTZ
  Basis Set: (AUG-CC-PVTZ AUX)
    Blend: AUG-CC-PVTZ-JKFIT

    Orbital Energies [Eh]
    ---------------------

    Doubly Occupied:

       1A    -20.577753     2A    -20.574342     3A    -20.572882
       4A    -20.503039     5A    -15.621722     6A    -15.588348
       7A    -15.540789     8A    -11.369886     9A    -11.345026
      10A    -11.330736    11A    -11.318277    12A    -11.300857
      13A    -11.296866    14A    -11.293076    15A    -11.237012
      16A    -11.236787    17A     -1.416659    18A     -1.382421
      19A     -1.373575    20A     -1.365709    21A     -1.292217
      22A     -1.261415    23A     -1.169100    24A     -1.078981
      25A     -1.068927    26A     -1.027959    27A     -0.926786
      28A     -0.897454    29A     -0.868977    30A     -0.830798
      31A     -0.806368    32A     -0.754225    33A     -0.738726
      34A     -0.720951    35A     -0.706793    36A     -0.692828
      37A     -0.689258    38A     -0.675794    39A     -0.656605
      40A     -0.637139    41A     -0.627591    42A     -0.618508
      43A     -0.604584    44A     -0.595103    45A     -0.588685
      46A     -0.572768    47A     -0.568753    48A     -0.544856
      49A     -0.532519    50A     -0.523731    51A     -0.510405
      52A     -0.485875    53A     -0.482078    54A     -0.468503
      55A     -0.461113    56A     -0.444459    57A     -0.437837
      58A     -0.416332    59A     -0.383730    60A     -0.334923

  @DF-RHF Final Energy:  -811.47938326409610

   => Energetics <=

    Nuclear Repulsion Energy =           1169.9390323923289543
    One-Electron Energy =               -3434.9380007550748815
    Two-Electron Energy =                1453.5195850986499408
    Total Energy =                       -811.4793832640959863
  Basis Set: (AUG-CC-PVTZ AUX)
    Blend: AUG-CC-PVTZ-RI
    Molecular point group: c1

    Geometry (in Angstrom), charge = 0, multiplicity = 1:

       Center              X                  Y                   Z               Mass
    ------------   -----------------  -----------------  -----------------  -----------------
         O            1.362070984086    -0.380011037051    -0.931843965774    15.994914619570
         O            3.202056984086     1.901212962949    -0.299512965774    15.994914619570
         O            2.799406984086    -2.748947037051    -0.400200965774    15.994914619570
         O           -1.362186015914     2.374004962949     0.154783034226    15.994914619570
         N           -0.798244015914     0.199417962949    -0.229255965774    14.003074004430
         N           -3.054172015914     0.805238962949     0.240012034226    14.003074004430
         N           -4.673410015914    -0.812435037051     0.412637034226    14.003074004430
         C            2.701594984086     0.875553962949     0.559474034226    12.000000000000
         C            1.236843984086     1.107225962949     0.887852034226    12.000000000000
         C            2.651818984086    -0.392291037051    -0.285469965774    12.000000000000
         C            0.573957984086     0.683003962949    -0.414915965774    12.000000000000
         C            2.802097984086    -1.660016037051     0.522470034226    12.000000000000
         C           -1.127337015914    -1.115819037051    -0.308275965774    12.000000000000
         C           -1.744688015914     1.203891962949     0.082045034226    12.000000000000
         C           -2.417307015914    -1.504561037051    -0.104541965774    12.000000000000
         C           -3.361992015914    -0.473160037051     0.168511034226    12.000000000000
         H            3.334380984086     0.756784962949     1.450853034226     1.007825032230
         H            0.904706984086     0.443828962949     1.693489034226     1.007825032230
         H            0.985328984086     2.134066962949     1.158147034226     1.007825032230
         H            0.527453984086     1.513253962949    -1.124912965774     1.007825032230
         H            3.417491984086    -0.364283037051    -1.066625965774     1.007825032230
         H            1.970748984086    -1.733184037051     1.243223034226     1.007825032230
         H            3.746088984086    -1.609515037051     1.088289034226     1.007825032230
         H            3.103850984086     2.746323962949     0.177983034226     1.007825032230
         H           -0.310740015914    -1.789201037051    -0.543697965774     1.007825032230
         H            2.910029984086    -3.565072037051     0.119212034226     1.007825032230
         H           -2.703468015914    -2.549084037051    -0.153249965774     1.007825032230
         H           -5.028711015914    -1.637742037051    -0.056718965774     1.007825032230
         H           -5.299471015914    -0.013798037051     0.386101034226     1.007825032230

  Basis Set: AUG-CC-PVTZ
    Blend: AUG-CC-PVTZ
  Basis Set: (AUG-CC-PVTZ AUX)
    Blend: AUG-CC-PVTZ-JKFIT
	 Reference Energy          =    -811.4793832640961000 [Eh]
	 Singles Energy            =      -0.0000000000000000 [Eh]
	 Same-Spin Energy          =      -0.8296553332787152 [Eh]
	 Opposite-Spin Energy      =      -2.5251433741992466 [Eh]
	 Correlation Energy        =      -3.3547987074779617 [Eh]
	 Total Energy              =    -814.8341819715740257 [Eh]

	 ================> DF-SCS-MP2 Energies <==================
	-----------------------------------------------------------
	 SCS Same-Spin Scale       =       0.3333333333333333 [-]
	 SCS Opposite-Spin Scale   =       1.2000000000000000 [-]
	 SCS Same-Spin Energy      =      -0.2765517777595717 [Eh]
	 SCS Opposite-Spin Energy  =      -3.0301720490390958 [Eh]
	 SCS Correlation Energy    =      -3.3067238267986676 [Eh]
	 SCS Total Energy          =    -814.7861070908948022 [Eh]
	-----------------------------------------------------------

  Dipole Moment: [D]
     X:     1.0750      Y:    -4.6786      Z:     2.4894     Total:     5.4076

*** Psi4 exiting successfully. Buy a developer a beer!
