                               Psi4 1.3.2 release

  ==> Input File <==

--------------------------------------------------------------------------
#psi4
#
memory 32 gb

molecule  {
0 1
  O        1.3620710    -0.3800110    -0.9318440
  O        3.2020570     1.9012130    -0.2995130
  O        2.7994070    -2.7489470    -0.4002010
  O       -1.3621860     2.3740050     0.1547830
  N       -0.7982440     0.1994180    -0.2292560
  N       -3.0541720     0.8052390     0.2400120
  N       -4.6734100    -0.8124350     0.4126370
  C        2.7015950     0.8755540     0.5594740
  C        1.2368440     1.1072260     0.8878520
  C        2.6518190    -0.3922910    -0.2854700
  C        0.5739580     0.6830040    -0.4149160
  C        2.8020980    -1.6600160     0.5224700
  C       -1.1273370    -1.1158190    -0.3082760
  C       -1.7446880     1.2038920     0.0820450
  C       -2.4173070    -1.5045610    -0.1045420
  C       -3.3619920    -0.4731600     0.1685110
  H        3.3343810     0.7567850     1.4508530
  H        0.9047070     0.4438290     1.6934890
  H        0.9853290     2.1340670     1.1581470
  H        0.5274540     1.5132540    -1.1249130
  H        3.4174920    -0.3642830    -1.0666260
  H        1.9707490    -1.7331840     1.2432230
  H        3.7460890    -1.6095150     1.0882890
  H        3.1038510     2.7463240     0.1779830
  H       -0.3107400    -1.7892010    -0.5436980
  H        2.9100300    -3.5650720     0.1192120
  H       -2.7034680    -2.5490840    -0.1532500
  H       -5.0287110    -1.6377420    -0.0567190
  H       -5.3090535     0.0372682     0.1929678
units angstrom
no_reorient  #important for SAPT in psi4, default
symmetry c1  #important for SAPT in psi4, default
}

set PROPERTIES_ORIGIN ["COM"]
properties('MP2/aug-cc-pvtz', properties = ['dipole'])
--------------------------------------------------------------------------

    Molecular point group: c1
  Charge       = 0
  Multiplicity = 1
  Basis Set: AUG-CC-PVTZ
    Blend: AUG-CC-PVTZ
  Basis Set: (AUG-CC-PVTZ AUX)
    Blend: AUG-CC-PVTZ-JKFIT

    Orbital Energies [Eh]
    ---------------------

    Doubly Occupied:

       1A    -20.578010     2A    -20.574646     3A    -20.573329
       4A    -20.503768     5A    -15.622716     6A    -15.593970
       7A    -15.541934     8A    -11.370651     9A    -11.344910
      10A    -11.331291    11A    -11.318982    12A    -11.301192
      13A    -11.297145    14A    -11.293416    15A    -11.237514
      16A    -11.237200    17A     -1.417139    18A     -1.383058
      19A     -1.373854    20A     -1.366087    21A     -1.292037
      22A     -1.260426    23A     -1.166649    24A     -1.079367
      25A     -1.069185    26A     -1.027851    27A     -0.926280
      28A     -0.897046    29A     -0.868815    30A     -0.830864
      31A     -0.806244    32A     -0.749274    33A     -0.739240
      34A     -0.721235    35A     -0.705514    36A     -0.692242
      37A     -0.689557    38A     -0.670317    39A     -0.651092
      40A     -0.637032    41A     -0.628514    42A     -0.616526
      43A     -0.603403    44A     -0.591919    45A     -0.587245
      46A     -0.573750    47A     -0.568805    48A     -0.545530
      49A     -0.533367    50A     -0.524155    51A     -0.511395
      52A     -0.486274    53A     -0.482674    54A     -0.468796
      55A     -0.461590    56A     -0.445388    57A     -0.438078
      58A     -0.417134    59A     -0.386404    60A     -0.335525

  @DF-RHF Final Energy:  -811.47249315046327

   => Energetics <=

    Nuclear Repulsion Energy =           1169.7149516117399344
    One-Electron Energy =               -3434.4797851400903710
    Two-Electron Energy =                1453.2923403778870579
    Total Energy =                       -811.4724931504631513
  Basis Set: (AUG-CC-PVTZ AUX)
    Blend: AUG-CC-PVTZ-RI
    Molecular point group: c1

    Geometry (in Angstrom), charge = 0, multiplicity = 1:

       Center              X                  Y                   Z               Mass
    ------------   -----------------  -----------------  -----------------  -----------------
         O            1.362113511092    -0.380237668155    -0.930986843249    15.994914619570
         O            3.202099511092     1.900986331845    -0.298655843249    15.994914619570
         O            2.799449511092    -2.749173668155    -0.399343843249    15.994914619570
         O           -1.362143488908     2.373778331845     0.155640156751    15.994914619570
         N           -0.798201488908     0.199191331845    -0.228398843249    14.003074004430
         N           -3.054129488908     0.805012331845     0.240869156751    14.003074004430
         N           -4.673367488908    -0.812661668155     0.413494156751    14.003074004430
         C            2.701637511092     0.875327331845     0.560331156751    12.000000000000
         C            1.236886511092     1.106999331845     0.888709156751    12.000000000000
         C            2.651861511092    -0.392517668155    -0.284612843249    12.000000000000
         C            0.574000511092     0.682777331845    -0.414058843249    12.000000000000
         C            2.802140511092    -1.660242668155     0.523327156751    12.000000000000
         C           -1.127294488908    -1.116045668155    -0.307418843249    12.000000000000
         C           -1.744645488908     1.203665331845     0.082902156751    12.000000000000
         C           -2.417264488908    -1.504787668155    -0.103684843249    12.000000000000
         C           -3.361949488908    -0.473386668155     0.169368156751    12.000000000000
         H            3.334423511092     0.756558331845     1.451710156751     1.007825032230
         H            0.904749511092     0.443602331845     1.694346156751     1.007825032230
         H            0.985371511092     2.133840331845     1.159004156751     1.007825032230
         H            0.527496511092     1.513027331845    -1.124055843249     1.007825032230
         H            3.417534511092    -0.364509668155    -1.065768843249     1.007825032230
         H            1.970791511092    -1.733410668155     1.244080156751     1.007825032230
         H            3.746131511092    -1.609741668155     1.089146156751     1.007825032230
         H            3.103893511092     2.746097331845     0.178840156751     1.007825032230
         H           -0.310697488908    -1.789427668155    -0.542840843249     1.007825032230
         H            2.910072511092    -3.565298668155     0.120069156751     1.007825032230
         H           -2.703425488908    -2.549310668155    -0.152392843249     1.007825032230
         H           -5.028668488908    -1.637968668155    -0.055861843249     1.007825032230
         H           -5.309010988908     0.037041531845     0.193824956751     1.007825032230

  Basis Set: AUG-CC-PVTZ
    Blend: AUG-CC-PVTZ
  Basis Set: (AUG-CC-PVTZ AUX)
    Blend: AUG-CC-PVTZ-JKFIT
	 Reference Energy          =    -811.4724931504632650 [Eh]
	 Singles Energy            =      -0.0000000000000000 [Eh]
	 Same-Spin Energy          =      -0.8301795568194911 [Eh]
	 Opposite-Spin Energy      =      -2.5266043829378946 [Eh]
	 Correlation Energy        =      -3.3567839397573858 [Eh]
	 Total Energy              =    -814.8292770902206712 [Eh]

	 ================> DF-SCS-MP2 Energies <==================
	-----------------------------------------------------------
	 SCS Same-Spin Scale       =       0.3333333333333333 [-]
	 SCS Opposite-Spin Scale   =       1.2000000000000000 [-]
	 SCS Same-Spin Energy      =      -0.2767265189398304 [Eh]
	 SCS Opposite-Spin Energy  =      -3.0319252595254733 [Eh]
	 SCS Correlation Energy    =      -3.3086517784653036 [Eh]
	 SCS Total Energy          =    -814.7811449289285974 [Eh]
	-----------------------------------------------------------

  Dipole Moment: [D]
     X:     1.2226      Y:    -4.6357      Z:     2.2508     Total:     5.2962

*** Psi4 exiting successfully. Buy a developer a beer!
