                               Psi4 1.3.2 release

  ==> Input File <==

--------------------------------------------------------------------------
#psi4
#
memory 32 gb

molecule  {
0 1
  O        1.3620710    -0.3800110    -0.9318440
  O        3.2020570     1.9012130    -0.2995130
  O        2.7994070    -2.7489470    -0.4002010
  O       -1.3621860     2.3740050     0.1547830
  N       -0.7982440     0.1994180    -0.2292560
  N       -3.0794736     0.8245643     0.0934297
  N       -4.6734100    -0.8124350     0.4126370
  C        2.7015950     0.8755540     0.5594740
  C        1.2368440     1.1072260     0.8878520
  C        2.6518190    -0.3922910    -0.2854700
  C        0.5739580     0.6830040    -0.4149160
  C        2.8020980    -1.6600160     0.5224700
  C       -1.1273370    -1.1158190    -0.3082760
  C       -1.7446880     1.2038920     0.0820450
  C       -2.4173070    -1.5045610    -0.1045420
  C       -3.3619920    -0.4731600     0.1685110
  H        3.3343810     0.7567850     1.4508530
  H        0.9047070     0.4438290     1.6934890
  H        0.9853290     2.1340670     1.1581470
  H        0.5274540     1.5132540    -1.1249130
  H        3.4174920    -0.3642830    -1.0666260
  H        1.9707490    -1.7331840     1.2432230
  H        3.7460890    -1.6095150     1.0882890
  H        3.1038510     2.7463240     0.1779830
  H       -0.3107400    -1.7892010    -0.5436980
  H        2.9100300    -3.5650720     0.1192120
  H       -2.7034680    -2.5490840    -0.1532500
  H       -5.0287110    -1.6377420    -0.0567190
  H       -5.2994710    -0.0137980     0.3861010
units angstrom
no_reorient  #important for SAPT in psi4, default
symmetry c1  #important for SAPT in psi4, default
}

set PROPERTIES_ORIGIN ["COM"]
properties('MP2/aug-cc-pvtz', properties = ['dipole'])
--------------------------------------------------------------------------

    Molecular point group: c1
  Charge       = 0
  Multiplicity = 1
  Basis Set: AUG-CC-PVTZ
    Blend: AUG-CC-PVTZ
  Basis Set: (AUG-CC-PVTZ AUX)
    Blend: AUG-CC-PVTZ-JKFIT

    Orbital Energies [Eh]
    ---------------------

    Doubly Occupied:

       1A    -20.577886     2A    -20.574510     3A    -20.573074
       4A    -20.504381     5A    -15.621991     6A    -15.588743
       7A    -15.542733     8A    -11.370300     9A    -11.346365
      10A    -11.331011    11A    -11.318320    12A    -11.301027
      13A    -11.297044    14A    -11.293251    15A    -11.237276
      16A    -11.237055    17A     -1.416800    18A     -1.382272
      19A     -1.373721    20A     -1.365830    21A     -1.290875
      22A     -1.260777    23A     -1.165767    24A     -1.079051
      25A     -1.068986    26A     -1.028050    27A     -0.926498
      28A     -0.897530    29A     -0.866311    30A     -0.830067
      31A     -0.806539    32A     -0.752012    33A     -0.738788
      34A     -0.721173    35A     -0.707137    36A     -0.693044
      37A     -0.689524    38A     -0.676396    39A     -0.656898
      40A     -0.637781    41A     -0.625981    42A     -0.618479
      43A     -0.604692    44A     -0.595059    45A     -0.588413
      46A     -0.573574    47A     -0.568155    48A     -0.544457
      49A     -0.529734    50A     -0.523416    51A     -0.509456
      52A     -0.485923    53A     -0.483554    54A     -0.468684
      55A     -0.461417    56A     -0.444673    57A     -0.438814
      58A     -0.415363    59A     -0.383527    60A     -0.334791

  @DF-RHF Final Energy:  -811.47400160625853

   => Energetics <=

    Nuclear Repulsion Energy =           1169.3370467287622887
    One-Electron Energy =               -3433.7321835882198684
    Two-Electron Energy =                1452.9211352531990542
    Total Energy =                       -811.4740016062585255
  Basis Set: (AUG-CC-PVTZ AUX)
    Blend: AUG-CC-PVTZ-RI
    Molecular point group: c1

    Geometry (in Angstrom), charge = 0, multiplicity = 1:

       Center              X                  Y                   Z               Mass
    ------------   -----------------  -----------------  -----------------  -----------------
         O            1.363631155084    -0.381202691831    -0.922805270464    15.994914619570
         O            3.203617155084     1.900021308169    -0.290474270464    15.994914619570
         O            2.800967155084    -2.750138691831    -0.391162270464    15.994914619570
         O           -1.360625844916     2.372813308169     0.163821729536    15.994914619570
         N           -0.796683844916     0.198226308169    -0.220217270464    14.003074004430
         N           -3.077913444916     0.823372608169     0.102468429536    14.003074004430
         N           -4.671849844916    -0.813626691831     0.421675729536    14.003074004430
         C            2.703155155084     0.874362308169     0.568512729536    12.000000000000
         C            1.238404155084     1.106034308169     0.896890729536    12.000000000000
         C            2.653379155084    -0.393482691831    -0.276431270464    12.000000000000
         C            0.575518155084     0.681812308169    -0.405877270464    12.000000000000
         C            2.803658155084    -1.661207691831     0.531508729536    12.000000000000
         C           -1.125776844916    -1.117010691831    -0.299237270464    12.000000000000
         C           -1.743127844916     1.202700308169     0.091083729536    12.000000000000
         C           -2.415746844916    -1.505752691831    -0.095503270464    12.000000000000
         C           -3.360431844916    -0.474351691831     0.177549729536    12.000000000000
         H            3.335941155084     0.755593308169     1.459891729536     1.007825032230
         H            0.906267155084     0.442637308169     1.702527729536     1.007825032230
         H            0.986889155084     2.132875308169     1.167185729536     1.007825032230
         H            0.529014155084     1.512062308169    -1.115874270464     1.007825032230
         H            3.419052155084    -0.365474691831    -1.057587270464     1.007825032230
         H            1.972309155084    -1.734375691831     1.252261729536     1.007825032230
         H            3.747649155084    -1.610706691831     1.097327729536     1.007825032230
         H            3.105411155084     2.745132308169     0.187021729536     1.007825032230
         H           -0.309179844916    -1.790392691831    -0.534659270464     1.007825032230
         H            2.911590155084    -3.566263691831     0.128250729536     1.007825032230
         H           -2.701907844916    -2.550275691831    -0.144211270464     1.007825032230
         H           -5.027150844916    -1.638933691831    -0.047680270464     1.007825032230
         H           -5.297910844916    -0.014989691831     0.395139729536     1.007825032230

  Basis Set: AUG-CC-PVTZ
    Blend: AUG-CC-PVTZ
  Basis Set: (AUG-CC-PVTZ AUX)
    Blend: AUG-CC-PVTZ-JKFIT
	 Reference Energy          =    -811.4740016062585255 [Eh]
	 Singles Energy            =      -0.0000000000000000 [Eh]
	 Same-Spin Energy          =      -0.8300263842935315 [Eh]
	 Opposite-Spin Energy      =      -2.5260918203855378 [Eh]
	 Correlation Energy        =      -3.3561182046790692 [Eh]
	 Total Energy              =    -814.8301198109376173 [Eh]

	 ================> DF-SCS-MP2 Energies <==================
	-----------------------------------------------------------
	 SCS Same-Spin Scale       =       0.3333333333333333 [-]
	 SCS Opposite-Spin Scale   =       1.2000000000000000 [-]
	 SCS Same-Spin Energy      =      -0.2766754614311772 [Eh]
	 SCS Opposite-Spin Energy  =      -3.0313101844626451 [Eh]
	 SCS Correlation Energy    =      -3.3079856458938224 [Eh]
	 SCS Total Energy          =    -814.7819872521523621 [Eh]
	-----------------------------------------------------------

  Dipole Moment: [D]
     X:     1.1319      Y:    -4.6807      Z:     2.6892     Total:     5.5156

*** Psi4 exiting successfully. Buy a developer a beer!
