                               Psi4 1.3.2 release

  ==> Input File <==

--------------------------------------------------------------------------
#psi4
#
memory 32 gb

molecule  {
0 1
  O        1.3620710    -0.3800110    -0.9318440
  O        3.2020570     1.9012130    -0.2995130
  O        2.7994070    -2.7489470    -0.4002010
  O       -1.3621860     2.3740050     0.1547830
  N       -0.7982440     0.1994180    -0.2292560
  N       -3.0541720     0.8052390     0.2400120
  N       -4.6734100    -0.8124350     0.4126370
  C        2.7015950     0.8755540     0.5594740
  C        1.2368440     1.1072260     0.8878520
  C        2.6518190    -0.3922910    -0.2854700
  C        0.5739580     0.6830040    -0.4149160
  C        2.8020980    -1.6600160     0.5224700
  C       -1.1273370    -1.1158190    -0.3082760
  C       -1.7538529     1.2096662     0.0332325
  C       -2.4173070    -1.5045610    -0.1045420
  C       -3.3619920    -0.4731600     0.1685110
  H        3.3343810     0.7567850     1.4508530
  H        0.9047070     0.4438290     1.6934890
  H        0.9853290     2.1340670     1.1581470
  H        0.5274540     1.5132540    -1.1249130
  H        3.4174920    -0.3642830    -1.0666260
  H        1.9707490    -1.7331840     1.2432230
  H        3.7460890    -1.6095150     1.0882890
  H        3.1038510     2.7463240     0.1779830
  H       -0.3107400    -1.7892010    -0.5436980
  H        2.9100300    -3.5650720     0.1192120
  H       -2.7034680    -2.5490840    -0.1532500
  H       -5.0287110    -1.6377420    -0.0567190
  H       -5.2994710    -0.0137980     0.3861010
units angstrom
no_reorient  #important for SAPT in psi4, default
symmetry c1  #important for SAPT in psi4, default
}

set PROPERTIES_ORIGIN ["COM"]
properties('MP2/aug-cc-pvtz', properties = ['dipole'])
--------------------------------------------------------------------------

    Molecular point group: c1
  Charge       = 0
  Multiplicity = 1
  Basis Set: AUG-CC-PVTZ
    Blend: AUG-CC-PVTZ
  Basis Set: (AUG-CC-PVTZ AUX)
    Blend: AUG-CC-PVTZ-JKFIT

    Orbital Energies [Eh]
    ---------------------

    Doubly Occupied:

       1A    -20.577672     2A    -20.574195     3A    -20.572816
       4A    -20.502890     5A    -15.621813     6A    -15.588247
       7A    -15.540888     8A    -11.370131     9A    -11.345264
      10A    -11.330731    11A    -11.318391    12A    -11.300630
      13A    -11.296744    14A    -11.292936    15A    -11.237167
      16A    -11.236420    17A     -1.416555    18A     -1.381982
      19A     -1.373468    20A     -1.365525    21A     -1.291989
      22A     -1.261353    23A     -1.169208    24A     -1.078788
      25A     -1.068919    26A     -1.027908    27A     -0.926755
      28A     -0.897533    29A     -0.868875    30A     -0.830704
      31A     -0.806295    32A     -0.754514    33A     -0.738646
      34A     -0.720686    35A     -0.706743    36A     -0.692787
      37A     -0.689227    38A     -0.675736    39A     -0.655992
      40A     -0.637040    41A     -0.627980    42A     -0.618349
      43A     -0.604305    44A     -0.594914    45A     -0.588760
      46A     -0.572426    47A     -0.568742    48A     -0.544747
      49A     -0.532709    50A     -0.523558    51A     -0.510125
      52A     -0.485623    53A     -0.482112    54A     -0.468365
      55A     -0.460899    56A     -0.444371    57A     -0.437620
      58A     -0.416947    59A     -0.383110    60A     -0.334989

  @DF-RHF Final Energy:  -811.47884788080080

   => Energetics <=

    Nuclear Repulsion Energy =           1169.8172228149564944
    One-Electron Energy =               -3434.7025159963491205
    Two-Electron Energy =                1453.4064453005917130
    Total Energy =                       -811.4788478808009131
  Basis Set: (AUG-CC-PVTZ AUX)
    Blend: AUG-CC-PVTZ-RI
    Molecular point group: c1

    Geometry (in Angstrom), charge = 0, multiplicity = 1:

       Center              X                  Y                   Z               Mass
    ------------   -----------------  -----------------  -----------------  -----------------
         O            1.362555278888    -0.380316159316    -0.929264598840    15.994914619570
         O            3.202541278888     1.900907840684    -0.296933598840    15.994914619570
         O            2.799891278888    -2.749252159316    -0.397621598840    15.994914619570
         O           -1.361701721112     2.373699840684     0.157362401160    15.994914619570
         N           -0.797759721112     0.199112840684    -0.226676598840    14.003074004430
         N           -3.053687721112     0.804933840684     0.242591401160    14.003074004430
         N           -4.672925721112    -0.812740159316     0.415216401160    14.003074004430
         C            2.702079278888     0.875248840684     0.562053401160    12.000000000000
         C            1.237328278888     1.106920840684     0.890431401160    12.000000000000
         C            2.652303278888    -0.392596159316    -0.282890598840    12.000000000000
         C            0.574442278888     0.682698840684    -0.412336598840    12.000000000000
         C            2.802582278888    -1.660321159316     0.525049401160    12.000000000000
         C           -1.126852721112    -1.116124159316    -0.305696598840    12.000000000000
         C           -1.753368621112     1.209361040684     0.035811901160    12.000000000000
         C           -2.416822721112    -1.504866159316    -0.101962598840    12.000000000000
         C           -3.361507721112    -0.473465159316     0.171090401160    12.000000000000
         H            3.334865278888     0.756479840684     1.453432401160     1.007825032230
         H            0.905191278888     0.443523840684     1.696068401160     1.007825032230
         H            0.985813278888     2.133761840684     1.160726401160     1.007825032230
         H            0.527938278888     1.512948840684    -1.122333598840     1.007825032230
         H            3.417976278888    -0.364588159316    -1.064046598840     1.007825032230
         H            1.971233278888    -1.733489159316     1.245802401160     1.007825032230
         H            3.746573278888    -1.609820159316     1.090868401160     1.007825032230
         H            3.104335278888     2.746018840684     0.180562401160     1.007825032230
         H           -0.310255721112    -1.789506159316    -0.541118598840     1.007825032230
         H            2.910514278888    -3.565377159316     0.121791401160     1.007825032230
         H           -2.702983721112    -2.549389159316    -0.150670598840     1.007825032230
         H           -5.028226721112    -1.638047159316    -0.054139598840     1.007825032230
         H           -5.298986721112    -0.014103159316     0.388680401160     1.007825032230

  Basis Set: AUG-CC-PVTZ
    Blend: AUG-CC-PVTZ
  Basis Set: (AUG-CC-PVTZ AUX)
    Blend: AUG-CC-PVTZ-JKFIT
	 Reference Energy          =    -811.4788478808007994 [Eh]
	 Singles Energy            =      -0.0000000000000000 [Eh]
	 Same-Spin Energy          =      -0.8296788311596590 [Eh]
	 Opposite-Spin Energy      =      -2.5251723783929716 [Eh]
	 Correlation Energy        =      -3.3548512095526304 [Eh]
	 Total Energy              =    -814.8336990903534343 [Eh]

	 ================> DF-SCS-MP2 Energies <==================
	-----------------------------------------------------------
	 SCS Same-Spin Scale       =       0.3333333333333333 [-]
	 SCS Opposite-Spin Scale   =       1.2000000000000000 [-]
	 SCS Same-Spin Energy      =      -0.2765596103865530 [Eh]
	 SCS Opposite-Spin Energy  =      -3.0302068540715656 [Eh]
	 SCS Correlation Energy    =      -3.3067664644581187 [Eh]
	 SCS Total Energy          =    -814.7856143452588640 [Eh]
	-----------------------------------------------------------

  Dipole Moment: [D]
     X:     1.0579      Y:    -4.6802      Z:     2.4344     Total:     5.3805

*** Psi4 exiting successfully. Buy a developer a beer!
