                               Psi4 1.3.2 release

  ==> Input File <==

--------------------------------------------------------------------------
#psi4
#
memory 32 gb

molecule  {
0 1
  O        1.3620710    -0.3800110    -0.9318440
  O        3.2020570     1.9012130    -0.2995130
  O        2.7994070    -2.7489470    -0.4002010
  O       -1.3621860     2.3740050     0.1547830
  N       -0.7982440     0.1994180    -0.2292560
  N       -3.0710398     0.8181226     0.1422905
  N       -4.6734100    -0.8124350     0.4126370
  C        2.7015950     0.8755540     0.5594740
  C        1.2368440     1.1072260     0.8878520
  C        2.6518190    -0.3922910    -0.2854700
  C        0.5739580     0.6830040    -0.4149160
  C        2.8020980    -1.6600160     0.5224700
  C       -1.1273370    -1.1158190    -0.3082760
  C       -1.7446880     1.2038920     0.0820450
  C       -2.4173070    -1.5045610    -0.1045420
  C       -3.3619920    -0.4731600     0.1685110
  H        3.3343810     0.7567850     1.4508530
  H        0.9047070     0.4438290     1.6934890
  H        0.9853290     2.1340670     1.1581470
  H        0.5274540     1.5132540    -1.1249130
  H        3.4174920    -0.3642830    -1.0666260
  H        1.9707490    -1.7331840     1.2432230
  H        3.7460890    -1.6095150     1.0882890
  H        3.1038510     2.7463240     0.1779830
  H       -0.3107400    -1.7892010    -0.5436980
  H        2.9100300    -3.5650720     0.1192120
  H       -2.7034680    -2.5490840    -0.1532500
  H       -5.0287110    -1.6377420    -0.0567190
  H       -5.2994710    -0.0137980     0.3861010
units angstrom
no_reorient  #important for SAPT in psi4, default
symmetry c1  #important for SAPT in psi4, default
}

set PROPERTIES_ORIGIN ["COM"]
properties('MP2/aug-cc-pvtz', properties = ['dipole'])
--------------------------------------------------------------------------

    Molecular point group: c1
  Charge       = 0
  Multiplicity = 1
  Basis Set: AUG-CC-PVTZ
    Blend: AUG-CC-PVTZ
  Basis Set: (AUG-CC-PVTZ AUX)
    Blend: AUG-CC-PVTZ-JKFIT

    Orbital Energies [Eh]
    ---------------------

    Doubly Occupied:

       1A    -20.577840     2A    -20.574448     3A    -20.573001
       4A    -20.503761     5A    -15.621893     6A    -15.588488
       7A    -15.541851     8A    -11.370069     9A    -11.345733
      10A    -11.330902    11A    -11.318313    12A    -11.300965
      13A    -11.296983    14A    -11.293188    15A    -11.237153
      16A    -11.236959    17A     -1.416754    18A     -1.382374
      19A     -1.373669    20A     -1.365793    21A     -1.291498
      22A     -1.261080    23A     -1.167422    24A     -1.079042
      25A     -1.068986    26A     -1.028026    27A     -0.926643
      28A     -0.897511    29A     -0.867532    30A     -0.830506
      31A     -0.806478    32A     -0.753068    33A     -0.738768
      34A     -0.721100    35A     -0.707059    36A     -0.692974
      37A     -0.689435    38A     -0.676240    39A     -0.656872
      40A     -0.637564    41A     -0.626597    42A     -0.618482
      43A     -0.604702    44A     -0.595125    45A     -0.588527
      46A     -0.573358    47A     -0.568400    48A     -0.544593
      49A     -0.530783    50A     -0.523549    51A     -0.509878
      52A     -0.485878    53A     -0.483011    54A     -0.468619
      55A     -0.461301    56A     -0.444496    57A     -0.438408
      58A     -0.415730    59A     -0.383897    60A     -0.334903

  @DF-RHF Final Energy:  -811.47674237765727

   => Energetics <=

    Nuclear Repulsion Energy =           1169.6093075316273371
    One-Electron Energy =               -3434.2757491025136005
    Two-Electron Energy =                1453.1896991932292167
    Total Energy =                       -811.4767423776572741
  Basis Set: (AUG-CC-PVTZ AUX)
    Blend: AUG-CC-PVTZ-RI
    Molecular point group: c1

    Geometry (in Angstrom), charge = 0, multiplicity = 1:

       Center              X                  Y                   Z               Mass
    ------------   -----------------  -----------------  -----------------  -----------------
         O            1.363111102196    -0.380805477682    -0.925818170956    15.994914619570
         O            3.203097102196     1.900418522318    -0.293487170956    15.994914619570
         O            2.800447102196    -2.749741477682    -0.394175170956    15.994914619570
         O           -1.361145897804     2.373210522318     0.160808829044    15.994914619570
         N           -0.797203897804     0.198623522318    -0.223230170956    14.003074004430
         N           -3.069999697804     0.817328122318     0.148316329044    14.003074004430
         N           -4.672369897804    -0.813229477682     0.418662829044    14.003074004430
         C            2.702635102196     0.874759522318     0.565499829044    12.000000000000
         C            1.237884102196     1.106431522318     0.893877829044    12.000000000000
         C            2.652859102196    -0.393085477682    -0.279444170956    12.000000000000
         C            0.574998102196     0.682209522318    -0.408890170956    12.000000000000
         C            2.803138102196    -1.660810477682     0.528495829044    12.000000000000
         C           -1.126296897804    -1.116613477682    -0.302250170956    12.000000000000
         C           -1.743647897804     1.203097522318     0.088070829044    12.000000000000
         C           -2.416266897804    -1.505355477682    -0.098516170956    12.000000000000
         C           -3.360951897804    -0.473954477682     0.174536829044    12.000000000000
         H            3.335421102196     0.755990522318     1.456878829044     1.007825032230
         H            0.905747102196     0.443034522318     1.699514829044     1.007825032230
         H            0.986369102196     2.133272522318     1.164172829044     1.007825032230
         H            0.528494102196     1.512459522318    -1.118887170956     1.007825032230
         H            3.418532102196    -0.365077477682    -1.060600170956     1.007825032230
         H            1.971789102196    -1.733978477682     1.249248829044     1.007825032230
         H            3.747129102196    -1.610309477682     1.094314829044     1.007825032230
         H            3.104891102196     2.745529522318     0.184008829044     1.007825032230
         H           -0.309699897804    -1.789995477682    -0.537672170956     1.007825032230
         H            2.911070102196    -3.565866477682     0.125237829044     1.007825032230
         H           -2.702427897804    -2.549878477682    -0.147224170956     1.007825032230
         H           -5.027670897804    -1.638536477682    -0.050693170956     1.007825032230
         H           -5.298430897804    -0.014592477682     0.392126829044     1.007825032230

  Basis Set: AUG-CC-PVTZ
    Blend: AUG-CC-PVTZ
  Basis Set: (AUG-CC-PVTZ AUX)
    Blend: AUG-CC-PVTZ-JKFIT
	 Reference Energy          =    -811.4767423776572741 [Eh]
	 Singles Energy            =      -0.0000000000000000 [Eh]
	 Same-Spin Energy          =      -0.8298449910912868 [Eh]
	 Opposite-Spin Energy      =      -2.5256125424098084 [Eh]
	 Correlation Energy        =      -3.3554575335010952 [Eh]
	 Total Energy              =    -814.8321999111583409 [Eh]

	 ================> DF-SCS-MP2 Energies <==================
	-----------------------------------------------------------
	 SCS Same-Spin Scale       =       0.3333333333333333 [-]
	 SCS Opposite-Spin Scale   =       1.2000000000000000 [-]
	 SCS Same-Spin Energy      =      -0.2766149970304289 [Eh]
	 SCS Opposite-Spin Energy  =      -3.0307350508917699 [Eh]
	 SCS Correlation Energy    =      -3.3073500479221987 [Eh]
	 SCS Total Energy          =    -814.7840924255795017 [Eh]
	-----------------------------------------------------------

  Dipole Moment: [D]
     X:     1.1134      Y:    -4.6823      Z:     2.6220     Total:     5.4807

*** Psi4 exiting successfully. Buy a developer a beer!
