                               Psi4 1.3.2 release

  ==> Input File <==

--------------------------------------------------------------------------
#psi4
#
memory 32 gb

molecule  {
0 1
  C        0.0000000     0.4225390     0.0000000
  H       -0.4408170     1.4355830     0.0000000
  O        1.2082730     0.2220110     0.0000000
  N       -0.9482900    -0.5548660     0.0000000
  H       -0.6534580    -1.5217170     0.0000000
  H       -1.9338820    -0.3411310    -0.1500000
units angstrom
no_reorient  #important for SAPT in psi4, default
symmetry c1  #important for SAPT in psi4, default
}

set PROPERTIES_ORIGIN ["COM"]
properties('MP2/aug-cc-pvtz', properties = ['dipole'])
--------------------------------------------------------------------------

    Molecular point group: c1
  Charge       = 0
  Multiplicity = 1
  Basis Set: AUG-CC-PVTZ
    Blend: AUG-CC-PVTZ
  Basis Set: (AUG-CC-PVTZ AUX)
    Blend: AUG-CC-PVTZ-JKFIT

    Orbital Energies [Eh]
    ---------------------

    Doubly Occupied:

       1A    -20.532152     2A    -15.600348     3A    -11.361071
       4A     -1.380075     5A     -1.218793     6A     -0.853214
       7A     -0.747884     8A     -0.673722     9A     -0.608030
      10A     -0.568927    11A     -0.438466    12A     -0.422700

  @DF-RHF Final Energy:  -169.00241308235806

   => Energetics <=

    Nuclear Repulsion Energy =             70.7934526481259780
    One-Electron Energy =                -370.7809668371073712
    Two-Electron Energy =                 130.9851011066233184
    Total Energy =                       -169.0024130823580606
  Basis Set: (AUG-CC-PVTZ AUX)
    Blend: AUG-CC-PVTZ-RI
    Molecular point group: c1

    Geometry (in Angstrom), charge = 0, multiplicity = 1:

       Center              X                  Y                   Z               Mass
    ------------   -----------------  -----------------  -----------------  -----------------
         C           -0.066532621350     0.413186195096     0.003357815192    12.000000000000
         H           -0.507349621350     1.426230195096     0.003357815192     1.007825032230
         O            1.141740378650     0.212658195096     0.003357815192    15.994914619570
         N           -1.014822621350    -0.564218804904     0.003357815192    14.003074004430
         H           -0.719990621350    -1.531069804904     0.003357815192     1.007825032230
         H           -2.000414621350    -0.350483804904    -0.146642184808     1.007825032230

  Basis Set: AUG-CC-PVTZ
    Blend: AUG-CC-PVTZ
  Basis Set: (AUG-CC-PVTZ AUX)
    Blend: AUG-CC-PVTZ-JKFIT
	 Reference Energy          =    -169.0024130823580606 [Eh]
	 Singles Energy            =      -0.0000000000000000 [Eh]
	 Same-Spin Energy          =      -0.1624118123772478 [Eh]
	 Opposite-Spin Energy      =      -0.5046760506545626 [Eh]
	 Correlation Energy        =      -0.6670878630318103 [Eh]
	 Total Energy              =    -169.6695009453898706 [Eh]

	 ================> DF-SCS-MP2 Energies <==================
	-----------------------------------------------------------
	 SCS Same-Spin Scale       =       0.3333333333333333 [-]
	 SCS Opposite-Spin Scale   =       1.2000000000000000 [-]
	 SCS Same-Spin Energy      =      -0.0541372707924159 [Eh]
	 SCS Opposite-Spin Energy  =      -0.6056112607854750 [Eh]
	 SCS Correlation Energy    =      -0.6597485315778909 [Eh]
	 SCS Total Energy          =    -169.6621616139359503 [Eh]
	-----------------------------------------------------------

  Dipole Moment: [D]
     X:    -3.8438      Y:    -0.5946      Z:    -0.2361     Total:     3.8967

*** Psi4 exiting successfully. Buy a developer a beer!
