                               Psi4 1.3.2 release

  ==> Input File <==

--------------------------------------------------------------------------
#psi4
#
memory 32 gb

molecule  {
0 1
  C        0.0000000     0.4225390     0.0000000
  H       -0.4408170     1.4355830     0.0000000
  O        1.2082730     0.2220110     0.0000000
  N       -0.9482900    -0.5548660    -0.1000000
  H       -0.6534580    -1.5217170     0.0000000
  H       -1.9338820    -0.3411310     0.0000000
units angstrom
no_reorient  #important for SAPT in psi4, default
symmetry c1  #important for SAPT in psi4, default
}

set PROPERTIES_ORIGIN ["COM"]
properties('MP2/aug-cc-pvtz', properties = ['dipole'])
--------------------------------------------------------------------------

    Molecular point group: c1
  Charge       = 0
  Multiplicity = 1
  Basis Set: AUG-CC-PVTZ
    Blend: AUG-CC-PVTZ
  Basis Set: (AUG-CC-PVTZ AUX)
    Blend: AUG-CC-PVTZ-JKFIT

    Orbital Energies [Eh]
    ---------------------

    Doubly Occupied:

       1A    -20.533277     2A    -15.600267     3A    -11.361690
       4A     -1.380607     5A     -1.218638     6A     -0.852245
       7A     -0.748164     8A     -0.672496     9A     -0.607939
      10A     -0.569637    11A     -0.439309    12A     -0.423554

  @DF-RHF Final Energy:  -169.00230401843615

   => Energetics <=

    Nuclear Repulsion Energy =             70.7464654283885608
    One-Electron Energy =                -370.6818926118862123
    Two-Electron Energy =                 130.9331231650615166
    Total Energy =                       -169.0023040184361491
  Basis Set: (AUG-CC-PVTZ AUX)
    Blend: AUG-CC-PVTZ-RI
    Molecular point group: c1

    Geometry (in Angstrom), charge = 0, multiplicity = 1:

       Center              X                  Y                   Z               Mass
    ------------   -----------------  -----------------  -----------------  -----------------
         C           -0.066532621350     0.413186195096     0.031103106934    12.000000000000
         H           -0.507349621350     1.426230195096     0.031103106934     1.007825032230
         O            1.141740378650     0.212658195096     0.031103106934    15.994914619570
         N           -1.014822621350    -0.564218804904    -0.068896893066    14.003074004430
         H           -0.719990621350    -1.531069804904     0.031103106934     1.007825032230
         H           -2.000414621350    -0.350483804904     0.031103106934     1.007825032230

  Basis Set: AUG-CC-PVTZ
    Blend: AUG-CC-PVTZ
  Basis Set: (AUG-CC-PVTZ AUX)
    Blend: AUG-CC-PVTZ-JKFIT
	 Reference Energy          =    -169.0023040184361491 [Eh]
	 Singles Energy            =      -0.0000000000000000 [Eh]
	 Same-Spin Energy          =      -0.1624033928968510 [Eh]
	 Opposite-Spin Energy      =      -0.5047813598054215 [Eh]
	 Correlation Energy        =      -0.6671847527022725 [Eh]
	 Total Energy              =    -169.6694887711384183 [Eh]

	 ================> DF-SCS-MP2 Energies <==================
	-----------------------------------------------------------
	 SCS Same-Spin Scale       =       0.3333333333333333 [-]
	 SCS Opposite-Spin Scale   =       1.2000000000000000 [-]
	 SCS Same-Spin Energy      =      -0.0541344642989503 [Eh]
	 SCS Opposite-Spin Energy  =      -0.6057376317665057 [Eh]
	 SCS Correlation Energy    =      -0.6598720960654560 [Eh]
	 SCS Total Energy          =    -169.6621761145016194 [Eh]
	-----------------------------------------------------------

  Dipole Moment: [D]
     X:    -3.8230      Y:    -0.5759      Z:     0.2661     Total:     3.8753

*** Psi4 exiting successfully. Buy a developer a beer!
