                               Psi4 1.3.2 release

  ==> Input File <==

--------------------------------------------------------------------------
#psi4
#
memory 32 gb

molecule  {
0 1
  C        0.0000000     0.4225390     0.0000000
  H       -0.4408170     1.4355830     0.0000000
  O        1.2082730     0.2220110     0.0000000
  N       -0.9482900    -0.5548660     0.0000000
  H       -0.6534580    -1.5217170     0.0000000
  H       -1.9338820    -0.3411310     0.0000000
units angstrom
no_reorient  #important for SAPT in psi4, default
symmetry c1  #important for SAPT in psi4, default
}

set PROPERTIES_ORIGIN ["COM"]
properties('MP2/aug-cc-pvtz', properties = ['dipole'])
--------------------------------------------------------------------------

    Molecular point group: c1
  Charge       = 0
  Multiplicity = 1
  Basis Set: AUG-CC-PVTZ
    Blend: AUG-CC-PVTZ
  Basis Set: (AUG-CC-PVTZ AUX)
    Blend: AUG-CC-PVTZ-JKFIT

    Orbital Energies [Eh]
    ---------------------

    Doubly Occupied:

       1A    -20.531746     2A    -15.599630     3A    -11.361095
       4A     -1.379882     5A     -1.220151     6A     -0.853816
       7A     -0.751305     8A     -0.673819     9A     -0.607859
      10A     -0.569680    11A     -0.438157    12A     -0.422536

  @DF-RHF Final Energy:  -169.00308807638751

   => Energetics <=

    Nuclear Repulsion Energy =             70.8404340470916623
    One-Electron Energy =                -370.8676917096947818
    Two-Electron Energy =                 131.0241695862156064
    Total Energy =                       -169.0030880763875132
  Basis Set: (AUG-CC-PVTZ AUX)
    Blend: AUG-CC-PVTZ-RI
    Molecular point group: c1

    Geometry (in Angstrom), charge = 0, multiplicity = 1:

       Center              X                  Y                   Z               Mass
    ------------   -----------------  -----------------  -----------------  -----------------
         C           -0.066532621350     0.413186195096     0.000000000000    12.000000000000
         H           -0.507349621350     1.426230195096     0.000000000000     1.007825032230
         O            1.141740378650     0.212658195096     0.000000000000    15.994914619570
         N           -1.014822621350    -0.564218804904     0.000000000000    14.003074004430
         H           -0.719990621350    -1.531069804904     0.000000000000     1.007825032230
         H           -2.000414621350    -0.350483804904     0.000000000000     1.007825032230

  Basis Set: AUG-CC-PVTZ
    Blend: AUG-CC-PVTZ
  Basis Set: (AUG-CC-PVTZ AUX)
    Blend: AUG-CC-PVTZ-JKFIT
	 Reference Energy          =    -169.0030880763875132 [Eh]
	 Singles Energy            =      -0.0000000000000000 [Eh]
	 Same-Spin Energy          =      -0.1623627020181723 [Eh]
	 Opposite-Spin Energy      =      -0.5044931461588775 [Eh]
	 Correlation Energy        =      -0.6668558481770498 [Eh]
	 Total Energy              =    -169.6699439245645635 [Eh]

	 ================> DF-SCS-MP2 Energies <==================
	-----------------------------------------------------------
	 SCS Same-Spin Scale       =       0.3333333333333333 [-]
	 SCS Opposite-Spin Scale   =       1.2000000000000000 [-]
	 SCS Same-Spin Energy      =      -0.0541209006727241 [Eh]
	 SCS Opposite-Spin Energy  =      -0.6053917753906530 [Eh]
	 SCS Correlation Energy    =      -0.6595126760633772 [Eh]
	 SCS Total Energy          =    -169.6626007524508850 [Eh]
	-----------------------------------------------------------

  Dipole Moment: [D]
     X:    -3.8637      Y:    -0.5981      Z:     0.0000     Total:     3.9097

*** Psi4 exiting successfully. Buy a developer a beer!
