                               Psi4 1.3.2 release

  ==> Input File <==

--------------------------------------------------------------------------
#psi4
#
memory 32 gb

molecule  {
0 1
  C        0.0000000     0.4225390     0.0000000
  H       -0.4408170     1.4355830     0.0000000
  O        1.2082730     0.2220110     0.0000000
  N       -0.9482900    -0.5548660    -0.2000000
  H       -0.6534580    -1.5217170     0.0000000
  H       -1.9338820    -0.3411310     0.0000000
units angstrom
no_reorient  #important for SAPT in psi4, default
symmetry c1  #important for SAPT in psi4, default
}

set PROPERTIES_ORIGIN ["COM"]
properties('MP2/aug-cc-pvtz', properties = ['dipole'])
--------------------------------------------------------------------------

    Molecular point group: c1
  Charge       = 0
  Multiplicity = 1
  Basis Set: AUG-CC-PVTZ
    Blend: AUG-CC-PVTZ
  Basis Set: (AUG-CC-PVTZ AUX)
    Blend: AUG-CC-PVTZ-JKFIT

    Orbital Energies [Eh]
    ---------------------

    Doubly Occupied:

       1A    -20.537616     2A    -15.602357     3A    -11.363398
       4A     -1.382685     5A     -1.214084     6A     -0.847949
       7A     -0.739421     8A     -0.668553     9A     -0.607670
      10A     -0.569566    11A     -0.442652    12A     -0.426387

  @DF-RHF Final Energy:  -168.99939595731394

   => Energetics <=

    Nuclear Repulsion Energy =             70.4699541677447598
    One-Electron Energy =                -370.1340250735348718
    Two-Electron Energy =                 130.6646749484762040
    Total Energy =                       -168.9993959573139364
  Basis Set: (AUG-CC-PVTZ AUX)
    Blend: AUG-CC-PVTZ-RI
    Molecular point group: c1

    Geometry (in Angstrom), charge = 0, multiplicity = 1:

       Center              X                  Y                   Z               Mass
    ------------   -----------------  -----------------  -----------------  -----------------
         C           -0.066532621350     0.413186195096     0.062206213869    12.000000000000
         H           -0.507349621350     1.426230195096     0.062206213869     1.007825032230
         O            1.141740378650     0.212658195096     0.062206213869    15.994914619570
         N           -1.014822621350    -0.564218804904    -0.137793786131    14.003074004430
         H           -0.719990621350    -1.531069804904     0.062206213869     1.007825032230
         H           -2.000414621350    -0.350483804904     0.062206213869     1.007825032230

  Basis Set: AUG-CC-PVTZ
    Blend: AUG-CC-PVTZ
  Basis Set: (AUG-CC-PVTZ AUX)
    Blend: AUG-CC-PVTZ-JKFIT
	 Reference Energy          =    -168.9993959573139364 [Eh]
	 Singles Energy            =      -0.0000000000000000 [Eh]
	 Same-Spin Energy          =      -0.1625316237248140 [Eh]
	 Opposite-Spin Energy      =      -0.5056447171259826 [Eh]
	 Correlation Energy        =      -0.6681763408507966 [Eh]
	 Total Energy              =    -169.6675722981647425 [Eh]

	 ================> DF-SCS-MP2 Energies <==================
	-----------------------------------------------------------
	 SCS Same-Spin Scale       =       0.3333333333333333 [-]
	 SCS Opposite-Spin Scale   =       1.2000000000000000 [-]
	 SCS Same-Spin Energy      =      -0.0541772079082713 [Eh]
	 SCS Opposite-Spin Energy  =      -0.6067736605511791 [Eh]
	 SCS Correlation Energy    =      -0.6609508684594504 [Eh]
	 SCS Total Energy          =    -169.6603468257733880 [Eh]
	-----------------------------------------------------------

  Dipole Moment: [D]
     X:    -3.7066      Y:    -0.5116      Z:     0.5250     Total:     3.7784

*** Psi4 exiting successfully. Buy a developer a beer!
