                               Psi4 1.3.2 release

  ==> Input File <==

--------------------------------------------------------------------------
#psi4
#
memory 32 gb

molecule  {
0 1
  C        0.0000000     0.4225390     0.0000000
  H       -0.4408170     1.4355830     0.0000000
  O        1.2082730     0.2220110     0.0000000
  N       -0.9482900    -0.5548660    -0.2500000
  H       -0.6534580    -1.5217170     0.0000000
  H       -1.9338820    -0.3411310     0.0000000
units angstrom
no_reorient  #important for SAPT in psi4, default
symmetry c1  #important for SAPT in psi4, default
}

set PROPERTIES_ORIGIN ["COM"]
properties('MP2/aug-cc-pvtz', properties = ['dipole'])
--------------------------------------------------------------------------

    Molecular point group: c1
  Charge       = 0
  Multiplicity = 1
  Basis Set: AUG-CC-PVTZ
    Blend: AUG-CC-PVTZ
  Basis Set: (AUG-CC-PVTZ AUX)
    Blend: AUG-CC-PVTZ-JKFIT

    Orbital Energies [Eh]
    ---------------------

    Doubly Occupied:

       1A    -20.540636     2A    -15.604076     3A    -11.364614
       4A     -1.384150     5A     -1.210659     6A     -0.845104
       7A     -0.733476     8A     -0.665690     9A     -0.606956
      10A     -0.569566    11A     -0.445062    12A     -0.428297

  @DF-RHF Final Energy:  -168.99671528956631

   => Energetics <=

    Nuclear Repulsion Energy =             70.2676770335577601
    One-Electron Energy =                -369.7322083388549459
    Two-Electron Energy =                 130.4678160157309037
    Total Energy =                       -168.9967152895663105
  Basis Set: (AUG-CC-PVTZ AUX)
    Blend: AUG-CC-PVTZ-RI
    Molecular point group: c1

    Geometry (in Angstrom), charge = 0, multiplicity = 1:

       Center              X                  Y                   Z               Mass
    ------------   -----------------  -----------------  -----------------  -----------------
         C           -0.066532621350     0.413186195096     0.077757767336    12.000000000000
         H           -0.507349621350     1.426230195096     0.077757767336     1.007825032230
         O            1.141740378650     0.212658195096     0.077757767336    15.994914619570
         N           -1.014822621350    -0.564218804904    -0.172242232664    14.003074004430
         H           -0.719990621350    -1.531069804904     0.077757767336     1.007825032230
         H           -2.000414621350    -0.350483804904     0.077757767336     1.007825032230

  Basis Set: AUG-CC-PVTZ
    Blend: AUG-CC-PVTZ
  Basis Set: (AUG-CC-PVTZ AUX)
    Blend: AUG-CC-PVTZ-JKFIT
	 Reference Energy          =    -168.9967152895663105 [Eh]
	 Singles Energy            =      -0.0000000000000000 [Eh]
	 Same-Spin Energy          =      -0.1626358509969169 [Eh]
	 Opposite-Spin Energy      =      -0.5062996286107261 [Eh]
	 Correlation Energy        =      -0.6689354796076430 [Eh]
	 Total Energy              =    -169.6656507691739648 [Eh]

	 ================> DF-SCS-MP2 Energies <==================
	-----------------------------------------------------------
	 SCS Same-Spin Scale       =       0.3333333333333333 [-]
	 SCS Opposite-Spin Scale   =       1.2000000000000000 [-]
	 SCS Same-Spin Energy      =      -0.0542119503323056 [Eh]
	 SCS Opposite-Spin Energy  =      -0.6075595543328712 [Eh]
	 SCS Correlation Energy    =      -0.6617715046651769 [Eh]
	 SCS Total Energy          =    -169.6584867942314929 [Eh]
	-----------------------------------------------------------

  Dipole Moment: [D]
     X:    -3.6245      Y:    -0.4656      Z:     0.6494     Total:     3.7115

*** Psi4 exiting successfully. Buy a developer a beer!
