                               Psi4 1.3.2 release

  ==> Input File <==

--------------------------------------------------------------------------
#psi4
#
memory 32 gb

molecule  {
0 1
  C        0.0000000     0.4225390     0.0000000
  H       -0.4408170     1.4355830     0.0000000
  O        1.2082730     0.2220110     0.0000000
  N       -0.9482900    -0.5548660     0.0000000
  H       -0.6534580    -1.5217170     0.0000000
  H       -1.9338820    -0.3411310    -0.3000000
units angstrom
no_reorient  #important for SAPT in psi4, default
symmetry c1  #important for SAPT in psi4, default
}

set PROPERTIES_ORIGIN ["COM"]
properties('MP2/aug-cc-pvtz', properties = ['dipole'])
--------------------------------------------------------------------------

    Molecular point group: c1
  Charge       = 0
  Multiplicity = 1
  Basis Set: AUG-CC-PVTZ
    Blend: AUG-CC-PVTZ
  Basis Set: (AUG-CC-PVTZ AUX)
    Blend: AUG-CC-PVTZ-JKFIT

    Orbital Energies [Eh]
    ---------------------

    Doubly Occupied:

       1A    -20.533296     2A    -15.602421     3A    -11.361013
       4A     -1.380628     5A     -1.215063     6A     -0.851671
       7A     -0.738190     8A     -0.673406     9A     -0.608227
      10A     -0.566826    11A     -0.439323    12A     -0.423178

  @DF-RHF Final Energy:  -168.99940958751418

   => Energetics <=

    Nuclear Repulsion Energy =             70.6602095202900671
    One-Electron Energy =                -370.5327545486970848
    Two-Electron Energy =                 130.8731354408928098
    Total Energy =                       -168.9994095875141795
  Basis Set: (AUG-CC-PVTZ AUX)
    Blend: AUG-CC-PVTZ-RI
    Molecular point group: c1

    Geometry (in Angstrom), charge = 0, multiplicity = 1:

       Center              X                  Y                   Z               Mass
    ------------   -----------------  -----------------  -----------------  -----------------
         C           -0.066532621350     0.413186195096     0.006715630383    12.000000000000
         H           -0.507349621350     1.426230195096     0.006715630383     1.007825032230
         O            1.141740378650     0.212658195096     0.006715630383    15.994914619570
         N           -1.014822621350    -0.564218804904     0.006715630383    14.003074004430
         H           -0.719990621350    -1.531069804904     0.006715630383     1.007825032230
         H           -2.000414621350    -0.350483804904    -0.293284369617     1.007825032230

  Basis Set: AUG-CC-PVTZ
    Blend: AUG-CC-PVTZ
  Basis Set: (AUG-CC-PVTZ AUX)
    Blend: AUG-CC-PVTZ-JKFIT
	 Reference Energy          =    -168.9994095875141795 [Eh]
	 Singles Energy            =      -0.0000000000000000 [Eh]
	 Same-Spin Energy          =      -0.1625576628464774 [Eh]
	 Opposite-Spin Energy      =      -0.5052282310794985 [Eh]
	 Correlation Energy        =      -0.6677858939259760 [Eh]
	 Total Energy              =    -169.6671954814401602 [Eh]

	 ================> DF-SCS-MP2 Energies <==================
	-----------------------------------------------------------
	 SCS Same-Spin Scale       =       0.3333333333333333 [-]
	 SCS Opposite-Spin Scale   =       1.2000000000000000 [-]
	 SCS Same-Spin Energy      =      -0.0541858876154925 [Eh]
	 SCS Opposite-Spin Energy  =      -0.6062738772953983 [Eh]
	 SCS Correlation Energy    =      -0.6604597649108908 [Eh]
	 SCS Total Energy          =    -169.6598693524250621 [Eh]
	-----------------------------------------------------------

  Dipole Moment: [D]
     X:    -3.7872      Y:    -0.5849      Z:    -0.4630     Total:     3.8600

*** Psi4 exiting successfully. Buy a developer a beer!
