                               Psi4 1.3.2 release

  ==> Input File <==

--------------------------------------------------------------------------
#psi4
#
memory 32 gb

molecule  {
0 1
  C        0.0000000     0.4225390     0.0000000
  H       -0.4408170     1.4355830     0.0000000
  O        1.2082730     0.2220110     0.0000000
  N       -0.9482900    -0.5548660    -0.1500000
  H       -0.6534580    -1.5217170     0.0000000
  H       -1.9338820    -0.3411310     0.0000000
units angstrom
no_reorient  #important for SAPT in psi4, default
symmetry c1  #important for SAPT in psi4, default
}

set PROPERTIES_ORIGIN ["COM"]
properties('MP2/aug-cc-pvtz', properties = ['dipole'])
--------------------------------------------------------------------------

    Molecular point group: c1
  Charge       = 0
  Multiplicity = 1
  Basis Set: AUG-CC-PVTZ
    Blend: AUG-CC-PVTZ
  Basis Set: (AUG-CC-PVTZ AUX)
    Blend: AUG-CC-PVTZ-JKFIT

    Orbital Energies [Eh]
    ---------------------

    Doubly Occupied:

       1A    -20.535130     2A    -15.601107     3A    -11.362415
       4A     -1.381491     5A     -1.216743     6A     -0.850381
       7A     -0.744401     8A     -0.670843     9A     -0.607920
      10A     -0.569597    11A     -0.440722    12A     -0.424774

  @DF-RHF Final Energy:  -169.00119035411342

   => Energetics <=

    Nuclear Repulsion Energy =             70.6302830092079006
    One-Electron Energy =                -370.4518972185150005
    Two-Electron Energy =                 130.8204238551936669
    Total Energy =                       -169.0011903541134188
  Basis Set: (AUG-CC-PVTZ AUX)
    Blend: AUG-CC-PVTZ-RI
    Molecular point group: c1

    Geometry (in Angstrom), charge = 0, multiplicity = 1:

       Center              X                  Y                   Z               Mass
    ------------   -----------------  -----------------  -----------------  -----------------
         C           -0.066532621350     0.413186195096     0.046654660401    12.000000000000
         H           -0.507349621350     1.426230195096     0.046654660401     1.007825032230
         O            1.141740378650     0.212658195096     0.046654660401    15.994914619570
         N           -1.014822621350    -0.564218804904    -0.103345339599    14.003074004430
         H           -0.719990621350    -1.531069804904     0.046654660401     1.007825032230
         H           -2.000414621350    -0.350483804904     0.046654660401     1.007825032230

  Basis Set: AUG-CC-PVTZ
    Blend: AUG-CC-PVTZ
  Basis Set: (AUG-CC-PVTZ AUX)
    Blend: AUG-CC-PVTZ-JKFIT
	 Reference Energy          =    -169.0011903541134188 [Eh]
	 Singles Energy            =      -0.0000000000000000 [Eh]
	 Same-Spin Energy          =      -0.1624555586281080 [Eh]
	 Opposite-Spin Energy      =      -0.5051405778052702 [Eh]
	 Correlation Energy        =      -0.6675961364333782 [Eh]
	 Total Energy              =    -169.6687864905468075 [Eh]

	 ================> DF-SCS-MP2 Energies <==================
	-----------------------------------------------------------
	 SCS Same-Spin Scale       =       0.3333333333333333 [-]
	 SCS Opposite-Spin Scale   =       1.2000000000000000 [-]
	 SCS Same-Spin Energy      =      -0.0541518528760360 [Eh]
	 SCS Opposite-Spin Energy  =      -0.6061686933663243 [Eh]
	 SCS Correlation Energy    =      -0.6603205462423603 [Eh]
	 SCS Total Energy          =    -169.6615109003557791 [Eh]
	-----------------------------------------------------------

  Dipole Moment: [D]
     X:    -3.7735      Y:    -0.5487      Z:     0.3969     Total:     3.8338

*** Psi4 exiting successfully. Buy a developer a beer!
