                               Psi4 1.3.2 release

  ==> Input File <==

--------------------------------------------------------------------------
#psi4
#
memory 32 gb

molecule  {
0 1
  C        0.0000000     0.4225390     0.0000000
  H       -0.4408170     1.4355830     0.0000000
  O        1.2082730     0.2220110     0.0000000
  N       -0.9482900    -0.5548660    -0.3000000
  H       -0.6534580    -1.5217170     0.0000000
  H       -1.9338820    -0.3411310     0.0000000
units angstrom
no_reorient  #important for SAPT in psi4, default
symmetry c1  #important for SAPT in psi4, default
}

set PROPERTIES_ORIGIN ["COM"]
properties('MP2/aug-cc-pvtz', properties = ['dipole'])
--------------------------------------------------------------------------

    Molecular point group: c1
  Charge       = 0
  Multiplicity = 1
  Basis Set: AUG-CC-PVTZ
    Blend: AUG-CC-PVTZ
  Basis Set: (AUG-CC-PVTZ AUX)
    Blend: AUG-CC-PVTZ-JKFIT

    Orbital Energies [Eh]
    ---------------------

    Doubly Occupied:

       1A    -20.544081     2A    -15.606324     3A    -11.366037
       4A     -1.385838     5A     -1.206472     6A     -0.842021
       7A     -0.726851     8A     -0.662384     9A     -0.605482
      10A     -0.569622    11A     -0.447908    12A     -0.430389

  @DF-RHF Final Energy:  -168.99292167873907

   => Energetics <=

    Nuclear Repulsion Energy =             70.0261082575957943
    One-Electron Energy =                -369.2512433631254680
    Two-Electron Energy =                 130.2322134267905938
    Total Energy =                       -168.9929216787390658
  Basis Set: (AUG-CC-PVTZ AUX)
    Blend: AUG-CC-PVTZ-RI
    Molecular point group: c1

    Geometry (in Angstrom), charge = 0, multiplicity = 1:

       Center              X                  Y                   Z               Mass
    ------------   -----------------  -----------------  -----------------  -----------------
         C           -0.066532621350     0.413186195096     0.093309320803    12.000000000000
         H           -0.507349621350     1.426230195096     0.093309320803     1.007825032230
         O            1.141740378650     0.212658195096     0.093309320803    15.994914619570
         N           -1.014822621350    -0.564218804904    -0.206690679197    14.003074004430
         H           -0.719990621350    -1.531069804904     0.093309320803     1.007825032230
         H           -2.000414621350    -0.350483804904     0.093309320803     1.007825032230

  Basis Set: AUG-CC-PVTZ
    Blend: AUG-CC-PVTZ
  Basis Set: (AUG-CC-PVTZ AUX)
    Blend: AUG-CC-PVTZ-JKFIT
	 Reference Energy          =    -168.9929216787390658 [Eh]
	 Singles Energy            =      -0.0000000000000000 [Eh]
	 Same-Spin Energy          =      -0.1627748460044326 [Eh]
	 Opposite-Spin Energy      =      -0.5071158097670289 [Eh]
	 Correlation Energy        =      -0.6698906557714615 [Eh]
	 Total Energy              =    -169.6628123345105337 [Eh]

	 ================> DF-SCS-MP2 Energies <==================
	-----------------------------------------------------------
	 SCS Same-Spin Scale       =       0.3333333333333333 [-]
	 SCS Opposite-Spin Scale   =       1.2000000000000000 [-]
	 SCS Same-Spin Energy      =      -0.0542582820014775 [Eh]
	 SCS Opposite-Spin Energy  =      -0.6085389717204346 [Eh]
	 SCS Correlation Energy    =      -0.6627972537219121 [Eh]
	 SCS Total Energy          =    -169.6557189324609851 [Eh]
	-----------------------------------------------------------

  Dipole Moment: [D]
     X:    -3.5297      Y:    -0.4119      Z:     0.7692     Total:     3.6359

*** Psi4 exiting successfully. Buy a developer a beer!
