                               Psi4 1.3.2 release

  ==> Input File <==

--------------------------------------------------------------------------
#psi4
#
memory 32 gb

molecule  {
0 1
  C        0.0000000     0.4225390     0.0000000
  H       -0.4408170     1.4355830     0.0000000
  O        1.2082730     0.2220110     0.0000000
  N       -0.9482900    -0.5548660     0.0000000
  H       -0.6534580    -1.5217170     0.0000000
  H       -1.9338820    -0.3411310    -0.2500000
units angstrom
no_reorient  #important for SAPT in psi4, default
symmetry c1  #important for SAPT in psi4, default
}

set PROPERTIES_ORIGIN ["COM"]
properties('MP2/aug-cc-pvtz', properties = ['dipole'])
--------------------------------------------------------------------------

    Molecular point group: c1
  Charge       = 0
  Multiplicity = 1
  Basis Set: AUG-CC-PVTZ
    Blend: AUG-CC-PVTZ
  Basis Set: (AUG-CC-PVTZ AUX)
    Blend: AUG-CC-PVTZ-JKFIT

    Orbital Energies [Eh]
    ---------------------

    Doubly Occupied:

       1A    -20.532843     2A    -15.601591     3A    -11.361034
       4A     -1.380406     5A     -1.216523     6A     -0.852257
       7A     -0.742034     8A     -0.673540     9A     -0.608201
      10A     -0.567657    11A     -0.438986    12A     -0.422986

  @DF-RHF Final Energy:  -169.00079297387401

   => Energetics <=

    Nuclear Repulsion Energy =             70.7131648315276919
    One-Electron Energy =                -370.6317996549685745
    Two-Electron Energy =                 130.9178418495668552
    Total Energy =                       -169.0007929738740131
  Basis Set: (AUG-CC-PVTZ AUX)
    Blend: AUG-CC-PVTZ-RI
    Molecular point group: c1

    Geometry (in Angstrom), charge = 0, multiplicity = 1:

       Center              X                  Y                   Z               Mass
    ------------   -----------------  -----------------  -----------------  -----------------
         C           -0.066532621350     0.413186195096     0.005596358653    12.000000000000
         H           -0.507349621350     1.426230195096     0.005596358653     1.007825032230
         O            1.141740378650     0.212658195096     0.005596358653    15.994914619570
         N           -1.014822621350    -0.564218804904     0.005596358653    14.003074004430
         H           -0.719990621350    -1.531069804904     0.005596358653     1.007825032230
         H           -2.000414621350    -0.350483804904    -0.244403641347     1.007825032230

  Basis Set: AUG-CC-PVTZ
    Blend: AUG-CC-PVTZ
  Basis Set: (AUG-CC-PVTZ AUX)
    Blend: AUG-CC-PVTZ-JKFIT
	 Reference Energy          =    -169.0007929738740131 [Eh]
	 Singles Energy            =      -0.0000000000000000 [Eh]
	 Same-Spin Energy          =      -0.1624985949760578 [Eh]
	 Opposite-Spin Energy      =      -0.5050029049212238 [Eh]
	 Correlation Energy        =      -0.6675014998972816 [Eh]
	 Total Energy              =    -169.6682944737712830 [Eh]

	 ================> DF-SCS-MP2 Energies <==================
	-----------------------------------------------------------
	 SCS Same-Spin Scale       =       0.3333333333333333 [-]
	 SCS Opposite-Spin Scale   =       1.2000000000000000 [-]
	 SCS Same-Spin Energy      =      -0.0541661983253526 [Eh]
	 SCS Opposite-Spin Energy  =      -0.6060034859054685 [Eh]
	 SCS Correlation Energy    =      -0.6601696842308211 [Eh]
	 SCS Total Energy          =    -169.6609626581048360 [Eh]
	-----------------------------------------------------------

  Dipole Moment: [D]
     X:    -3.8097      Y:    -0.5888      Z:    -0.3888     Total:     3.8745

*** Psi4 exiting successfully. Buy a developer a beer!
