                               Psi4 1.3.2 release

  ==> Input File <==

--------------------------------------------------------------------------
#psi4
#
memory 32 gb

molecule  {
0 1
  N        2.8432420    -0.0000300    -0.0741500
  C       -1.3987330     0.0000320    -0.0172550
  C        1.4370927     0.0435774    -0.0184409
  C       -0.6732730    -1.1974670    -0.0089890
  C       -0.6732520     1.1975000    -0.0089860
  C        0.7202200    -1.2039320    -0.0146160
  C        0.7202540     1.2039380    -0.0146150
  C       -2.9047610    -0.0000170     0.0277710
  H       -1.2061990    -2.1473890    -0.0196480
  H       -1.2061560     2.1474320    -0.0196330
  H        1.2592620    -2.1503360    -0.0187000
  H        1.2593140     2.1503320    -0.0186990
  H       -3.3125570     0.8858000    -0.4679490
  H       -3.3126490    -0.8837290    -0.4716300
  H       -3.2750890    -0.0021640     1.0590980
  H        3.2618470     0.8295390     0.3353270
  H        3.2618090    -0.8296010     0.3353740
units angstrom
no_reorient  #important for SAPT in psi4, default
symmetry c1  #important for SAPT in psi4, default
}

set PROPERTIES_ORIGIN ["COM"]
properties('MP2/aug-cc-pvtz', properties = ['dipole'])
--------------------------------------------------------------------------

    Molecular point group: c1
  Charge       = 0
  Multiplicity = 1
  Basis Set: AUG-CC-PVTZ
    Blend: AUG-CC-PVTZ
  Basis Set: (AUG-CC-PVTZ AUX)
    Blend: AUG-CC-PVTZ-JKFIT

    Orbital Energies [Eh]
    ---------------------

    Doubly Occupied:

       1A    -15.563342     2A    -11.272592     3A    -11.231159
       4A    -11.230900     5A    -11.228430     6A    -11.227171
       7A    -11.219552     8A    -11.218587     9A     -1.217724
      10A     -1.129653    11A     -1.021712    12A     -1.006639
      13A     -0.915074    14A     -0.830780    15A     -0.788917
      16A     -0.691880    17A     -0.681490    18A     -0.634390
      19A     -0.602833    20A     -0.585583    21A     -0.575707
      22A     -0.570152    23A     -0.530097    24A     -0.523661
      25A     -0.495578    26A     -0.478918    27A     -0.437705
      28A     -0.334899    29A     -0.287533

  @DF-RHF Final Energy:  -324.88030508993444

   => Energetics <=

    Nuclear Repulsion Energy =            341.9651720741642293
    One-Electron Energy =               -1116.6256417918846182
    Two-Electron Energy =                 449.7801646277859504
    Total Energy =                       -324.8803050899344385
  Basis Set: (AUG-CC-PVTZ AUX)
    Blend: AUG-CC-PVTZ-RI
    Molecular point group: c1

    Geometry (in Angstrom), charge = 0, multiplicity = 1:

       Center              X                  Y                   Z               Mass
    ------------   -----------------  -----------------  -----------------  -----------------
         N            2.812901239367    -0.004914866970    -0.064990168012    14.003074004430
         C           -1.429073760633    -0.004852866970    -0.008095168012    12.000000000000
         C            1.406751939367     0.038692533030    -0.009281068012    12.000000000000
         C           -0.703613760633    -1.202351866970     0.000170831988    12.000000000000
         C           -0.703592760633     1.192615133030     0.000173831988    12.000000000000
         C            0.689879239367    -1.208816866970    -0.005456168012    12.000000000000
         C            0.689913239367     1.199053133030    -0.005455168012    12.000000000000
         C           -2.935101760633    -0.004901866970     0.036930831988    12.000000000000
         H           -1.236539760633    -2.152273866970    -0.010488168012     1.007825032230
         H           -1.236496760633     2.142547133030    -0.010473168012     1.007825032230
         H            1.228921239367    -2.155220866970    -0.009540168012     1.007825032230
         H            1.228973239367     2.145447133030    -0.009539168012     1.007825032230
         H           -3.342897760633     0.880915133030    -0.458789168012     1.007825032230
         H           -3.342989760633    -0.888613866970    -0.462470168012     1.007825032230
         H           -3.305429760633    -0.007048866970     1.068257831988     1.007825032230
         H            3.231506239367     0.824654133030     0.344486831988     1.007825032230
         H            3.231468239367    -0.834485866970     0.344533831988     1.007825032230

  Basis Set: AUG-CC-PVTZ
    Blend: AUG-CC-PVTZ
  Basis Set: (AUG-CC-PVTZ AUX)
    Blend: AUG-CC-PVTZ-JKFIT
	 Reference Energy          =    -324.8803050899344385 [Eh]
	 Singles Energy            =      -0.0000000000000000 [Eh]
	 Same-Spin Energy          =      -0.3595293657522279 [Eh]
	 Opposite-Spin Energy      =      -1.1511470350122854 [Eh]
	 Correlation Energy        =      -1.5106764007645133 [Eh]
	 Total Energy              =    -326.3909814906989482 [Eh]

	 ================> DF-SCS-MP2 Energies <==================
	-----------------------------------------------------------
	 SCS Same-Spin Scale       =       0.3333333333333333 [-]
	 SCS Opposite-Spin Scale   =       1.2000000000000000 [-]
	 SCS Same-Spin Energy      =      -0.1198431219174093 [Eh]
	 SCS Opposite-Spin Energy  =      -1.3813764420147425 [Eh]
	 SCS Correlation Energy    =      -1.5012195639321519 [Eh]
	 SCS Total Energy          =    -326.3815246538665633 [Eh]
	-----------------------------------------------------------

  Dipole Moment: [D]
     X:     0.5741      Y:    -0.0164      Z:     1.1240     Total:     1.2622

*** Psi4 exiting successfully. Buy a developer a beer!
