                               Psi4 1.3.2 release

  ==> Input File <==

--------------------------------------------------------------------------
#psi4
#
memory 32 gb

molecule  {
0 1
  N        2.8432420    -0.0000300    -0.0741500
  C       -1.3987330     0.0000320    -0.0172550
  C        1.4375000     0.0000010     0.0042750
  C       -0.6732730    -1.1974670    -0.0089890
  C       -0.6732520     1.1975000    -0.0089860
  C        0.7202200    -1.2039320    -0.0146160
  C        0.7202540     1.2039380    -0.0146150
  C       -2.9047610    -0.0000170     0.0277710
  H       -1.2061990    -2.1473890    -0.0196480
  H       -1.2061560     2.1474320    -0.0196330
  H        1.2592620    -2.1503360    -0.0187000
  H        1.2593140     2.1503320    -0.0186990
  H       -3.3125570     0.8858000    -0.4679490
  H       -3.3126490    -0.8837290    -0.4716300
  H       -3.2750890    -0.0021640     1.0590980
  H        3.2822867     0.8085973     0.3553241
  H        3.2618090    -0.8296010     0.3353740
units angstrom
no_reorient  #important for SAPT in psi4, default
symmetry c1  #important for SAPT in psi4, default
}

set PROPERTIES_ORIGIN ["COM"]
properties('MP2/aug-cc-pvtz', properties = ['dipole'])
--------------------------------------------------------------------------

    Molecular point group: c1
  Charge       = 0
  Multiplicity = 1
  Basis Set: AUG-CC-PVTZ
    Blend: AUG-CC-PVTZ
  Basis Set: (AUG-CC-PVTZ AUX)
    Blend: AUG-CC-PVTZ-JKFIT

    Orbital Energies [Eh]
    ---------------------

    Doubly Occupied:

       1A    -15.563613     2A    -11.272848     3A    -11.231071
       4A    -11.230871     5A    -11.227316     6A    -11.224520
       7A    -11.224304     8A    -11.218640     9A     -1.217990
      10A     -1.129736    11A     -1.020028    12A     -1.008021
      13A     -0.915062    14A     -0.830563    15A     -0.789599
      16A     -0.692132    17A     -0.679656    18A     -0.634104
      19A     -0.600089    20A     -0.585444    21A     -0.577835
      22A     -0.570203    23A     -0.530043    24A     -0.523685
      25A     -0.494900    26A     -0.480387    27A     -0.438649
      28A     -0.334238    29A     -0.288115

  @DF-RHF Final Energy:  -324.88242552353063

   => Energetics <=

    Nuclear Repulsion Energy =            341.9114870564613398
    One-Electron Energy =               -1116.5204995181725280
    Two-Electron Energy =                 449.7265869381806169
    Total Energy =                       -324.8824255235306282
  Basis Set: (AUG-CC-PVTZ AUX)
    Blend: AUG-CC-PVTZ-RI
    Molecular point group: c1

    Geometry (in Angstrom), charge = 0, multiplicity = 1:

       Center              X                  Y                   Z               Mass
    ------------   -----------------  -----------------  -----------------  -----------------
         N            2.812663204358     0.000165964170    -0.067724218733    14.003074004430
         C           -1.429311795642     0.000227964170    -0.010829218733    12.000000000000
         C            1.406921204358     0.000196964170     0.010700781267    12.000000000000
         C           -0.703851795642    -1.197271035830    -0.002563218733    12.000000000000
         C           -0.703830795642     1.197695964170    -0.002560218733    12.000000000000
         C            0.689641204358    -1.203736035830    -0.008190218733    12.000000000000
         C            0.689675204358     1.204133964170    -0.008189218733    12.000000000000
         C           -2.935339795642     0.000178964170     0.034196781267    12.000000000000
         H           -1.236777795642    -2.147193035830    -0.013222218733     1.007825032230
         H           -1.236734795642     2.147627964170    -0.013207218733     1.007825032230
         H            1.228683204358    -2.150140035830    -0.012274218733     1.007825032230
         H            1.228735204358     2.150527964170    -0.012273218733     1.007825032230
         H           -3.343135795642     0.885995964170    -0.461523218733     1.007825032230
         H           -3.343227795642    -0.883533035830    -0.465204218733     1.007825032230
         H           -3.305667795642    -0.001968035830     1.065523781267     1.007825032230
         H            3.251707904358     0.808793264170     0.361749881267     1.007825032230
         H            3.231230204358    -0.829405035830     0.341799781267     1.007825032230

  Basis Set: AUG-CC-PVTZ
    Blend: AUG-CC-PVTZ
  Basis Set: (AUG-CC-PVTZ AUX)
    Blend: AUG-CC-PVTZ-JKFIT
	 Reference Energy          =    -324.8824255235306282 [Eh]
	 Singles Energy            =      -0.0000000000000000 [Eh]
	 Same-Spin Energy          =      -0.3596027236904947 [Eh]
	 Opposite-Spin Energy      =      -1.1511317731076796 [Eh]
	 Correlation Energy        =      -1.5107344967981744 [Eh]
	 Total Energy              =    -326.3931600203288212 [Eh]

	 ================> DF-SCS-MP2 Energies <==================
	-----------------------------------------------------------
	 SCS Same-Spin Scale       =       0.3333333333333333 [-]
	 SCS Opposite-Spin Scale   =       1.2000000000000000 [-]
	 SCS Same-Spin Energy      =      -0.1198675745634982 [Eh]
	 SCS Opposite-Spin Energy  =      -1.3813581277292155 [Eh]
	 SCS Correlation Energy    =      -1.5012257022927138 [Eh]
	 SCS Total Energy          =    -326.3836512258233142 [Eh]
	-----------------------------------------------------------

  Dipole Moment: [D]
     X:     0.5754      Y:    -0.0135      Z:     1.1460     Total:     1.2824

*** Psi4 exiting successfully. Buy a developer a beer!
