                               Psi4 1.3.2 release

  ==> Input File <==

--------------------------------------------------------------------------
#psi4
#
memory 32 gb

molecule  {
0 1
  N        2.8432420    -0.0000300    -0.0741500
  C       -1.3987330     0.0000320    -0.0172550
  C        1.4375000     0.0000010     0.0042750
  C       -0.6732730    -1.1974670    -0.0089890
  C       -0.6732520     1.1975000    -0.0089860
  C        0.7202200    -1.2039320    -0.0146160
  C        0.7202540     1.2039380    -0.0146150
  C       -2.9047610    -0.0000170     0.0277710
  H       -1.2061990    -2.1473890    -0.0196480
  H       -1.2061560     2.1474320    -0.0196330
  H        1.2592620    -2.1503360    -0.0187000
  H        1.2593140     2.1503320    -0.0186990
  H       -3.2752793     0.8048252    -0.4226340
  H       -3.3126490    -0.8837290    -0.4716300
  H       -3.2750890    -0.0021640     1.0590980
  H        3.2618470     0.8295390     0.3353270
  H        3.2618090    -0.8296010     0.3353740
units angstrom
no_reorient  #important for SAPT in psi4, default
symmetry c1  #important for SAPT in psi4, default
}

set PROPERTIES_ORIGIN ["COM"]
properties('MP2/aug-cc-pvtz', properties = ['dipole'])
--------------------------------------------------------------------------

    Molecular point group: c1
  Charge       = 0
  Multiplicity = 1
  Basis Set: AUG-CC-PVTZ
    Blend: AUG-CC-PVTZ
  Basis Set: (AUG-CC-PVTZ AUX)
    Blend: AUG-CC-PVTZ-JKFIT

    Orbital Energies [Eh]
    ---------------------

    Doubly Occupied:

       1A    -15.563442     2A    -11.272313     3A    -11.230812
       4A    -11.230292     5A    -11.226376     6A    -11.224065
       7A    -11.223931     8A    -11.206090     9A     -1.217849
      10A     -1.129633    11A     -1.023231    12A     -1.007698
      13A     -0.921789    14A     -0.830657    15A     -0.790578
      16A     -0.690997    17A     -0.682406    18A     -0.634966
      19A     -0.604905    20A     -0.585045    21A     -0.577792
      22A     -0.573503    23A     -0.539598    24A     -0.523629
      25A     -0.494185    26A     -0.480746    27A     -0.438389
      28A     -0.333962    29A     -0.287487

  @DF-RHF Final Energy:  -324.87655256935034

   => Energetics <=

    Nuclear Repulsion Energy =            342.3943923808881209
    One-Electron Energy =               -1117.4491651681221356
    Two-Electron Energy =                 450.1782202178836769
    Total Energy =                       -324.8765525693503378
  Basis Set: (AUG-CC-PVTZ AUX)
    Blend: AUG-CC-PVTZ-RI
    Molecular point group: c1

    Geometry (in Angstrom), charge = 0, multiplicity = 1:

       Center              X                  Y                   Z               Mass
    ------------   -----------------  -----------------  -----------------  -----------------
         N            2.812504717356     0.000731023324    -0.067962522455    14.003074004430
         C           -1.429470282644     0.000793023324    -0.011067522455    12.000000000000
         C            1.406762717356     0.000762023324     0.010462477545    12.000000000000
         C           -0.704010282644    -1.196705976676    -0.002801522455    12.000000000000
         C           -0.703989282644     1.198261023324    -0.002798522455    12.000000000000
         C            0.689482717356    -1.203170976676    -0.008428522455    12.000000000000
         C            0.689516717356     1.204699023324    -0.008427522455    12.000000000000
         C           -2.935498282644     0.000744023324     0.033958477545    12.000000000000
         H           -1.236936282644    -2.146627976676    -0.013460522455     1.007825032230
         H           -1.236893282644     2.148193023324    -0.013445522455     1.007825032230
         H            1.228524717356    -2.149574976676    -0.012512522455     1.007825032230
         H            1.228576717356     2.151093023324    -0.012511522455     1.007825032230
         H           -3.306016582644     0.805586223324    -0.416446522455     1.007825032230
         H           -3.343386282644    -0.882967976676    -0.465442522455     1.007825032230
         H           -3.305826282644    -0.001402976676     1.065285477545     1.007825032230
         H            3.231109717356     0.830300023324     0.341514477545     1.007825032230
         H            3.231071717356    -0.828839976676     0.341561477545     1.007825032230

  Basis Set: AUG-CC-PVTZ
    Blend: AUG-CC-PVTZ
  Basis Set: (AUG-CC-PVTZ AUX)
    Blend: AUG-CC-PVTZ-JKFIT
	 Reference Energy          =    -324.8765525693503378 [Eh]
	 Singles Energy            =      -0.0000000000000000 [Eh]
	 Same-Spin Energy          =      -0.3596371404629435 [Eh]
	 Opposite-Spin Energy      =      -1.1506442281727116 [Eh]
	 Correlation Energy        =      -1.5102813686356551 [Eh]
	 Total Energy              =    -326.3868339379860117 [Eh]

	 ================> DF-SCS-MP2 Energies <==================
	-----------------------------------------------------------
	 SCS Same-Spin Scale       =       0.3333333333333333 [-]
	 SCS Opposite-Spin Scale   =       1.2000000000000000 [-]
	 SCS Same-Spin Energy      =      -0.1198790468209812 [Eh]
	 SCS Opposite-Spin Energy  =      -1.3807730738072539 [Eh]
	 SCS Correlation Energy    =      -1.5006521206282351 [Eh]
	 SCS Total Energy          =    -326.3772046899785551 [Eh]
	-----------------------------------------------------------

  Dipole Moment: [D]
     X:     0.5361      Y:     0.0306      Z:     1.1079     Total:     1.2312

*** Psi4 exiting successfully. Buy a developer a beer!
