                               Psi4 1.3.2 release

  ==> Input File <==

--------------------------------------------------------------------------
#psi4
#
memory 32 gb

molecule  {
0 1
  N        2.8432420    -0.0000300    -0.0741500
  C       -1.3987330     0.0000320    -0.0172550
  C        1.4375000     0.0000010     0.0042750
  C       -0.6732730    -1.1974670    -0.0089890
  C       -0.6732520     1.1975000    -0.0089860
  C        0.7202200    -1.2039320    -0.0146160
  C        0.7202540     1.2039380    -0.0146150
  C       -2.9047610    -0.0000170     0.0277710
  H       -1.2061990    -2.1473890    -0.0196480
  H       -1.2061560     2.1474320    -0.0196330
  H        1.2592620    -2.1503360    -0.0187000
  H        1.2593140     2.1503320    -0.0186990
  H       -3.3125570     0.8858000    -0.4679490
  H       -3.3126490    -0.8837290    -0.4716300
  H       -3.2750890    -0.0021640     1.0590980
  H        3.2408973     0.8494700     0.3148310
  H        3.2618090    -0.8296010     0.3353740
units angstrom
no_reorient  #important for SAPT in psi4, default
symmetry c1  #important for SAPT in psi4, default
}

set PROPERTIES_ORIGIN ["COM"]
properties('MP2/aug-cc-pvtz', properties = ['dipole'])
--------------------------------------------------------------------------

    Molecular point group: c1
  Charge       = 0
  Multiplicity = 1
  Basis Set: AUG-CC-PVTZ
    Blend: AUG-CC-PVTZ
  Basis Set: (AUG-CC-PVTZ AUX)
    Blend: AUG-CC-PVTZ-JKFIT

    Orbital Energies [Eh]
    ---------------------

    Doubly Occupied:

       1A    -15.563757     2A    -11.272471     3A    -11.231101
       4A    -11.230919     5A    -11.226968     6A    -11.224251
       7A    -11.224042     8A    -11.218489     9A     -1.218282
      10A     -1.129469    11A     -1.019494    12A     -1.008014
      13A     -0.914382    14A     -0.831127    15A     -0.788722
      16A     -0.689664    17A     -0.684516    18A     -0.633841
      19A     -0.602508    20A     -0.583890    21A     -0.577838
      22A     -0.570063    23A     -0.530169    24A     -0.523658
      25A     -0.494661    26A     -0.480468    27A     -0.438157
      28A     -0.334277    29A     -0.287370

  @DF-RHF Final Energy:  -324.88240121668747

   => Energetics <=

    Nuclear Repulsion Energy =            341.9819095155383479
    One-Electron Energy =               -1116.6634884275324566
    Two-Electron Energy =                 449.7991776953066960
    Total Energy =                       -324.8824012166874695
  Basis Set: (AUG-CC-PVTZ AUX)
    Blend: AUG-CC-PVTZ-RI
    Molecular point group: c1

    Geometry (in Angstrom), charge = 0, multiplicity = 1:

       Center              X                  Y                   Z               Mass
    ------------   -----------------  -----------------  -----------------  -----------------
         N            2.813052780431    -0.000218748485    -0.067343079048    14.003074004430
         C           -1.428922219569    -0.000156748485    -0.010448079048    12.000000000000
         C            1.407310780431    -0.000187748485     0.011081920952    12.000000000000
         C           -0.703462219569    -1.197655748485    -0.002182079048    12.000000000000
         C           -0.703441219569     1.197311251515    -0.002179079048    12.000000000000
         C            0.690030780431    -1.204120748485    -0.007809079048    12.000000000000
         C            0.690064780431     1.203749251515    -0.007808079048    12.000000000000
         C           -2.934950219569    -0.000205748485     0.034577920952    12.000000000000
         H           -1.236388219569    -2.147577748485    -0.012841079048     1.007825032230
         H           -1.236345219569     2.147243251515    -0.012826079048     1.007825032230
         H            1.229072780431    -2.150524748485    -0.011893079048     1.007825032230
         H            1.229124780431     2.150143251515    -0.011892079048     1.007825032230
         H           -3.342746219569     0.885611251515    -0.461142079048     1.007825032230
         H           -3.342838219569    -0.883917748485    -0.464823079048     1.007825032230
         H           -3.305278219569    -0.002352748485     1.065904920952     1.007825032230
         H            3.210708080431     0.849281251515     0.321637920952     1.007825032230
         H            3.231619780431    -0.829789748485     0.342180920952     1.007825032230

  Basis Set: AUG-CC-PVTZ
    Blend: AUG-CC-PVTZ
  Basis Set: (AUG-CC-PVTZ AUX)
    Blend: AUG-CC-PVTZ-JKFIT
	 Reference Energy          =    -324.8824012166874695 [Eh]
	 Singles Energy            =      -0.0000000000000000 [Eh]
	 Same-Spin Energy          =      -0.3596507610136619 [Eh]
	 Opposite-Spin Energy      =      -1.1511560669063179 [Eh]
	 Correlation Energy        =      -1.5108068279199798 [Eh]
	 Total Energy              =    -326.3932080446074337 [Eh]

	 ================> DF-SCS-MP2 Energies <==================
	-----------------------------------------------------------
	 SCS Same-Spin Scale       =       0.3333333333333333 [-]
	 SCS Opposite-Spin Scale   =       1.2000000000000000 [-]
	 SCS Same-Spin Energy      =      -0.1198835870045540 [Eh]
	 SCS Opposite-Spin Energy  =      -1.3813872802875815 [Eh]
	 SCS Correlation Energy    =      -1.5012708672921355 [Eh]
	 SCS Total Energy          =    -326.3836720839796044 [Eh]
	-----------------------------------------------------------

  Dipole Moment: [D]
     X:     0.5832      Y:     0.0116      Z:     1.1008     Total:     1.2457

*** Psi4 exiting successfully. Buy a developer a beer!
