                               Psi4 1.4a3.dev225

  ==> Input File <==

--------------------------------------------------------------------------
#psi4
#
memory 32 gb

molecule  {
0 1
  N        2.8432840     0.0000010    -0.0745030
  C       -1.3986540     0.0000000    -0.0170120
  C        1.4375310     0.0000000     0.0042070
  C       -0.6732940    -1.1975080    -0.0091010
  C       -0.6732940     1.1975090    -0.0091010
  C        0.7202880    -1.2039700    -0.0142280
  C        0.7202880     1.2039700    -0.0142290
  C       -2.9047420     0.0000000     0.0276170
  H       -1.2062760    -2.1473880    -0.0194750
  H       -1.2062760     2.1473880    -0.0194750
  H        1.2592860    -2.1503840    -0.0188250
  H        1.2592870     2.1503840    -0.0188280
  H       -3.3126320     0.8846740    -0.4701760
  H       -3.3126330    -0.8846640    -0.4701940
  H       -3.2755950    -0.0000100     1.0587510
  H        3.2533162     0.8131131     0.3273466
  H        3.2615550    -0.8294590     0.3354000
units angstrom
no_reorient  #important for SAPT in psi4, default
symmetry c1  #important for SAPT in psi4, default
}

set PROPERTIES_ORIGIN ["COM"]
properties('MP2/aug-cc-pvtz', properties = ['dipole'])
--------------------------------------------------------------------------

    Molecular point group: c1
  Charge       = 0
  Multiplicity = 1
  Basis Set: AUG-CC-PVTZ
    Blend: AUG-CC-PVTZ
  Basis Set: (AUG-CC-PVTZ AUX)
    Blend: AUG-CC-PVTZ-JKFIT

    Orbital Energies [Eh]
    ---------------------

    Doubly Occupied:

       1A    -15.561603     2A    -11.272651     3A    -11.231115
       4A    -11.230937     5A    -11.227186     6A    -11.224360
       7A    -11.224285     8A    -11.218597     9A     -1.220258
      10A     -1.130206    11A     -1.020328    12A     -1.008043
      13A     -0.915195    14A     -0.831078    15A     -0.789576
      16A     -0.691934    17A     -0.684454    18A     -0.634067
      19A     -0.602819    20A     -0.584994    21A     -0.577871
      22A     -0.570151    23A     -0.530240    24A     -0.523815
      25A     -0.494805    26A     -0.480518    27A     -0.438633
      28A     -0.334268    29A     -0.287902

  @DF-RHF Final Energy:  -324.88291182915179

   => Energetics <=

    Nuclear Repulsion Energy =            342.0474020716640098
    One-Electron Energy =               -1116.7768546076840721
    Two-Electron Energy =                 449.8465407068682680
    Total Energy =                       -324.8829118291517943
  Basis Set: (AUG-CC-PVTZ AUX)
    Blend: AUG-CC-PVTZ-RI
    Molecular point group: c1

    Geometry (in Angstrom), charge = 0, multiplicity = 1:

       Center              X                  Y                   Z               Mass
    ------------   -----------------  -----------------  -----------------  -----------------
         N            2.812963158379     0.000154612278    -0.067821631598    14.003074004430
         C           -1.428974841621     0.000153612278    -0.010330631598    12.000000000000
         C            1.407210158379     0.000153612278     0.010888368402    12.000000000000
         C           -0.703614841621    -1.197354387722    -0.002419631598    12.000000000000
         C           -0.703614841621     1.197662612278    -0.002419631598    12.000000000000
         C            0.689967158379    -1.203816387722    -0.007546631598    12.000000000000
         C            0.689967158379     1.204123612278    -0.007547631598    12.000000000000
         C           -2.935062841621     0.000153612278     0.034298368402    12.000000000000
         H           -1.236596841621    -2.147234387722    -0.012793631598     1.007825032230
         H           -1.236596841621     2.147541612278    -0.012793631598     1.007825032230
         H            1.228965158379    -2.150230387722    -0.012143631598     1.007825032230
         H            1.228966158379     2.150537612278    -0.012146631598     1.007825032230
         H           -3.342952841621     0.884827612278    -0.463494631598     1.007825032230
         H           -3.342953841621    -0.884510387722    -0.463512631598     1.007825032230
         H           -3.305915841621     0.000143612278     1.065432368402     1.007825032230
         H            3.222995358379     0.813266712278     0.334027968402     1.007825032230
         H            3.231234158379    -0.829305387722     0.342081368402     1.007825032230

  Basis Set: AUG-CC-PVTZ
    Blend: AUG-CC-PVTZ
  Basis Set: (AUG-CC-PVTZ AUX)
    Blend: AUG-CC-PVTZ-JKFIT
	 Reference Energy          =    -324.8829118291517943 [Eh]
	 Singles Energy            =      -0.0000000000000000 [Eh]
	 Same-Spin Energy          =      -0.3595022946011622 [Eh]
	 Opposite-Spin Energy      =      -1.1507951419303626 [Eh]
	 Correlation Energy        =      -1.5102974365315247 [Eh]
	 Total Energy              =    -326.3932092656833106 [Eh]

	 ================> DF-SCS-MP2 Energies <==================
	-----------------------------------------------------------
	 SCS Same-Spin Scale       =       0.3333333333333333 [-]
	 SCS Opposite-Spin Scale   =       1.2000000000000000 [-]
	 SCS Same-Spin Energy      =      -0.1198340982003874 [Eh]
	 SCS Opposite-Spin Energy  =      -1.3809541703164350 [Eh]
	 SCS Correlation Energy    =      -1.5007882685168223 [Eh]
	 SCS Total Energy          =    -326.3837000976686227 [Eh]
	-----------------------------------------------------------

  Dipole Moment: [D]
     X:     0.5742      Y:    -0.0086      Z:     1.1213     Total:     1.2598

*** Psi4 exiting successfully. Buy a developer a beer!
