                               Psi4 1.3.2 release

  ==> Input File <==

--------------------------------------------------------------------------
#psi4
#
memory 32 gb

molecule  {
0 1
  N        2.8432420    -0.0000300    -0.0741500
  C       -1.4039663     0.0912197    -0.0693833
  C        1.4375000     0.0000010     0.0042750
  C       -0.6732730    -1.1974670    -0.0089890
  C       -0.6732520     1.1975000    -0.0089860
  C        0.7202200    -1.2039320    -0.0146160
  C        0.7202540     1.2039380    -0.0146150
  C       -2.9047610    -0.0000170     0.0277710
  H       -1.2061990    -2.1473890    -0.0196480
  H       -1.2061560     2.1474320    -0.0196330
  H        1.2592620    -2.1503360    -0.0187000
  H        1.2593140     2.1503320    -0.0186990
  H       -3.3125570     0.8858000    -0.4679490
  H       -3.3126490    -0.8837290    -0.4716300
  H       -3.2750890    -0.0021640     1.0590980
  H        3.2618470     0.8295390     0.3353270
  H        3.2618090    -0.8296010     0.3353740
units angstrom
no_reorient  #important for SAPT in psi4, default
symmetry c1  #important for SAPT in psi4, default
}

set PROPERTIES_ORIGIN ["COM"]
properties('MP2/aug-cc-pvtz', properties = ['dipole'])
--------------------------------------------------------------------------

    Molecular point group: c1
  Charge       = 0
  Multiplicity = 1
  Basis Set: AUG-CC-PVTZ
    Blend: AUG-CC-PVTZ
  Basis Set: (AUG-CC-PVTZ AUX)
    Blend: AUG-CC-PVTZ-JKFIT

    Orbital Energies [Eh]
    ---------------------

    Doubly Occupied:

       1A    -15.564256     2A    -11.273445     3A    -11.240031
       4A    -11.227199     5A    -11.226992     6A    -11.221567
       7A    -11.220363     8A    -11.218955     9A     -1.218515
      10A     -1.130339    11A     -1.022968    12A     -1.005396
      13A     -0.915816    14A     -0.831848    15A     -0.786788
      16A     -0.691424    17A     -0.681591    18A     -0.633713
      19A     -0.600999    20A     -0.587553    21A     -0.576027
      22A     -0.570270    23A     -0.532264    24A     -0.522028
      25A     -0.503535    26A     -0.466287    27A     -0.438506
      28A     -0.336674    29A     -0.287246

  @DF-RHF Final Energy:  -324.87134291494192

   => Energetics <=

    Nuclear Repulsion Energy =            341.8769207816810081
    One-Electron Energy =               -1116.4313382193649886
    Two-Electron Energy =                 449.6830745227420039
    Total Energy =                       -324.8713429149419198
  Basis Set: (AUG-CC-PVTZ AUX)
    Blend: AUG-CC-PVTZ-RI
    Molecular point group: c1

    Geometry (in Angstrom), charge = 0, multiplicity = 1:

       Center              X                  Y                   Z               Mass
    ------------   -----------------  -----------------  -----------------  -----------------
         N            2.813442101488    -0.010250786724    -0.061693845371    14.003074004430
         C           -1.433766198512     0.080998913276    -0.056927145371    12.000000000000
         C            1.407700101488    -0.010219786724     0.016731154629    12.000000000000
         C           -0.703072898512    -1.207687786724     0.003467154629    12.000000000000
         C           -0.703051898512     1.187279213276     0.003470154629    12.000000000000
         C            0.690420101488    -1.214152786724    -0.002159845371    12.000000000000
         C            0.690454101488     1.193717213276    -0.002158845371    12.000000000000
         C           -2.934560898512    -0.010237786724     0.040227154629    12.000000000000
         H           -1.235998898512    -2.157609786724    -0.007191845371     1.007825032230
         H           -1.235955898512     2.137211213276    -0.007176845371     1.007825032230
         H            1.229462101488    -2.160556786724    -0.006243845371     1.007825032230
         H            1.229514101488     2.140111213276    -0.006242845371     1.007825032230
         H           -3.342356898512     0.875579213276    -0.455492845371     1.007825032230
         H           -3.342448898512    -0.893949786724    -0.459173845371     1.007825032230
         H           -3.304888898512    -0.012384786724     1.071554154629     1.007825032230
         H            3.232047101488     0.819318213276     0.347783154629     1.007825032230
         H            3.232009101488    -0.839821786724     0.347830154629     1.007825032230

  Basis Set: AUG-CC-PVTZ
    Blend: AUG-CC-PVTZ
  Basis Set: (AUG-CC-PVTZ AUX)
    Blend: AUG-CC-PVTZ-JKFIT
	 Reference Energy          =    -324.8713429149419198 [Eh]
	 Singles Energy            =      -0.0000000000000000 [Eh]
	 Same-Spin Energy          =      -0.3593841771664756 [Eh]
	 Opposite-Spin Energy      =      -1.1516691660146765 [Eh]
	 Correlation Energy        =      -1.5110533431811521 [Eh]
	 Total Energy              =    -326.3823962581230944 [Eh]

	 ================> DF-SCS-MP2 Energies <==================
	-----------------------------------------------------------
	 SCS Same-Spin Scale       =       0.3333333333333333 [-]
	 SCS Opposite-Spin Scale   =       1.2000000000000000 [-]
	 SCS Same-Spin Energy      =      -0.1197947257221585 [Eh]
	 SCS Opposite-Spin Energy  =      -1.3820029992176117 [Eh]
	 SCS Correlation Energy    =      -1.5017977249397703 [Eh]
	 SCS Total Energy          =    -326.3731406398816830 [Eh]
	-----------------------------------------------------------

  Dipole Moment: [D]
     X:     0.6037      Y:    -0.0776      Z:     1.1491     Total:     1.3004

*** Psi4 exiting successfully. Buy a developer a beer!
