                               Psi4 1.3.2 release

  ==> Input File <==

--------------------------------------------------------------------------
#psi4
#
memory 32 gb

molecule  {
0 1
  N        2.8432420    -0.0000300    -0.0741500
  C       -1.3987330     0.0000320    -0.0172550
  C        1.2378105     0.0000054     0.0154155
  C       -0.6732730    -1.1974670    -0.0089890
  C       -0.6732520     1.1975000    -0.0089860
  C        0.7202200    -1.2039320    -0.0146160
  C        0.7202540     1.2039380    -0.0146150
  C       -2.9047610    -0.0000170     0.0277710
  H       -1.2061990    -2.1473890    -0.0196480
  H       -1.2061560     2.1474320    -0.0196330
  H        1.2592620    -2.1503360    -0.0187000
  H        1.2593140     2.1503320    -0.0186990
  H       -3.3125570     0.8858000    -0.4679490
  H       -3.3126490    -0.8837290    -0.4716300
  H       -3.2750890    -0.0021640     1.0590980
  H        3.2618470     0.8295390     0.3353270
  H        3.2618090    -0.8296010     0.3353740
units angstrom
no_reorient  #important for SAPT in psi4, default
symmetry c1  #important for SAPT in psi4, default
}

set PROPERTIES_ORIGIN ["COM"]
properties('MP2/aug-cc-pvtz', properties = ['dipole'])
--------------------------------------------------------------------------

    Molecular point group: c1
  Charge       = 0
  Multiplicity = 1
  Basis Set: AUG-CC-PVTZ
    Blend: AUG-CC-PVTZ
  Basis Set: (AUG-CC-PVTZ AUX)
    Blend: AUG-CC-PVTZ-JKFIT

    Orbital Energies [Eh]
    ---------------------

    Doubly Occupied:

       1A    -15.542043     2A    -11.262419     3A    -11.236905
       4A    -11.236452     5A    -11.234910     6A    -11.224304
       7A    -11.224247     8A    -11.223808     9A     -1.192822
      10A     -1.117947    11A     -1.033188    12A     -1.029253
      13A     -0.920597    14A     -0.845656    15A     -0.792403
      16A     -0.681847    17A     -0.665324    18A     -0.632027
      19A     -0.619899    20A     -0.590499    21A     -0.576625
      22A     -0.552661    23A     -0.538093    24A     -0.523109
      25A     -0.501544    26A     -0.475319    27A     -0.413715
      28A     -0.343207    29A     -0.311231

  @DF-RHF Final Energy:  -324.84009765079099

   => Energetics <=

    Nuclear Repulsion Energy =            343.7026144447723937
    One-Electron Energy =               -1120.0013169778287647
    Two-Electron Energy =                 451.4586048822653765
    Total Energy =                       -324.8400976507909945
  Basis Set: (AUG-CC-PVTZ AUX)
    Blend: AUG-CC-PVTZ-RI
    Molecular point group: c1

    Geometry (in Angstrom), charge = 0, multiplicity = 1:

       Center              X                  Y                   Z               Mass
    ------------   -----------------  -----------------  -----------------  -----------------
         N            2.835235303498    -0.000031641864    -0.068784541061    14.003074004430
         C           -1.406739696502     0.000030358136    -0.011889541061    12.000000000000
         C            1.229803803498     0.000003758136     0.020780958939    12.000000000000
         C           -0.681279696502    -1.197468641864    -0.003623541061    12.000000000000
         C           -0.681258696502     1.197498358136    -0.003620541061    12.000000000000
         C            0.712213303498    -1.203933641864    -0.009250541061    12.000000000000
         C            0.712247303498     1.203936358136    -0.009249541061    12.000000000000
         C           -2.912767696502    -0.000018641864     0.033136458939    12.000000000000
         H           -1.214205696502    -2.147390641864    -0.014282541061     1.007825032230
         H           -1.214162696502     2.147430358136    -0.014267541061     1.007825032230
         H            1.251255303498    -2.150337641864    -0.013334541061     1.007825032230
         H            1.251307303498     2.150330358136    -0.013333541061     1.007825032230
         H           -3.320563696502     0.885798358136    -0.462583541061     1.007825032230
         H           -3.320655696502    -0.883730641864    -0.466264541061     1.007825032230
         H           -3.283095696502    -0.002165641864     1.064463458939     1.007825032230
         H            3.253840303498     0.829537358136     0.340692458939     1.007825032230
         H            3.253802303498    -0.829602641864     0.340739458939     1.007825032230

  Basis Set: AUG-CC-PVTZ
    Blend: AUG-CC-PVTZ
  Basis Set: (AUG-CC-PVTZ AUX)
    Blend: AUG-CC-PVTZ-JKFIT
	 Reference Energy          =    -324.8400976507909945 [Eh]
	 Singles Energy            =      -0.0000000000000000 [Eh]
	 Same-Spin Energy          =      -0.3599291684788076 [Eh]
	 Opposite-Spin Energy      =      -1.1529393404886767 [Eh]
	 Correlation Energy        =      -1.5128685089674843 [Eh]
	 Total Energy              =    -326.3529661597584663 [Eh]

	 ================> DF-SCS-MP2 Energies <==================
	-----------------------------------------------------------
	 SCS Same-Spin Scale       =       0.3333333333333333 [-]
	 SCS Opposite-Spin Scale   =       1.2000000000000000 [-]
	 SCS Same-Spin Energy      =      -0.1199763894929359 [Eh]
	 SCS Opposite-Spin Energy  =      -1.3835272085864121 [Eh]
	 SCS Correlation Energy    =      -1.5035035980793481 [Eh]
	 SCS Total Energy          =    -326.3436012488703568 [Eh]
	-----------------------------------------------------------

  Dipole Moment: [D]
     X:    -0.6404      Y:    -0.0002      Z:     1.1438     Total:     1.3109

*** Psi4 exiting successfully. Buy a developer a beer!
