                               Psi4 1.3.2 release

  ==> Input File <==

--------------------------------------------------------------------------
#psi4
#
memory 32 gb

molecule  {
0 1
  N        2.8432420    -0.0000300    -0.0741500
  C       -1.4046385    -0.1366110     0.0612690
  C        1.4375000     0.0000010     0.0042750
  C       -0.6732730    -1.1974670    -0.0089890
  C       -0.6732520     1.1975000    -0.0089860
  C        0.7202200    -1.2039320    -0.0146160
  C        0.7202540     1.2039380    -0.0146150
  C       -2.9047610    -0.0000170     0.0277710
  H       -1.2061990    -2.1473890    -0.0196480
  H       -1.2061560     2.1474320    -0.0196330
  H        1.2592620    -2.1503360    -0.0187000
  H        1.2593140     2.1503320    -0.0186990
  H       -3.3125570     0.8858000    -0.4679490
  H       -3.3126490    -0.8837290    -0.4716300
  H       -3.2750890    -0.0021640     1.0590980
  H        3.2618470     0.8295390     0.3353270
  H        3.2618090    -0.8296010     0.3353740
units angstrom
no_reorient  #important for SAPT in psi4, default
symmetry c1  #important for SAPT in psi4, default
}

set PROPERTIES_ORIGIN ["COM"]
properties('MP2/aug-cc-pvtz', properties = ['dipole'])
--------------------------------------------------------------------------

    Molecular point group: c1
  Charge       = 0
  Multiplicity = 1
  Basis Set: AUG-CC-PVTZ
    Blend: AUG-CC-PVTZ
  Basis Set: (AUG-CC-PVTZ AUX)
    Blend: AUG-CC-PVTZ-JKFIT

    Orbital Energies [Eh]
    ---------------------

    Doubly Occupied:

       1A    -15.564004     2A    -11.272985     3A    -11.243248
       4A    -11.228069     5A    -11.226564     6A    -11.219806
       7A    -11.219141     8A    -11.214810     9A     -1.218188
      10A     -1.131863    11A     -1.025761    12A     -1.003200
      13A     -0.917565    14A     -0.832913    15A     -0.784075
      16A     -0.691682    17A     -0.680613    18A     -0.633568
      19A     -0.600249    20A     -0.589345    21A     -0.574497
      22A     -0.571401    23A     -0.536386    24A     -0.523926
      25A     -0.504529    26A     -0.454967    27A     -0.439898
      28A     -0.339168    29A     -0.285866

  @DF-RHF Final Energy:  -324.85898347869676

   => Energetics <=

    Nuclear Repulsion Energy =            341.9341339271426818
    One-Electron Energy =               -1116.5296619697646747
    Two-Electron Energy =                 449.7365445639251789
    Total Energy =                       -324.8589834786967572
  Basis Set: (AUG-CC-PVTZ AUX)
    Blend: AUG-CC-PVTZ-RI
    Molecular point group: c1

    Geometry (in Angstrom), charge = 0, multiplicity = 1:

       Center              X                  Y                   Z               Mass
    ------------   -----------------  -----------------  -----------------  -----------------
         N            2.813517436656     0.015282780573    -0.076336381669    14.003074004430
         C           -1.434363063344    -0.121298219427     0.059082618331    12.000000000000
         C            1.407775436656     0.015313780573     0.002088618331    12.000000000000
         C           -0.702997563344    -1.182154219427    -0.011175381669    12.000000000000
         C           -0.702976563344     1.212812780573    -0.011172381669    12.000000000000
         C            0.690495436656    -1.188619219427    -0.016802381669    12.000000000000
         C            0.690529436656     1.219250780573    -0.016801381669    12.000000000000
         C           -2.934485563344     0.015295780573     0.025584618331    12.000000000000
         H           -1.235923563344    -2.132076219427    -0.021834381669     1.007825032230
         H           -1.235880563344     2.162744780573    -0.021819381669     1.007825032230
         H            1.229537436656    -2.135023219427    -0.020886381669     1.007825032230
         H            1.229589436656     2.165644780573    -0.020885381669     1.007825032230
         H           -3.342281563344     0.901112780573    -0.470135381669     1.007825032230
         H           -3.342373563344    -0.868416219427    -0.473816381669     1.007825032230
         H           -3.304813563344     0.013148780573     1.056911618331     1.007825032230
         H            3.232122436656     0.844851780573     0.333140618331     1.007825032230
         H            3.232084436656    -0.814288219427     0.333187618331     1.007825032230

  Basis Set: AUG-CC-PVTZ
    Blend: AUG-CC-PVTZ
  Basis Set: (AUG-CC-PVTZ AUX)
    Blend: AUG-CC-PVTZ-JKFIT
	 Reference Energy          =    -324.8589834786967572 [Eh]
	 Singles Energy            =      -0.0000000000000000 [Eh]
	 Same-Spin Energy          =      -0.3590590348146040 [Eh]
	 Opposite-Spin Energy      =      -1.1520277698109682 [Eh]
	 Correlation Energy        =      -1.5110868046255721 [Eh]
	 Total Energy              =    -326.3700702833223204 [Eh]

	 ================> DF-SCS-MP2 Energies <==================
	-----------------------------------------------------------
	 SCS Same-Spin Scale       =       0.3333333333333333 [-]
	 SCS Opposite-Spin Scale   =       1.2000000000000000 [-]
	 SCS Same-Spin Energy      =      -0.1196863449382013 [Eh]
	 SCS Opposite-Spin Energy  =      -1.3824333237731619 [Eh]
	 SCS Correlation Energy    =      -1.5021196687113632 [Eh]
	 SCS Total Energy          =    -326.3611031474081301 [Eh]
	-----------------------------------------------------------

  Dipole Moment: [D]
     X:     0.5501      Y:     0.1181      Z:     1.0852     Total:     1.2223

*** Psi4 exiting successfully. Buy a developer a beer!
