                               Psi4 1.3.2 release

  ==> Input File <==

--------------------------------------------------------------------------
#psi4
#
memory 32 gb

molecule  {
0 1
  N        2.8425181    -0.0491074    -0.0717084
  C       -1.3987330     0.0000320    -0.0172550
  C        1.4375000     0.0000010     0.0042750
  C       -0.6732730    -1.1974670    -0.0089890
  C       -0.6732520     1.1975000    -0.0089860
  C        0.7202200    -1.2039320    -0.0146160
  C        0.7202540     1.2039380    -0.0146150
  C       -2.9047610    -0.0000170     0.0277710
  H       -1.2061990    -2.1473890    -0.0196480
  H       -1.2061560     2.1474320    -0.0196330
  H        1.2592620    -2.1503360    -0.0187000
  H        1.2593140     2.1503320    -0.0186990
  H       -3.3125570     0.8858000    -0.4679490
  H       -3.3126490    -0.8837290    -0.4716300
  H       -3.2750890    -0.0021640     1.0590980
  H        3.2618470     0.8295390     0.3353270
  H        3.2618090    -0.8296010     0.3353740
units angstrom
no_reorient  #important for SAPT in psi4, default
symmetry c1  #important for SAPT in psi4, default
}

set PROPERTIES_ORIGIN ["COM"]
properties('MP2/aug-cc-pvtz', properties = ['dipole'])
--------------------------------------------------------------------------

    Molecular point group: c1
  Charge       = 0
  Multiplicity = 1
  Basis Set: AUG-CC-PVTZ
    Blend: AUG-CC-PVTZ
  Basis Set: (AUG-CC-PVTZ AUX)
    Blend: AUG-CC-PVTZ-JKFIT

    Orbital Energies [Eh]
    ---------------------

    Doubly Occupied:

       1A    -15.563466     2A    -11.272903     3A    -11.231399
       4A    -11.230628     5A    -11.227164     6A    -11.225306
       7A    -11.223355     8A    -11.218580     9A     -1.218656
      10A     -1.129801    11A     -1.020077    12A     -1.007995
      13A     -0.915072    14A     -0.830808    15A     -0.789782
      16A     -0.696265    17A     -0.677744    18A     -0.634283
      19A     -0.601984    20A     -0.582845    21A     -0.577865
      22A     -0.570153    23A     -0.529950    24A     -0.523745
      25A     -0.494778    26A     -0.480302    27A     -0.438399
      28A     -0.334292    29A     -0.287739

  @DF-RHF Final Energy:  -324.87930515636060

   => Energetics <=

    Nuclear Repulsion Energy =            341.9673349472221275
    One-Electron Energy =               -1116.6226023089191131
    Two-Electron Energy =                 449.7759622053364410
    Total Energy =                       -324.8793051563606014
  Basis Set: (AUG-CC-PVTZ AUX)
    Blend: AUG-CC-PVTZ-RI
    Molecular point group: c1

    Geometry (in Angstrom), charge = 0, multiplicity = 1:

       Center              X                  Y                   Z               Mass
    ------------   -----------------  -----------------  -----------------  -----------------
         N            2.812226363872    -0.042690205563    -0.065413709317    14.003074004430
         C           -1.429024736128     0.006449194437    -0.010960309317    12.000000000000
         C            1.407208263872     0.006418194437     0.010569690683    12.000000000000
         C           -0.703564736128    -1.191049805563    -0.002694309317    12.000000000000
         C           -0.703543736128     1.203917194437    -0.002691309317    12.000000000000
         C            0.689928263872    -1.197514805563    -0.008321309317    12.000000000000
         C            0.689962263872     1.210355194437    -0.008320309317    12.000000000000
         C           -2.935052736128     0.006400194437     0.034065690683    12.000000000000
         H           -1.236490736128    -2.140971805563    -0.013353309317     1.007825032230
         H           -1.236447736128     2.153849194437    -0.013338309317     1.007825032230
         H            1.228970263872    -2.143918805563    -0.012405309317     1.007825032230
         H            1.229022263872     2.156749194437    -0.012404309317     1.007825032230
         H           -3.342848736128     0.892217194437    -0.461654309317     1.007825032230
         H           -3.342940736128    -0.877311805563    -0.465335309317     1.007825032230
         H           -3.305380736128     0.004253194437     1.065392690683     1.007825032230
         H            3.231555263872     0.835956194437     0.341621690683     1.007825032230
         H            3.231517263872    -0.823183805563     0.341668690683     1.007825032230

  Basis Set: AUG-CC-PVTZ
    Blend: AUG-CC-PVTZ
  Basis Set: (AUG-CC-PVTZ AUX)
    Blend: AUG-CC-PVTZ-JKFIT
	 Reference Energy          =    -324.8793051563606014 [Eh]
	 Singles Energy            =      -0.0000000000000000 [Eh]
	 Same-Spin Energy          =      -0.3596464725006655 [Eh]
	 Opposite-Spin Energy      =      -1.1512463803258244 [Eh]
	 Correlation Energy        =      -1.5108928528264900 [Eh]
	 Total Energy              =    -326.3901980091870882 [Eh]

	 ================> DF-SCS-MP2 Energies <==================
	-----------------------------------------------------------
	 SCS Same-Spin Scale       =       0.3333333333333333 [-]
	 SCS Opposite-Spin Scale   =       1.2000000000000000 [-]
	 SCS Same-Spin Energy      =      -0.1198821575002218 [Eh]
	 SCS Opposite-Spin Energy  =      -1.3814956563909893 [Eh]
	 SCS Correlation Energy    =      -1.5013778138912111 [Eh]
	 SCS Total Energy          =    -326.3806829702518257 [Eh]
	-----------------------------------------------------------

  Dipole Moment: [D]
     X:     0.5769      Y:     0.0354      Z:     1.1196     Total:     1.2599

*** Psi4 exiting successfully. Buy a developer a beer!
