                               Psi4 1.3.2 release

  ==> Input File <==

--------------------------------------------------------------------------
#psi4
#
memory 32 gb

molecule  {
0 1
  N        2.8432420    -0.0000300    -0.0741500
  C       -1.3987330     0.0000320    -0.0172550
  C        1.4370822     0.0217925    -0.0070728
  C       -0.6732730    -1.1974670    -0.0089890
  C       -0.6732520     1.1975000    -0.0089860
  C        0.7202200    -1.2039320    -0.0146160
  C        0.7202540     1.2039380    -0.0146150
  C       -2.9047610    -0.0000170     0.0277710
  H       -1.2061990    -2.1473890    -0.0196480
  H       -1.2061560     2.1474320    -0.0196330
  H        1.2592620    -2.1503360    -0.0187000
  H        1.2593140     2.1503320    -0.0186990
  H       -3.3125570     0.8858000    -0.4679490
  H       -3.3126490    -0.8837290    -0.4716300
  H       -3.2750890    -0.0021640     1.0590980
  H        3.2618470     0.8295390     0.3353270
  H        3.2618090    -0.8296010     0.3353740
units angstrom
no_reorient  #important for SAPT in psi4, default
symmetry c1  #important for SAPT in psi4, default
}

set PROPERTIES_ORIGIN ["COM"]
properties('MP2/aug-cc-pvtz', properties = ['dipole'])
--------------------------------------------------------------------------

    Molecular point group: c1
  Charge       = 0
  Multiplicity = 1
  Basis Set: AUG-CC-PVTZ
    Blend: AUG-CC-PVTZ
  Basis Set: (AUG-CC-PVTZ AUX)
    Blend: AUG-CC-PVTZ-JKFIT

    Orbital Energies [Eh]
    ---------------------

    Doubly Occupied:

       1A    -15.563517     2A    -11.272674     3A    -11.231106
       4A    -11.230914     5A    -11.227132     6A    -11.226388
       7A    -11.221935     8A    -11.218560     9A     -1.217917
      10A     -1.129606    11A     -1.020308    12A     -1.007654
      13A     -0.914823    14A     -0.830853    15A     -0.789123
      16A     -0.691250    17A     -0.681904    18A     -0.634098
      19A     -0.601758    20A     -0.585037    21A     -0.577257
      22A     -0.570130    23A     -0.530121    24A     -0.523637
      25A     -0.495022    26A     -0.480085    27A     -0.438074
      28A     -0.334443    29A     -0.287665

  @DF-RHF Final Energy:  -324.88207123074676

   => Energetics <=

    Nuclear Repulsion Energy =            341.9569326048215885
    One-Electron Energy =               -1116.6120232339055747
    Two-Electron Energy =                 449.7730193983372828
    Total Energy =                       -324.8820712307467602
  Basis Set: (AUG-CC-PVTZ AUX)
    Blend: AUG-CC-PVTZ-RI
    Molecular point group: c1

    Geometry (in Angstrom), charge = 0, multiplicity = 1:

       Center              X                  Y                   Z               Mass
    ------------   -----------------  -----------------  -----------------  -----------------
         N            2.812902416129    -0.002473377697    -0.066264219956    14.003074004430
         C           -1.429072583871    -0.002411377697    -0.009369219956    12.000000000000
         C            1.406742616129     0.019349122303     0.000812980044    12.000000000000
         C           -0.703612583871    -1.199910377697    -0.001103219956    12.000000000000
         C           -0.703591583871     1.195056622303    -0.001100219956    12.000000000000
         C            0.689880416129    -1.206375377697    -0.006730219956    12.000000000000
         C            0.689914416129     1.201494622303    -0.006729219956    12.000000000000
         C           -2.935100583871    -0.002460377697     0.035656780044    12.000000000000
         H           -1.236538583871    -2.149832377697    -0.011762219956     1.007825032230
         H           -1.236495583871     2.144988622303    -0.011747219956     1.007825032230
         H            1.228922416129    -2.152779377697    -0.010814219956     1.007825032230
         H            1.228974416129     2.147888622303    -0.010813219956     1.007825032230
         H           -3.342896583871     0.883356622303    -0.460063219956     1.007825032230
         H           -3.342988583871    -0.886172377697    -0.463744219956     1.007825032230
         H           -3.305428583871    -0.004607377697     1.066983780044     1.007825032230
         H            3.231507416129     0.827095622303     0.343212780044     1.007825032230
         H            3.231469416129    -0.832044377697     0.343259780044     1.007825032230

  Basis Set: AUG-CC-PVTZ
    Blend: AUG-CC-PVTZ
  Basis Set: (AUG-CC-PVTZ AUX)
    Blend: AUG-CC-PVTZ-JKFIT
	 Reference Energy          =    -324.8820712307467602 [Eh]
	 Singles Energy            =      -0.0000000000000000 [Eh]
	 Same-Spin Energy          =      -0.3595883763421664 [Eh]
	 Opposite-Spin Energy      =      -1.1511066394658604 [Eh]
	 Correlation Energy        =      -1.5106950158080270 [Eh]
	 Total Energy              =    -326.3927662465547996 [Eh]

	 ================> DF-SCS-MP2 Energies <==================
	-----------------------------------------------------------
	 SCS Same-Spin Scale       =       0.3333333333333333 [-]
	 SCS Opposite-Spin Scale   =       1.2000000000000000 [-]
	 SCS Same-Spin Energy      =      -0.1198627921140555 [Eh]
	 SCS Opposite-Spin Energy  =      -1.3813279673590324 [Eh]
	 SCS Correlation Energy    =      -1.5011907594730878 [Eh]
	 SCS Total Energy          =    -326.3832619902198644 [Eh]
	-----------------------------------------------------------

  Dipole Moment: [D]
     X:     0.5775      Y:    -0.0084      Z:     1.1238     Total:     1.2635

*** Psi4 exiting successfully. Buy a developer a beer!
