                               Psi4 1.3.2 release

  ==> Input File <==

--------------------------------------------------------------------------
#psi4
#
memory 32 gb

molecule  {
0 1
  N        2.8395529     0.0980652    -0.0787437
  C       -1.3987330     0.0000320    -0.0172550
  C        1.4375000     0.0000010     0.0042750
  C       -0.6732730    -1.1974670    -0.0089890
  C       -0.6732520     1.1975000    -0.0089860
  C        0.7202200    -1.2039320    -0.0146160
  C        0.7202540     1.2039380    -0.0146150
  C       -2.9047610    -0.0000170     0.0277710
  H       -1.2061990    -2.1473890    -0.0196480
  H       -1.2061560     2.1474320    -0.0196330
  H        1.2592620    -2.1503360    -0.0187000
  H        1.2593140     2.1503320    -0.0186990
  H       -3.3125570     0.8858000    -0.4679490
  H       -3.3126490    -0.8837290    -0.4716300
  H       -3.2750890    -0.0021640     1.0590980
  H        3.2618470     0.8295390     0.3353270
  H        3.2618090    -0.8296010     0.3353740
units angstrom
no_reorient  #important for SAPT in psi4, default
symmetry c1  #important for SAPT in psi4, default
}

set PROPERTIES_ORIGIN ["COM"]
properties('MP2/aug-cc-pvtz', properties = ['dipole'])
--------------------------------------------------------------------------

    Molecular point group: c1
  Charge       = 0
  Multiplicity = 1
  Basis Set: AUG-CC-PVTZ
    Blend: AUG-CC-PVTZ
  Basis Set: (AUG-CC-PVTZ AUX)
    Blend: AUG-CC-PVTZ-JKFIT

    Orbital Energies [Eh]
    ---------------------

    Doubly Occupied:

       1A    -15.564209     2A    -11.273351     3A    -11.231910
       4A    -11.230409     5A    -11.227514     6A    -11.226620
       7A    -11.222725     8A    -11.218778     9A     -1.219663
      10A     -1.130278    11A     -1.020824    12A     -1.008069
      13A     -0.915935    14A     -0.830689    15A     -0.791425
      16A     -0.703563    17A     -0.670591    18A     -0.635245
      19A     -0.602220    20A     -0.578186    21A     -0.577617
      22A     -0.570344    23A     -0.529315    24A     -0.524199
      25A     -0.494718    26A     -0.479911    27A     -0.439020
      28A     -0.334474    29A     -0.288301

  @DF-RHF Final Energy:  -324.86936456827652

   => Energetics <=

    Nuclear Repulsion Energy =            341.9927315725573180
    One-Electron Energy =               -1116.6439850738338464
    Two-Electron Energy =                 449.7818889330000047
    Total Energy =                       -324.8693645682765236
  Basis Set: (AUG-CC-PVTZ AUX)
    Blend: AUG-CC-PVTZ-RI
    Molecular point group: c1

    Geometry (in Angstrom), charge = 0, multiplicity = 1:

       Center              X                  Y                   Z               Mass
    ------------   -----------------  -----------------  -----------------  -----------------
         N            2.809648952776     0.085235159381    -0.071528932667    14.003074004430
         C           -1.428636947224    -0.012798040619    -0.010040232667    12.000000000000
         C            1.407596052776    -0.012829040619     0.011489767333    12.000000000000
         C           -0.703176947224    -1.210297040619    -0.001774232667    12.000000000000
         C           -0.703155947224     1.184669959381    -0.001771232667    12.000000000000
         C            0.690316052776    -1.216762040619    -0.007401232667    12.000000000000
         C            0.690350052776     1.191107959381    -0.007400232667    12.000000000000
         C           -2.934664947224    -0.012847040619     0.034985767333    12.000000000000
         H           -1.236102947224    -2.160219040619    -0.012433232667     1.007825032230
         H           -1.236059947224     2.134601959381    -0.012418232667     1.007825032230
         H            1.229358052776    -2.163166040619    -0.011485232667     1.007825032230
         H            1.229410052776     2.137501959381    -0.011484232667     1.007825032230
         H           -3.342460947224     0.872969959381    -0.460734232667     1.007825032230
         H           -3.342552947224    -0.896559040619    -0.464415232667     1.007825032230
         H           -3.304992947224    -0.014994040619     1.066312767333     1.007825032230
         H            3.231943052776     0.816708959381     0.342541767333     1.007825032230
         H            3.231905052776    -0.842431040619     0.342588767333     1.007825032230

  Basis Set: AUG-CC-PVTZ
    Blend: AUG-CC-PVTZ
  Basis Set: (AUG-CC-PVTZ AUX)
    Blend: AUG-CC-PVTZ-JKFIT
	 Reference Energy          =    -324.8693645682765236 [Eh]
	 Singles Energy            =      -0.0000000000000000 [Eh]
	 Same-Spin Energy          =      -0.3597933101222379 [Eh]
	 Opposite-Spin Energy      =      -1.1518270565507938 [Eh]
	 Correlation Energy        =      -1.5116203666730317 [Eh]
	 Total Energy              =    -326.3809849349495380 [Eh]

	 ================> DF-SCS-MP2 Energies <==================
	-----------------------------------------------------------
	 SCS Same-Spin Scale       =       0.3333333333333333 [-]
	 SCS Opposite-Spin Scale   =       1.2000000000000000 [-]
	 SCS Same-Spin Energy      =      -0.1199311033740793 [Eh]
	 SCS Opposite-Spin Energy  =      -1.3821924678609525 [Eh]
	 SCS Correlation Energy    =      -1.5021235712350318 [Eh]
	 SCS Total Energy          =    -326.3714881395115412 [Eh]
	-----------------------------------------------------------

  Dipole Moment: [D]
     X:     0.5428      Y:    -0.0699      Z:     1.1329     Total:     1.2581

*** Psi4 exiting successfully. Buy a developer a beer!
