                               Psi4 1.3.2 release

  ==> Input File <==

--------------------------------------------------------------------------
#psi4
#
memory 32 gb

molecule  {
0 1
  N        2.8432420    -0.0000300    -0.0741500
  C       -1.4004333     0.0456536    -0.0433625
  C        1.4375000     0.0000010     0.0042750
  C       -0.6732730    -1.1974670    -0.0089890
  C       -0.6732520     1.1975000    -0.0089860
  C        0.7202200    -1.2039320    -0.0146160
  C        0.7202540     1.2039380    -0.0146150
  C       -2.9047610    -0.0000170     0.0277710
  H       -1.2061990    -2.1473890    -0.0196480
  H       -1.2061560     2.1474320    -0.0196330
  H        1.2592620    -2.1503360    -0.0187000
  H        1.2593140     2.1503320    -0.0186990
  H       -3.3125570     0.8858000    -0.4679490
  H       -3.3126490    -0.8837290    -0.4716300
  H       -3.2750890    -0.0021640     1.0590980
  H        3.2618470     0.8295390     0.3353270
  H        3.2618090    -0.8296010     0.3353740
units angstrom
no_reorient  #important for SAPT in psi4, default
symmetry c1  #important for SAPT in psi4, default
}

set PROPERTIES_ORIGIN ["COM"]
properties('MP2/aug-cc-pvtz', properties = ['dipole'])
--------------------------------------------------------------------------

    Molecular point group: c1
  Charge       = 0
  Multiplicity = 1
  Basis Set: AUG-CC-PVTZ
    Blend: AUG-CC-PVTZ
  Basis Set: (AUG-CC-PVTZ AUX)
    Blend: AUG-CC-PVTZ-JKFIT

    Orbital Energies [Eh]
    ---------------------

    Doubly Occupied:

       1A    -15.563901     2A    -11.272953     3A    -11.235757
       4A    -11.227508     5A    -11.225854     6A    -11.225713
       7A    -11.222606     8A    -11.218634     9A     -1.218274
      10A     -1.129742    11A     -1.020694    12A     -1.007230
      13A     -0.914965    14A     -0.831099    15A     -0.788537
      16A     -0.691017    17A     -0.682013    18A     -0.633893
      19A     -0.601285    20A     -0.585619    21A     -0.577255
      22A     -0.570100    23A     -0.530645    24A     -0.522877
      25A     -0.498398    26A     -0.475673    27A     -0.438386
      28A     -0.334898    29A     -0.287667

  @DF-RHF Final Energy:  -324.87961602070925

   => Energetics <=

    Nuclear Repulsion Energy =            341.9190927073616422
    One-Electron Energy =               -1116.5310283273722689
    Two-Electron Energy =                 449.7323195993013769
    Total Energy =                       -324.8796160207092498
  Basis Set: (AUG-CC-PVTZ AUX)
    Blend: AUG-CC-PVTZ-RI
    Molecular point group: c1

    Geometry (in Angstrom), charge = 0, multiplicity = 1:

       Center              X                  Y                   Z               Mass
    ------------   -----------------  -----------------  -----------------  -----------------
         N            2.813046149173    -0.005144077747    -0.064610062754    14.003074004430
         C           -1.430629150827     0.040539522253    -0.033822562754    12.000000000000
         C            1.407304149173    -0.005113077747     0.013814937246    12.000000000000
         C           -0.703468850827    -1.202581077747     0.000550937246    12.000000000000
         C           -0.703447850827     1.192385922253     0.000553937246    12.000000000000
         C            0.690024149173    -1.209046077747    -0.005076062754    12.000000000000
         C            0.690058149173     1.198823922253    -0.005075062754    12.000000000000
         C           -2.934956850827    -0.005131077747     0.037310937246    12.000000000000
         H           -1.236394850827    -2.152503077747    -0.010108062754     1.007825032230
         H           -1.236351850827     2.142317922253    -0.010093062754     1.007825032230
         H            1.229066149173    -2.155450077747    -0.009160062754     1.007825032230
         H            1.229118149173     2.145217922253    -0.009159062754     1.007825032230
         H           -3.342752850827     0.880685922253    -0.458409062754     1.007825032230
         H           -3.342844850827    -0.888843077747    -0.462090062754     1.007825032230
         H           -3.305284850827    -0.007278077747     1.068637937246     1.007825032230
         H            3.231651149173     0.824424922253     0.344866937246     1.007825032230
         H            3.231613149173    -0.834715077747     0.344913937246     1.007825032230

  Basis Set: AUG-CC-PVTZ
    Blend: AUG-CC-PVTZ
  Basis Set: (AUG-CC-PVTZ AUX)
    Blend: AUG-CC-PVTZ-JKFIT
	 Reference Energy          =    -324.8796160207092498 [Eh]
	 Singles Energy            =      -0.0000000000000000 [Eh]
	 Same-Spin Energy          =      -0.3595619989291377 [Eh]
	 Opposite-Spin Energy      =      -1.1512899591870336 [Eh]
	 Correlation Energy        =      -1.5108519581161712 [Eh]
	 Total Energy              =    -326.3904679788254271 [Eh]

	 ================> DF-SCS-MP2 Energies <==================
	-----------------------------------------------------------
	 SCS Same-Spin Scale       =       0.3333333333333333 [-]
	 SCS Opposite-Spin Scale   =       1.2000000000000000 [-]
	 SCS Same-Spin Energy      =      -0.1198539996430459 [Eh]
	 SCS Opposite-Spin Energy  =      -1.3815479510244402 [Eh]
	 SCS Correlation Energy    =      -1.5014019506674861 [Eh]
	 SCS Total Energy          =    -326.3810179713767639 [Eh]
	-----------------------------------------------------------

  Dipole Moment: [D]
     X:     0.5916      Y:    -0.0397      Z:     1.1365     Total:     1.2819

*** Psi4 exiting successfully. Buy a developer a beer!
