                               Psi4 1.3.2 release

  ==> Input File <==

--------------------------------------------------------------------------
#psi4
#
memory 32 gb

molecule  {
0 1
  N        2.8432420    -0.0000300    -0.0741500
  C       -1.3987330     0.0000320    -0.0172550
  C        1.4375000     0.0000010     0.0042750
  C       -0.6732730    -1.1974670    -0.0089890
  C       -0.6732520     1.1975000    -0.0089860
  C        0.7202200    -1.2039320    -0.0146160
  C        0.7202540     1.2039380    -0.0146150
  C       -2.9047610    -0.0000170     0.0277710
  H       -1.2061990    -2.1473890    -0.0196480
  H       -1.2061560     2.1474320    -0.0196330
  H        1.2592620    -2.1503360    -0.0187000
  H        1.2593140     2.1503320    -0.0186990
  H       -3.3125570     0.8858000    -0.4679490
  H       -3.3126490    -0.8837290    -0.4716300
  H       -3.2750890    -0.0021640     1.0590980
  H        3.2721322     0.8191929     0.3453894
  H        3.2618090    -0.8296010     0.3353740
units angstrom
no_reorient  #important for SAPT in psi4, default
symmetry c1  #important for SAPT in psi4, default
}

set PROPERTIES_ORIGIN ["COM"]
properties('MP2/aug-cc-pvtz', properties = ['dipole'])
--------------------------------------------------------------------------

    Molecular point group: c1
  Charge       = 0
  Multiplicity = 1
  Basis Set: AUG-CC-PVTZ
    Blend: AUG-CC-PVTZ
  Basis Set: (AUG-CC-PVTZ AUX)
    Blend: AUG-CC-PVTZ-JKFIT

    Orbital Energies [Eh]
    ---------------------

    Doubly Occupied:

       1A    -15.563657     2A    -11.272752     3A    -11.231071
       4A    -11.230887     5A    -11.227225     6A    -11.224401
       7A    -11.224286     8A    -11.218600     9A     -1.218049
      10A     -1.129665    11A     -1.019890    12A     -1.008016
      13A     -0.914888    14A     -0.830695    15A     -0.789373
      16A     -0.691475    17A     -0.680894    18A     -0.634034
      19A     -0.600734    20A     -0.585076    21A     -0.577833
      22A     -0.570166    23A     -0.530078    24A     -0.523683
      25A     -0.494837    26A     -0.480407    27A     -0.438528
      28A     -0.334246    29A     -0.287925

  @DF-RHF Final Energy:  -324.88251971265385

   => Energetics <=

    Nuclear Repulsion Energy =            341.9284432121580153
    One-Electron Energy =               -1116.5551848704340046
    Two-Electron Energy =                 449.7442219456220869
    Total Energy =                       -324.8825197126538455
  Basis Set: (AUG-CC-PVTZ AUX)
    Blend: AUG-CC-PVTZ-RI
    Molecular point group: c1

    Geometry (in Angstrom), charge = 0, multiplicity = 1:

       Center              X                  Y                   Z               Mass
    ------------   -----------------  -----------------  -----------------  -----------------
         N            2.812758783184     0.000066233508    -0.067630708766    14.003074004430
         C           -1.429216216816     0.000128233508    -0.010735708766    12.000000000000
         C            1.407016783184     0.000097233508     0.010794291234    12.000000000000
         C           -0.703756216816    -1.197370766492    -0.002469708766    12.000000000000
         C           -0.703735216816     1.197596233508    -0.002466708766    12.000000000000
         C            0.689736783184    -1.203835766492    -0.008096708766    12.000000000000
         C            0.689770783184     1.204034233508    -0.008095708766    12.000000000000
         C           -2.935244216816     0.000079233508     0.034290291234    12.000000000000
         H           -1.236682216816    -2.147292766492    -0.013128708766     1.007825032230
         H           -1.236639216816     2.147528233508    -0.013113708766     1.007825032230
         H            1.228778783184    -2.150239766492    -0.012180708766     1.007825032230
         H            1.228830783184     2.150428233508    -0.012179708766     1.007825032230
         H           -3.343040216816     0.885896233508    -0.461429708766     1.007825032230
         H           -3.343132216816    -0.883632766492    -0.465110708766     1.007825032230
         H           -3.305572216816    -0.002067766492     1.065617291234     1.007825032230
         H            3.241648983184     0.819289133508     0.351908691234     1.007825032230
         H            3.231325783184    -0.829504766492     0.341893291234     1.007825032230

  Basis Set: AUG-CC-PVTZ
    Blend: AUG-CC-PVTZ
  Basis Set: (AUG-CC-PVTZ AUX)
    Blend: AUG-CC-PVTZ-JKFIT
	 Reference Energy          =    -324.8825197126538455 [Eh]
	 Singles Energy            =      -0.0000000000000000 [Eh]
	 Same-Spin Energy          =      -0.3596098156382893 [Eh]
	 Opposite-Spin Energy      =      -1.1511300486578513 [Eh]
	 Correlation Energy        =      -1.5107398642961405 [Eh]
	 Total Energy              =    -326.3932595769499585 [Eh]

	 ================> DF-SCS-MP2 Energies <==================
	-----------------------------------------------------------
	 SCS Same-Spin Scale       =       0.3333333333333333 [-]
	 SCS Opposite-Spin Scale   =       1.2000000000000000 [-]
	 SCS Same-Spin Energy      =      -0.1198699385460964 [Eh]
	 SCS Opposite-Spin Energy  =      -1.3813560583894215 [Eh]
	 SCS Correlation Energy    =      -1.5012259969355179 [Eh]
	 SCS Total Energy          =    -326.3837457095893910 [Eh]
	-----------------------------------------------------------

  Dipole Moment: [D]
     X:     0.5778      Y:    -0.0067      Z:     1.1348     Total:     1.2735

*** Psi4 exiting successfully. Buy a developer a beer!
