                               Psi4 1.3.2 release

  ==> Input File <==

--------------------------------------------------------------------------
#psi4
#
memory 32 gb

molecule  {
0 1
  N        2.8432420    -0.0000300    -0.0741500
  C       -1.3987330     0.0000320    -0.0172550
  C        1.4375000     0.0000010     0.0042750
  C       -0.6732730    -1.1974670    -0.0089890
  C       -0.6732520     1.1975000    -0.0089860
  C        0.7202200    -1.2039320    -0.0146160
  C        0.7202540     1.2039380    -0.0146150
  C       -3.1046717    -0.0000235     0.0337478
  H       -1.2061990    -2.1473890    -0.0196480
  H       -1.2061560     2.1474320    -0.0196330
  H        1.2592620    -2.1503360    -0.0187000
  H        1.2593140     2.1503320    -0.0186990
  H       -3.3125570     0.8858000    -0.4679490
  H       -3.3126490    -0.8837290    -0.4716300
  H       -3.2750890    -0.0021640     1.0590980
  H        3.2618470     0.8295390     0.3353270
  H        3.2618090    -0.8296010     0.3353740
units angstrom
no_reorient  #important for SAPT in psi4, default
symmetry c1  #important for SAPT in psi4, default
}

set PROPERTIES_ORIGIN ["COM"]
properties('MP2/aug-cc-pvtz', properties = ['dipole'])
--------------------------------------------------------------------------

    Molecular point group: c1
  Charge       = 0
  Multiplicity = 1
  Basis Set: AUG-CC-PVTZ
    Blend: AUG-CC-PVTZ
  Basis Set: (AUG-CC-PVTZ AUX)
    Blend: AUG-CC-PVTZ-JKFIT

    Orbital Energies [Eh]
    ---------------------

    Doubly Occupied:

       1A    -15.563052     2A    -11.271854     3A    -11.234124
       4A    -11.230770     5A    -11.230550     6A    -11.223625
       7A    -11.223606     8A    -11.218319     9A     -1.217343
      10A     -1.122954    11A     -1.006876    12A     -1.004474
      13A     -0.924419    14A     -0.828124    15A     -0.789045
      16A     -0.689475    17A     -0.679848    18A     -0.623067
      19A     -0.604853    20A     -0.593929    21A     -0.578206
      22A     -0.576117    23A     -0.559861    24A     -0.524084
      25A     -0.482095    26A     -0.446955    27A     -0.439084
      28A     -0.333361    29A     -0.289255

  @DF-RHF Final Energy:  -324.85545473077036

   => Energetics <=

    Nuclear Repulsion Energy =            338.9597255939861498
    One-Electron Energy =               -1110.6117148037574225
    Two-Electron Energy =                 446.7965344790009112
    Total Energy =                       -324.8554547307703615
  Basis Set: (AUG-CC-PVTZ AUX)
    Blend: AUG-CC-PVTZ-RI
    Molecular point group: c1

    Geometry (in Angstrom), charge = 0, multiplicity = 1:

       Center              X                  Y                   Z               Mass
    ------------   -----------------  -----------------  -----------------  -----------------
         N            2.835260093946    -0.000030420273    -0.068205832039    14.003074004430
         C           -1.406714906054     0.000031579727    -0.011310832039    12.000000000000
         C            1.429518093946     0.000000579727     0.010219167961    12.000000000000
         C           -0.681254906054    -1.197467420273    -0.003044832039    12.000000000000
         C           -0.681233906054     1.197499579727    -0.003041832039    12.000000000000
         C            0.712238093946    -1.203932420273    -0.008671832039    12.000000000000
         C            0.712272093946     1.203937579727    -0.008670832039    12.000000000000
         C           -3.112653606054    -0.000023920273     0.039691967961    12.000000000000
         H           -1.214180906054    -2.147389420273    -0.013703832039     1.007825032230
         H           -1.214137906054     2.147431579727    -0.013688832039     1.007825032230
         H            1.251280093946    -2.150336420273    -0.012755832039     1.007825032230
         H            1.251332093946     2.150331579727    -0.012754832039     1.007825032230
         H           -3.320538906054     0.885799579727    -0.462004832039     1.007825032230
         H           -3.320630906054    -0.883729420273    -0.465685832039     1.007825032230
         H           -3.283070906054    -0.002164420273     1.065042167961     1.007825032230
         H            3.253865093946     0.829538579727     0.341271167961     1.007825032230
         H            3.253827093946    -0.829601420273     0.341318167961     1.007825032230

  Basis Set: AUG-CC-PVTZ
    Blend: AUG-CC-PVTZ
  Basis Set: (AUG-CC-PVTZ AUX)
    Blend: AUG-CC-PVTZ-JKFIT
	 Reference Energy          =    -324.8554547307703615 [Eh]
	 Singles Energy            =      -0.0000000000000000 [Eh]
	 Same-Spin Energy          =      -0.3594371988026343 [Eh]
	 Opposite-Spin Energy      =      -1.1521816443970714 [Eh]
	 Correlation Energy        =      -1.5116188431997057 [Eh]
	 Total Energy              =    -326.3670735739700604 [Eh]

	 ================> DF-SCS-MP2 Energies <==================
	-----------------------------------------------------------
	 SCS Same-Spin Scale       =       0.3333333333333333 [-]
	 SCS Opposite-Spin Scale   =       1.2000000000000000 [-]
	 SCS Same-Spin Energy      =      -0.1198123996008781 [Eh]
	 SCS Opposite-Spin Energy  =      -1.3826179732764856 [Eh]
	 SCS Correlation Energy    =      -1.5024303728773638 [Eh]
	 SCS Total Energy          =    -326.3578851036477317 [Eh]
	-----------------------------------------------------------

  Dipole Moment: [D]
     X:     0.6246      Y:    -0.0002      Z:     1.1227     Total:     1.2848

*** Psi4 exiting successfully. Buy a developer a beer!
