                               Psi4 1.4a3.dev225

  ==> Input File <==

--------------------------------------------------------------------------
#psi4
#
memory 32 gb

molecule  {
0 1
  N        2.8432840     0.0000010    -0.0745030
  C       -1.3986540     0.0000000    -0.0170120
  C        1.4375310     0.0000000     0.0042070
  C       -0.6732940    -1.1975080    -0.0091010
  C       -0.6732940     1.1975090    -0.0091010
  C        0.7202880    -1.2039700    -0.0142280
  C        0.7202880     1.2039700    -0.0142290
  C       -2.8547639     0.0000000     0.0261360
  H       -1.2062760    -2.1473880    -0.0194750
  H       -1.2062760     2.1473880    -0.0194750
  H        1.2592860    -2.1503840    -0.0188250
  H        1.2592870     2.1503840    -0.0188280
  H       -3.3126320     0.8846740    -0.4701760
  H       -3.3126330    -0.8846640    -0.4701940
  H       -3.2755950    -0.0000100     1.0587510
  H        3.2615550     0.8294510     0.3354210
  H        3.2615550    -0.8294590     0.3354000
units angstrom
no_reorient  #important for SAPT in psi4, default
symmetry c1  #important for SAPT in psi4, default
}

set PROPERTIES_ORIGIN ["COM"]
properties('MP2/aug-cc-pvtz', properties = ['dipole'])
--------------------------------------------------------------------------

    Molecular point group: c1
  Charge       = 0
  Multiplicity = 1
  Basis Set: AUG-CC-PVTZ
    Blend: AUG-CC-PVTZ
  Basis Set: (AUG-CC-PVTZ AUX)
    Blend: AUG-CC-PVTZ-JKFIT

    Orbital Energies [Eh]
    ---------------------

    Doubly Occupied:

       1A    -15.563982     2A    -11.273026     3A    -11.231222
       4A    -11.231124     5A    -11.224784     6A    -11.224566
       7A    -11.224517     8A    -11.220484     9A     -1.218486
      10A     -1.132438    11A     -1.025132    12A     -1.008441
      13A     -0.912350    14A     -0.831835    15A     -0.788897
      16A     -0.691381    17A     -0.683002    18A     -0.638789
      19A     -0.601665    20A     -0.587475    21A     -0.577982
      22A     -0.565631    23A     -0.524159    24A     -0.521277
      25A     -0.503090    26A     -0.478711    27A     -0.436774
      28A     -0.334587    29A     -0.287001

  @DF-RHF Final Energy:  -324.87924354744115

   => Energetics <=

    Nuclear Repulsion Energy =            342.7512171316776062
    One-Electron Energy =               -1118.1753087269578373
    Two-Electron Energy =                 450.5448480478391389
    Total Energy =                       -324.8792435474411491
  Basis Set: (AUG-CC-PVTZ AUX)
    Blend: AUG-CC-PVTZ-RI
    Molecular point group: c1

    Geometry (in Angstrom), charge = 0, multiplicity = 1:

       Center              X                  Y                   Z               Mass
    ------------   -----------------  -----------------  -----------------  -----------------
         N            2.807284437941     0.000000832447    -0.067731652120    14.003074004430
         C           -1.434653562059    -0.000000167553    -0.010240652120    12.000000000000
         C            1.401531437941    -0.000000167553     0.010978347880    12.000000000000
         C           -0.709293562059    -1.197508167553    -0.002329652120    12.000000000000
         C           -0.709293562059     1.197508832447    -0.002329652120    12.000000000000
         C            0.684288437941    -1.203970167553    -0.007456652120    12.000000000000
         C            0.684288437941     1.203969832447    -0.007457652120    12.000000000000
         C           -2.890763462059    -0.000000167553     0.032907347880    12.000000000000
         H           -1.242275562059    -2.147388167553    -0.012703652120     1.007825032230
         H           -1.242275562059     2.147387832447    -0.012703652120     1.007825032230
         H            1.223286437941    -2.150384167553    -0.012053652120     1.007825032230
         H            1.223287437941     2.150383832447    -0.012056652120     1.007825032230
         H           -3.348631562059     0.884673832447    -0.463404652120     1.007825032230
         H           -3.348632562059    -0.884664167553    -0.463422652120     1.007825032230
         H           -3.311594562059    -0.000010167553     1.065522347880     1.007825032230
         H            3.225555437941     0.829450832447     0.342192347880     1.007825032230
         H            3.225555437941    -0.829459167553     0.342171347880     1.007825032230

  Basis Set: AUG-CC-PVTZ
    Blend: AUG-CC-PVTZ
  Basis Set: (AUG-CC-PVTZ AUX)
    Blend: AUG-CC-PVTZ-JKFIT
	 Reference Energy          =    -324.8792435474411491 [Eh]
	 Singles Energy            =      -0.0000000000000000 [Eh]
	 Same-Spin Energy          =      -0.3601353622251499 [Eh]
	 Opposite-Spin Energy      =      -1.1516882603652405 [Eh]
	 Correlation Energy        =      -1.5118236225903905 [Eh]
	 Total Energy              =    -326.3910671700315334 [Eh]

	 ================> DF-SCS-MP2 Energies <==================
	-----------------------------------------------------------
	 SCS Same-Spin Scale       =       0.3333333333333333 [-]
	 SCS Opposite-Spin Scale   =       1.2000000000000000 [-]
	 SCS Same-Spin Energy      =      -0.1200451207417166 [Eh]
	 SCS Opposite-Spin Energy  =      -1.3820259124382885 [Eh]
	 SCS Correlation Energy    =      -1.5020710331800051 [Eh]
	 SCS Total Energy          =    -326.3813145806211651 [Eh]
	-----------------------------------------------------------

  Dipole Moment: [D]
     X:     0.5925      Y:    -0.0000      Z:     1.1234     Total:     1.2701

*** Psi4 exiting successfully. Buy a developer a beer!
