                               Psi4 1.3.2 release

  ==> Input File <==

--------------------------------------------------------------------------
#psi4
#
memory 32 gb

molecule  {
0 1
  N        2.8432420    -0.0000300    -0.0741500
  C       -1.3987330     0.0000320    -0.0172550
  C        1.4375000     0.0000010     0.0042750
  C       -0.6732730    -1.1974670    -0.0089890
  C       -0.6732520     1.1975000    -0.0089860
  C        0.7202200    -1.2039320    -0.0146160
  C        0.7202540     1.2039380    -0.0146150
  C       -2.9047610    -0.0000170     0.0277710
  H       -1.2061990    -2.1473890    -0.0196480
  H       -1.2061560     2.1474320    -0.0196330
  H        1.2592620    -2.1503360    -0.0187000
  H        1.2593140     2.1503320    -0.0186990
  H       -3.3125570     0.8858000    -0.4679490
  H       -3.3126490    -0.8837290    -0.4716300
  H       -3.2750890    -0.0021640     1.0590980
  H        3.2514343     0.8396324     0.3251398
  H        3.2618090    -0.8296010     0.3353740
units angstrom
no_reorient  #important for SAPT in psi4, default
symmetry c1  #important for SAPT in psi4, default
}

set PROPERTIES_ORIGIN ["COM"]
properties('MP2/aug-cc-pvtz', properties = ['dipole'])
--------------------------------------------------------------------------

    Molecular point group: c1
  Charge       = 0
  Multiplicity = 1
  Basis Set: AUG-CC-PVTZ
    Blend: AUG-CC-PVTZ
  Basis Set: (AUG-CC-PVTZ AUX)
    Blend: AUG-CC-PVTZ-JKFIT

    Orbital Energies [Eh]
    ---------------------

    Doubly Occupied:

       1A    -15.563729     2A    -11.272563     3A    -11.231085
       4A    -11.230911     5A    -11.227051     6A    -11.224261
       7A    -11.224160     8A    -11.218524     9A     -1.218195
      10A     -1.129531    11A     -1.019623    12A     -1.008012
      13A     -0.914548    14A     -0.830976    15A     -0.788934
      16A     -0.690219    17A     -0.683347    18A     -0.633902
      19A     -0.601944    20A     -0.584298    21A     -0.577834
      22A     -0.570095    23A     -0.530140    24A     -0.523670
      25A     -0.494718    26A     -0.480448    27A     -0.438282
      28A     -0.334265    29A     -0.287553

  @DF-RHF Final Energy:  -324.88250740775851

   => Energetics <=

    Nuclear Repulsion Energy =            341.9636548644494951
    One-Electron Energy =               -1116.6266813913014175
    Two-Electron Energy =                 449.7805191190934124
    Total Energy =                       -324.8825074077585100
  Basis Set: (AUG-CC-PVTZ AUX)
    Blend: AUG-CC-PVTZ-RI
    Molecular point group: c1

    Geometry (in Angstrom), charge = 0, multiplicity = 1:

       Center              X                  Y                   Z               Mass
    ------------   -----------------  -----------------  -----------------  -----------------
         N            2.812953601340    -0.000126152468    -0.067440110216    14.003074004430
         C           -1.429021398660    -0.000064152468    -0.010545110216    12.000000000000
         C            1.407211601340    -0.000095152468     0.010984889784    12.000000000000
         C           -0.703561398660    -1.197563152468    -0.002279110216    12.000000000000
         C           -0.703540398660     1.197403847532    -0.002276110216    12.000000000000
         C            0.689931601340    -1.204028152468    -0.007906110216    12.000000000000
         C            0.689965601340     1.203841847532    -0.007905110216    12.000000000000
         C           -2.935049398660    -0.000113152468     0.034480889784    12.000000000000
         H           -1.236487398660    -2.147485152468    -0.012938110216     1.007825032230
         H           -1.236444398660     2.147335847532    -0.012923110216     1.007825032230
         H            1.228973601340    -2.150432152468    -0.011990110216     1.007825032230
         H            1.229025601340     2.150235847532    -0.011989110216     1.007825032230
         H           -3.342845398660     0.885703847532    -0.461239110216     1.007825032230
         H           -3.342937398660    -0.883825152468    -0.464920110216     1.007825032230
         H           -3.305377398660    -0.002260152468     1.065807889784     1.007825032230
         H            3.221145901340     0.839536247532     0.331849689784     1.007825032230
         H            3.231520601340    -0.829697152468     0.342083889784     1.007825032230

  Basis Set: AUG-CC-PVTZ
    Blend: AUG-CC-PVTZ
  Basis Set: (AUG-CC-PVTZ AUX)
    Blend: AUG-CC-PVTZ-JKFIT
	 Reference Energy          =    -324.8825074077585100 [Eh]
	 Singles Energy            =      -0.0000000000000000 [Eh]
	 Same-Spin Energy          =      -0.3596338315167774 [Eh]
	 Opposite-Spin Energy      =      -1.1511422231842352 [Eh]
	 Correlation Energy        =      -1.5107760547010125 [Eh]
	 Total Energy              =    -326.3932834624595216 [Eh]

	 ================> DF-SCS-MP2 Energies <==================
	-----------------------------------------------------------
	 SCS Same-Spin Scale       =       0.3333333333333333 [-]
	 SCS Opposite-Spin Scale   =       1.2000000000000000 [-]
	 SCS Same-Spin Energy      =      -0.1198779438389258 [Eh]
	 SCS Opposite-Spin Energy  =      -1.3813706678210822 [Eh]
	 SCS Correlation Energy    =      -1.5012486116600079 [Eh]
	 SCS Total Energy          =    -326.3837560194185130 [Eh]
	-----------------------------------------------------------

  Dipole Moment: [D]
     X:     0.5817      Y:     0.0058      Z:     1.1122     Total:     1.2552

*** Psi4 exiting successfully. Buy a developer a beer!
