                               Psi4 1.3.2 release

  ==> Input File <==

--------------------------------------------------------------------------
#psi4
#
memory 32 gb

molecule  {
0 1
  N        2.8432420    -0.0000300    -0.0741500
  C       -1.3987330     0.0000320    -0.0172550
  C        1.4375000     0.0000010     0.0042750
  C       -0.6732730    -1.1974670    -0.0089890
  C       -0.6732520     1.1975000    -0.0089860
  C        0.7202200    -1.2039320    -0.0146160
  C        0.7202540     1.2039380    -0.0146150
  C       -2.9047610    -0.0000170     0.0277710
  H       -1.2061990    -2.1473890    -0.0196480
  H       -1.2061560     2.1474320    -0.0196330
  H        1.2592620    -2.1503360    -0.0187000
  H        1.2593140     2.1503320    -0.0186990
  H       -3.3498347     0.9667748    -0.5132640
  H       -3.3126490    -0.8837290    -0.4716300
  H       -3.2750890    -0.0021640     1.0590980
  H        3.2618470     0.8295390     0.3353270
  H        3.2618090    -0.8296010     0.3353740
units angstrom
no_reorient  #important for SAPT in psi4, default
symmetry c1  #important for SAPT in psi4, default
}

set PROPERTIES_ORIGIN ["COM"]
properties('MP2/aug-cc-pvtz', properties = ['dipole'])
--------------------------------------------------------------------------

    Molecular point group: c1
  Charge       = 0
  Multiplicity = 1
  Basis Set: AUG-CC-PVTZ
    Blend: AUG-CC-PVTZ
  Basis Set: (AUG-CC-PVTZ AUX)
    Blend: AUG-CC-PVTZ-JKFIT

    Orbital Energies [Eh]
    ---------------------

    Doubly Occupied:

       1A    -15.564057     2A    -11.273151     3A    -11.231904
       4A    -11.231302     5A    -11.230534     6A    -11.228042
       7A    -11.224747     8A    -11.224575     9A     -1.218501
      10A     -1.129870    11A     -1.017878    12A     -1.008442
      13A     -0.909698    14A     -0.831139    15A     -0.788228
      16A     -0.690988    17A     -0.682090    18A     -0.633778
      19A     -0.599708    20A     -0.584951    21A     -0.578177
      22A     -0.568129    23A     -0.525381    24A     -0.516077
      25A     -0.495364    26A     -0.479534    27A     -0.438364
      28A     -0.334660    29A     -0.288124

  @DF-RHF Final Energy:  -324.87601363191959

   => Energetics <=

    Nuclear Repulsion Energy =            341.5498964006166602
    One-Electron Energy =               -1115.7970361938794213
    Two-Electron Energy =                 449.3711261613431134
    Total Energy =                       -324.8760136319195908
  Basis Set: (AUG-CC-PVTZ AUX)
    Blend: AUG-CC-PVTZ-RI
    Molecular point group: c1

    Geometry (in Angstrom), charge = 0, multiplicity = 1:

       Center              X                  Y                   Z               Mass
    ------------   -----------------  -----------------  -----------------  -----------------
         N            2.813206467079    -0.000793320813    -0.067109471202    14.003074004430
         C           -1.428768532921    -0.000731320813    -0.010214471202    12.000000000000
         C            1.407464467079    -0.000762320813     0.011315528798    12.000000000000
         C           -0.703308532921    -1.198230320813    -0.001948471202    12.000000000000
         C           -0.703287532921     1.196736679187    -0.001945471202    12.000000000000
         C            0.690184467079    -1.204695320813    -0.007575471202    12.000000000000
         C            0.690218467079     1.203174679187    -0.007574471202    12.000000000000
         C           -2.934796532921    -0.000780320813     0.034811528798    12.000000000000
         H           -1.236234532921    -2.148152320813    -0.012607471202     1.007825032230
         H           -1.236191532921     2.146668679187    -0.012592471202     1.007825032230
         H            1.229226467079    -2.151099320813    -0.011659471202     1.007825032230
         H            1.229278467079     2.149568679187    -0.011658471202     1.007825032230
         H           -3.379870232921     0.966011479187    -0.506223471202     1.007825032230
         H           -3.342684532921    -0.884492320813    -0.464589471202     1.007825032230
         H           -3.305124532921    -0.002927320813     1.066138528798     1.007825032230
         H            3.231811467079     0.828775679187     0.342367528798     1.007825032230
         H            3.231773467079    -0.830364320813     0.342414528798     1.007825032230

  Basis Set: AUG-CC-PVTZ
    Blend: AUG-CC-PVTZ
  Basis Set: (AUG-CC-PVTZ AUX)
    Blend: AUG-CC-PVTZ-JKFIT
	 Reference Energy          =    -324.8760136319195908 [Eh]
	 Singles Energy            =      -0.0000000000000000 [Eh]
	 Same-Spin Energy          =      -0.3596246958065196 [Eh]
	 Opposite-Spin Energy      =      -1.1518600916033888 [Eh]
	 Correlation Energy        =      -1.5114847874099084 [Eh]
	 Total Energy              =    -326.3874984193295177 [Eh]

	 ================> DF-SCS-MP2 Energies <==================
	-----------------------------------------------------------
	 SCS Same-Spin Scale       =       0.3333333333333333 [-]
	 SCS Opposite-Spin Scale   =       1.2000000000000000 [-]
	 SCS Same-Spin Energy      =      -0.1198748986021732 [Eh]
	 SCS Opposite-Spin Energy  =      -1.3822321099240664 [Eh]
	 SCS Correlation Energy    =      -1.5021070085262396 [Eh]
	 SCS Total Energy          =    -326.3781206404458430 [Eh]
	-----------------------------------------------------------

  Dipole Moment: [D]
     X:     0.6371      Y:    -0.0416      Z:     1.1454     Total:     1.3113

*** Psi4 exiting successfully. Buy a developer a beer!
