                               Psi4 1.4a3.dev225

  ==> Input File <==

--------------------------------------------------------------------------
#psi4
#
memory 32 gb

molecule  {
0 1
  N        2.8432840     0.0000010    -0.0745030
  C       -1.3986540     0.0000000    -0.0170120
  C        1.4375310     0.0000000     0.0042070
  C       -0.6732940    -1.1975080    -0.0091010
  C       -0.6732940     1.1975090    -0.0091010
  C        0.7202880    -1.2039700    -0.0142280
  C        0.7202880     1.2039700    -0.0142290
  C       -2.8847508     0.0000000     0.0270246
  H       -1.2062760    -2.1473880    -0.0194750
  H       -1.2062760     2.1473880    -0.0194750
  H        1.2592860    -2.1503840    -0.0188250
  H        1.2592870     2.1503840    -0.0188280
  H       -3.3126320     0.8846740    -0.4701760
  H       -3.3126330    -0.8846640    -0.4701940
  H       -3.2755950    -0.0000100     1.0587510
  H        3.2615550     0.8294510     0.3354210
  H        3.2615550    -0.8294590     0.3354000
units angstrom
no_reorient  #important for SAPT in psi4, default
symmetry c1  #important for SAPT in psi4, default
}

set PROPERTIES_ORIGIN ["COM"]
properties('MP2/aug-cc-pvtz', properties = ['dipole'])
--------------------------------------------------------------------------

    Molecular point group: c1
  Charge       = 0
  Multiplicity = 1
  Basis Set: AUG-CC-PVTZ
    Blend: AUG-CC-PVTZ
  Basis Set: (AUG-CC-PVTZ AUX)
    Blend: AUG-CC-PVTZ-JKFIT

    Orbital Energies [Eh]
    ---------------------

    Doubly Occupied:

       1A    -15.563798     2A    -11.272795     3A    -11.231125
       4A    -11.230988     5A    -11.226244     6A    -11.224406
       7A    -11.224384     8A    -11.219267     9A     -1.218273
      10A     -1.130656    11A     -1.021818    12A     -1.008171
      13A     -0.913752    14A     -0.831229    15A     -0.789071
      16A     -0.691031    17A     -0.682464    18A     -0.635789
      19A     -0.601417    20A     -0.585809    21A     -0.577890
      22A     -0.568193    23A     -0.526509    24A     -0.523777
      25A     -0.498427    26A     -0.479895    27A     -0.437825
      28A     -0.334376    29A     -0.287495

  @DF-RHF Final Energy:  -324.88186501772680

   => Energetics <=

    Nuclear Repulsion Energy =            342.2622692238065270
    One-Electron Energy =               -1117.2145187037726828
    Two-Electron Energy =                 450.0703844622394172
    Total Energy =                       -324.8818650177267955
  Basis Set: (AUG-CC-PVTZ AUX)
    Blend: AUG-CC-PVTZ-RI
    Molecular point group: c1

    Geometry (in Angstrom), charge = 0, multiplicity = 1:

       Center              X                  Y                   Z               Mass
    ------------   -----------------  -----------------  -----------------  -----------------
         N            2.810645146262     0.000000832447    -0.067831239787    14.003074004430
         C           -1.431292853738    -0.000000167553    -0.010340239787    12.000000000000
         C            1.404892146262    -0.000000167553     0.010878760213    12.000000000000
         C           -0.705932853738    -1.197508167553    -0.002429239787    12.000000000000
         C           -0.705932853738     1.197508832447    -0.002429239787    12.000000000000
         C            0.687649146262    -1.203970167553    -0.007556239787    12.000000000000
         C            0.687649146262     1.203969832447    -0.007557239787    12.000000000000
         C           -2.917389653738    -0.000000167553     0.033696360213    12.000000000000
         H           -1.238914853738    -2.147388167553    -0.012803239787     1.007825032230
         H           -1.238914853738     2.147387832447    -0.012803239787     1.007825032230
         H            1.226647146262    -2.150384167553    -0.012153239787     1.007825032230
         H            1.226648146262     2.150383832447    -0.012156239787     1.007825032230
         H           -3.345270853738     0.884673832447    -0.463504239787     1.007825032230
         H           -3.345271853738    -0.884664167553    -0.463522239787     1.007825032230
         H           -3.308233853738    -0.000010167553     1.065422760213     1.007825032230
         H            3.228916146262     0.829450832447     0.342092760213     1.007825032230
         H            3.228916146262    -0.829459167553     0.342071760213     1.007825032230

  Basis Set: AUG-CC-PVTZ
    Blend: AUG-CC-PVTZ
  Basis Set: (AUG-CC-PVTZ AUX)
    Blend: AUG-CC-PVTZ-JKFIT
	 Reference Energy          =    -324.8818650177267955 [Eh]
	 Singles Energy            =      -0.0000000000000000 [Eh]
	 Same-Spin Energy          =      -0.3597993778528703 [Eh]
	 Opposite-Spin Energy      =      -1.1513107970863214 [Eh]
	 Correlation Energy        =      -1.5111101749391918 [Eh]
	 Total Energy              =    -326.3929751926659719 [Eh]

	 ================> DF-SCS-MP2 Energies <==================
	-----------------------------------------------------------
	 SCS Same-Spin Scale       =       0.3333333333333333 [-]
	 SCS Opposite-Spin Scale   =       1.2000000000000000 [-]
	 SCS Same-Spin Energy      =      -0.1199331259509568 [Eh]
	 SCS Opposite-Spin Energy  =      -1.3815729565035857 [Eh]
	 SCS Correlation Energy    =      -1.5015060824545425 [Eh]
	 SCS Total Energy          =    -326.3833711001813640 [Eh]
	-----------------------------------------------------------

  Dipole Moment: [D]
     X:     0.5828      Y:    -0.0000      Z:     1.1237     Total:     1.2658

*** Psi4 exiting successfully. Buy a developer a beer!
