                               Psi4 1.4a3.dev225

  ==> Input File <==

--------------------------------------------------------------------------
#psi4
#
memory 32 gb

molecule  {
0 1
  N        2.8432840     0.0000010    -0.0745030
  C       -1.3986540     0.0000000    -0.0170120
  C        1.4375310     0.0000000     0.0042070
  C       -0.6732940    -1.1975080    -0.0091010
  C       -0.6732940     1.1975090    -0.0091010
  C        0.7202880    -1.2039700    -0.0142280
  C        0.7202880     1.2039700    -0.0142290
  C       -2.9247332     0.0000000     0.0282094
  H       -1.2062760    -2.1473880    -0.0194750
  H       -1.2062760     2.1473880    -0.0194750
  H        1.2592860    -2.1503840    -0.0188250
  H        1.2592870     2.1503840    -0.0188280
  H       -3.3126320     0.8846740    -0.4701760
  H       -3.3126330    -0.8846640    -0.4701940
  H       -3.2755950    -0.0000100     1.0587510
  H        3.2615550     0.8294510     0.3354210
  H        3.2615550    -0.8294590     0.3354000
units angstrom
no_reorient  #important for SAPT in psi4, default
symmetry c1  #important for SAPT in psi4, default
}

set PROPERTIES_ORIGIN ["COM"]
properties('MP2/aug-cc-pvtz', properties = ['dipole'])
--------------------------------------------------------------------------

    Molecular point group: c1
  Charge       = 0
  Multiplicity = 1
  Basis Set: AUG-CC-PVTZ
    Blend: AUG-CC-PVTZ
  Basis Set: (AUG-CC-PVTZ AUX)
    Blend: AUG-CC-PVTZ-JKFIT

    Orbital Energies [Eh]
    ---------------------

    Doubly Occupied:

       1A    -15.563589     2A    -11.272535     3A    -11.231090
       4A    -11.230858     5A    -11.227979     6A    -11.224218
       7A    -11.224198     8A    -11.217993     9A     -1.218032
      10A     -1.128642    11A     -1.017787    12A     -1.007853
      13A     -0.915694    14A     -0.830503    15A     -0.789193
      16A     -0.690624    17A     -0.681830    18A     -0.632330
      19A     -0.601323    20A     -0.583659    21A     -0.577813
      22A     -0.572210    23A     -0.533623    24A     -0.523661
      25A     -0.490723    26A     -0.480893    27A     -0.438963
      28A     -0.334126    29A     -0.288025

  @DF-RHF Final Energy:  -324.88246358204157

   => Energetics <=

    Nuclear Repulsion Energy =            341.6279829486797439
    One-Electron Energy =               -1115.9609613799616454
    Two-Electron Energy =                 449.4505148492402782
    Total Energy =                       -324.8824635820415665
  Basis Set: (AUG-CC-PVTZ AUX)
    Blend: AUG-CC-PVTZ-RI
    Molecular point group: c1

    Geometry (in Angstrom), charge = 0, multiplicity = 1:

       Center              X                  Y                   Z               Mass
    ------------   -----------------  -----------------  -----------------  -----------------
         N            2.815126075746     0.000000832447    -0.067964023344    14.003074004430
         C           -1.426811924254    -0.000000167553    -0.010473023344    12.000000000000
         C            1.409373075746    -0.000000167553     0.010745976656    12.000000000000
         C           -0.701451924254    -1.197508167553    -0.002562023344    12.000000000000
         C           -0.701451924254     1.197508832447    -0.002562023344    12.000000000000
         C            0.692130075746    -1.203970167553    -0.007689023344    12.000000000000
         C            0.692130075746     1.203969832447    -0.007690023344    12.000000000000
         C           -2.952891124254    -0.000000167553     0.034748376656    12.000000000000
         H           -1.234433924254    -2.147388167553    -0.012936023344     1.007825032230
         H           -1.234433924254     2.147387832447    -0.012936023344     1.007825032230
         H            1.231128075746    -2.150384167553    -0.012286023344     1.007825032230
         H            1.231129075746     2.150383832447    -0.012289023344     1.007825032230
         H           -3.340789924254     0.884673832447    -0.463637023344     1.007825032230
         H           -3.340790924254    -0.884664167553    -0.463655023344     1.007825032230
         H           -3.303752924254    -0.000010167553     1.065289976656     1.007825032230
         H            3.233397075746     0.829450832447     0.341959976656     1.007825032230
         H            3.233397075746    -0.829459167553     0.341938976656     1.007825032230

  Basis Set: AUG-CC-PVTZ
    Blend: AUG-CC-PVTZ
  Basis Set: (AUG-CC-PVTZ AUX)
    Blend: AUG-CC-PVTZ-JKFIT
	 Reference Energy          =    -324.8824635820415665 [Eh]
	 Singles Energy            =      -0.0000000000000000 [Eh]
	 Same-Spin Energy          =      -0.3594694360466481 [Eh]
	 Opposite-Spin Energy      =      -1.1510088918653869 [Eh]
	 Correlation Energy        =      -1.5104783279120351 [Eh]
	 Total Energy              =    -326.3929419099536062 [Eh]

	 ================> DF-SCS-MP2 Energies <==================
	-----------------------------------------------------------
	 SCS Same-Spin Scale       =       0.3333333333333333 [-]
	 SCS Opposite-Spin Scale   =       1.2000000000000000 [-]
	 SCS Same-Spin Energy      =      -0.1198231453488827 [Eh]
	 SCS Opposite-Spin Energy  =      -1.3812106702384643 [Eh]
	 SCS Correlation Energy    =      -1.5010338155873471 [Eh]
	 SCS Total Energy          =    -326.3834973976289007 [Eh]
	-----------------------------------------------------------

  Dipole Moment: [D]
     X:     0.5754      Y:    -0.0000      Z:     1.1239     Total:     1.2626

*** Psi4 exiting successfully. Buy a developer a beer!
