                               Psi4 1.3.2 release

  ==> Input File <==

--------------------------------------------------------------------------
#psi4
#
memory 32 gb

molecule  {
0 1
  N        2.8432420    -0.0000300    -0.0741500
  C       -1.3987330     0.0000320    -0.0172550
  C        1.4489857    -0.1305160     0.0717395
  C       -0.6732730    -1.1974670    -0.0089890
  C       -0.6732520     1.1975000    -0.0089860
  C        0.7202200    -1.2039320    -0.0146160
  C        0.7202540     1.2039380    -0.0146150
  C       -2.9047610    -0.0000170     0.0277710
  H       -1.2061990    -2.1473890    -0.0196480
  H       -1.2061560     2.1474320    -0.0196330
  H        1.2592620    -2.1503360    -0.0187000
  H        1.2593140     2.1503320    -0.0186990
  H       -3.3125570     0.8858000    -0.4679490
  H       -3.3126490    -0.8837290    -0.4716300
  H       -3.2750890    -0.0021640     1.0590980
  H        3.2618470     0.8295390     0.3353270
  H        3.2618090    -0.8296010     0.3353740
units angstrom
no_reorient  #important for SAPT in psi4, default
symmetry c1  #important for SAPT in psi4, default
}

set PROPERTIES_ORIGIN ["COM"]
properties('MP2/aug-cc-pvtz', properties = ['dipole'])
--------------------------------------------------------------------------

    Molecular point group: c1
  Charge       = 0
  Multiplicity = 1
  Basis Set: AUG-CC-PVTZ
    Blend: AUG-CC-PVTZ
  Basis Set: (AUG-CC-PVTZ AUX)
    Blend: AUG-CC-PVTZ-JKFIT

    Orbital Energies [Eh]
    ---------------------

    Doubly Occupied:

       1A    -15.564989     2A    -11.270794     3A    -11.236590
       4A    -11.230573     5A    -11.230126     6A    -11.228556
       7A    -11.219122     8A    -11.211417     9A     -1.219595
      10A     -1.130295    11A     -1.030354    12A     -1.000216
      13A     -0.916998    14A     -0.828991    15A     -0.785611
      16A     -0.693240    17A     -0.679016    18A     -0.636641
      19A     -0.609136    20A     -0.586366    21A     -0.570767
      22A     -0.565678    23A     -0.529748    24A     -0.524799
      25A     -0.498327    26A     -0.466219    27A     -0.439650
      28A     -0.338504    29A     -0.286968

  @DF-RHF Final Energy:  -324.85890420665118

   => Energetics <=

    Nuclear Repulsion Energy =            341.8154603481569893
    One-Electron Energy =               -1116.2901623234984072
    Two-Electron Energy =                 449.6157977686902427
    Total Energy =                       -324.8589042066511752
  Basis Set: (AUG-CC-PVTZ AUX)
    Blend: AUG-CC-PVTZ-RI
    Molecular point group: c1

    Geometry (in Angstrom), charge = 0, multiplicity = 1:

       Center              X                  Y                   Z               Mass
    ------------   -----------------  -----------------  -----------------  -----------------
         N            2.811568360541     0.014596224138    -0.075096915313    14.003074004430
         C           -1.430406639459     0.014658224138    -0.018201915313    12.000000000000
         C            1.417312060541    -0.115889775862     0.070792584687    12.000000000000
         C           -0.704946639459    -1.182840775862    -0.009935915313    12.000000000000
         C           -0.704925639459     1.212126224138    -0.009932915313    12.000000000000
         C            0.688546360541    -1.189305775862    -0.015562915313    12.000000000000
         C            0.688580360541     1.218564224138    -0.015561915313    12.000000000000
         C           -2.936434639459     0.014609224138     0.026824084687    12.000000000000
         H           -1.237872639459    -2.132762775862    -0.020594915313     1.007825032230
         H           -1.237829639459     2.162058224138    -0.020579915313     1.007825032230
         H            1.227588360541    -2.135709775862    -0.019646915313     1.007825032230
         H            1.227640360541     2.164958224138    -0.019645915313     1.007825032230
         H           -3.344230639459     0.900426224138    -0.468895915313     1.007825032230
         H           -3.344322639459    -0.869102775862    -0.472576915313     1.007825032230
         H           -3.306762639459     0.012462224138     1.058151084687     1.007825032230
         H            3.230173360541     0.844165224138     0.334380084687     1.007825032230
         H            3.230135360541    -0.814974775862     0.334427084687     1.007825032230

  Basis Set: AUG-CC-PVTZ
    Blend: AUG-CC-PVTZ
  Basis Set: (AUG-CC-PVTZ AUX)
    Blend: AUG-CC-PVTZ-JKFIT
	 Reference Energy          =    -324.8589042066511752 [Eh]
	 Singles Energy            =      -0.0000000000000000 [Eh]
	 Same-Spin Energy          =      -0.3593221835324950 [Eh]
	 Opposite-Spin Energy      =      -1.1526302673392581 [Eh]
	 Correlation Energy        =      -1.5119524508717532 [Eh]
	 Total Energy              =    -326.3708566575229497 [Eh]

	 ================> DF-SCS-MP2 Energies <==================
	-----------------------------------------------------------
	 SCS Same-Spin Scale       =       0.3333333333333333 [-]
	 SCS Opposite-Spin Scale   =       1.2000000000000000 [-]
	 SCS Same-Spin Energy      =      -0.1197740611774983 [Eh]
	 SCS Opposite-Spin Energy  =      -1.3831563208071096 [Eh]
	 SCS Correlation Energy    =      -1.5029303819846080 [Eh]
	 SCS Total Energy          =    -326.3618345886357588 [Eh]
	-----------------------------------------------------------

  Dipole Moment: [D]
     X:     0.5747      Y:     0.0397      Z:     1.1237     Total:     1.2628

*** Psi4 exiting successfully. Buy a developer a beer!
