                               Psi4 1.3.2 release

  ==> Input File <==

--------------------------------------------------------------------------
#psi4
#
memory 32 gb

molecule  {
0 1
  N        2.8432420    -0.0000300    -0.0741500
  C       -1.3987330     0.0000320    -0.0172550
  C        1.4375000     0.0000010     0.0042750
  C       -0.8023465    -1.2666548    -0.0033995
  C       -0.6732520     1.1975000    -0.0089860
  C        0.7202200    -1.2039320    -0.0146160
  C        0.7202540     1.2039380    -0.0146150
  C       -2.9047610    -0.0000170     0.0277710
  H       -1.2061990    -2.1473890    -0.0196480
  H       -1.2061560     2.1474320    -0.0196330
  H        1.2592620    -2.1503360    -0.0187000
  H        1.2593140     2.1503320    -0.0186990
  H       -3.3125570     0.8858000    -0.4679490
  H       -3.3126490    -0.8837290    -0.4716300
  H       -3.2750890    -0.0021640     1.0590980
  H        3.2618470     0.8295390     0.3353270
  H        3.2618090    -0.8296010     0.3353740
units angstrom
no_reorient  #important for SAPT in psi4, default
symmetry c1  #important for SAPT in psi4, default
}

set PROPERTIES_ORIGIN ["COM"]
properties('MP2/aug-cc-pvtz', properties = ['dipole'])
--------------------------------------------------------------------------

    Molecular point group: c1
  Charge       = 0
  Multiplicity = 1
  Basis Set: AUG-CC-PVTZ
    Blend: AUG-CC-PVTZ
  Basis Set: (AUG-CC-PVTZ AUX)
    Blend: AUG-CC-PVTZ-JKFIT

    Orbital Energies [Eh]
    ---------------------

    Doubly Occupied:

       1A    -15.562672     2A    -11.272142     3A    -11.234663
       4A    -11.233981     5A    -11.233543     6A    -11.232100
       7A    -11.230720     8A    -11.215614     9A     -1.216404
      10A     -1.123580    11A     -1.022988    12A     -0.995205
      13A     -0.913679    14A     -0.843541    15A     -0.785025
      16A     -0.698243    17A     -0.677765    18A     -0.646282
      19A     -0.607158    20A     -0.589000    21A     -0.574125
      22A     -0.569112    23A     -0.528962    24A     -0.519813
      25A     -0.499827    26A     -0.469186    27A     -0.434119
      28A     -0.322703    29A     -0.291763

  @DF-RHF Final Energy:  -324.85268252275864

   => Energetics <=

    Nuclear Repulsion Energy =            340.1254011232394419
    One-Electron Energy =               -1112.8683350363212412
    Two-Electron Energy =                 447.8902513903231011
    Total Energy =                       -324.8526825227586414
  Basis Set: (AUG-CC-PVTZ AUX)
    Blend: AUG-CC-PVTZ-RI
    Molecular point group: c1

    Geometry (in Angstrom), charge = 0, multiplicity = 1:

       Center              X                  Y                   Z               Mass
    ------------   -----------------  -----------------  -----------------  -----------------
         N            2.827321188375     0.007722904364    -0.068162426341    14.003074004430
         C           -1.414653811625     0.007784904364    -0.011267426341    12.000000000000
         C            1.421579188375     0.007753904364     0.010262573659    12.000000000000
         C           -0.818267311625    -1.258901895636     0.002588073659    12.000000000000
         C           -0.689172811625     1.205252904364    -0.002998426341    12.000000000000
         C            0.704299188375    -1.196179095636    -0.008628426341    12.000000000000
         C            0.704333188375     1.211690904364    -0.008627426341    12.000000000000
         C           -2.920681811625     0.007735904364     0.033758573659    12.000000000000
         H           -1.222119811625    -2.139636095636    -0.013660426341     1.007825032230
         H           -1.222076811625     2.155184904364    -0.013645426341     1.007825032230
         H            1.243341188375    -2.142583095636    -0.012712426341     1.007825032230
         H            1.243393188375     2.158084904364    -0.012711426341     1.007825032230
         H           -3.328477811625     0.893552904364    -0.461961426341     1.007825032230
         H           -3.328569811625    -0.875976095636    -0.465642426341     1.007825032230
         H           -3.291009811625     0.005588904364     1.065085573659     1.007825032230
         H            3.245926188375     0.837291904364     0.341314573659     1.007825032230
         H            3.245888188375    -0.821848095636     0.341361573659     1.007825032230

  Basis Set: AUG-CC-PVTZ
    Blend: AUG-CC-PVTZ
  Basis Set: (AUG-CC-PVTZ AUX)
    Blend: AUG-CC-PVTZ-JKFIT
	 Reference Energy          =    -324.8526825227586414 [Eh]
	 Singles Energy            =      -0.0000000000000000 [Eh]
	 Same-Spin Energy          =      -0.3599688896966002 [Eh]
	 Opposite-Spin Energy      =      -1.1536887455826550 [Eh]
	 Correlation Energy        =      -1.5136576352792552 [Eh]
	 Total Energy              =    -326.3663401580378718 [Eh]

	 ================> DF-SCS-MP2 Energies <==================
	-----------------------------------------------------------
	 SCS Same-Spin Scale       =       0.3333333333333333 [-]
	 SCS Opposite-Spin Scale   =       1.2000000000000000 [-]
	 SCS Same-Spin Energy      =      -0.1199896298988667 [Eh]
	 SCS Opposite-Spin Energy  =      -1.3844264946991860 [Eh]
	 SCS Correlation Energy    =      -1.5044161245980527 [Eh]
	 SCS Total Energy          =    -326.3570986473566791 [Eh]
	-----------------------------------------------------------

  Dipole Moment: [D]
     X:     0.5689      Y:     0.0449      Z:     1.1188     Total:     1.2559

*** Psi4 exiting successfully. Buy a developer a beer!
