                               Psi4 1.3.2 release

  ==> Input File <==

--------------------------------------------------------------------------
#psi4
#
memory 32 gb

molecule  {
0 1
  N        2.8432420    -0.0000300    -0.0741500
  C       -1.3987330     0.0000320    -0.0172550
  C        1.4375000     0.0000010     0.0042750
  C       -0.5521478    -1.1151591    -0.0146691
  C       -0.6732520     1.1975000    -0.0089860
  C        0.7202200    -1.2039320    -0.0146160
  C        0.7202540     1.2039380    -0.0146150
  C       -2.9047610    -0.0000170     0.0277710
  H       -1.2061990    -2.1473890    -0.0196480
  H       -1.2061560     2.1474320    -0.0196330
  H        1.2592620    -2.1503360    -0.0187000
  H        1.2593140     2.1503320    -0.0186990
  H       -3.3125570     0.8858000    -0.4679490
  H       -3.3126490    -0.8837290    -0.4716300
  H       -3.2750890    -0.0021640     1.0590980
  H        3.2618470     0.8295390     0.3353270
  H        3.2618090    -0.8296010     0.3353740
units angstrom
no_reorient  #important for SAPT in psi4, default
symmetry c1  #important for SAPT in psi4, default
}

set PROPERTIES_ORIGIN ["COM"]
properties('MP2/aug-cc-pvtz', properties = ['dipole'])
--------------------------------------------------------------------------

    Molecular point group: c1
  Charge       = 0
  Multiplicity = 1
  Basis Set: AUG-CC-PVTZ
    Blend: AUG-CC-PVTZ
  Basis Set: (AUG-CC-PVTZ AUX)
    Blend: AUG-CC-PVTZ-JKFIT

    Orbital Energies [Eh]
    ---------------------

    Doubly Occupied:

       1A    -15.565458     2A    -11.274202     3A    -11.229752
       4A    -11.229589     5A    -11.225486     6A    -11.221901
       7A    -11.219069     8A    -11.212961     9A     -1.221846
      10A     -1.141062    11A     -1.032600    12A     -1.010311
      13A     -0.916334    14A     -0.821383    15A     -0.798354
      16A     -0.689584    17A     -0.686211    18A     -0.633426
      19A     -0.606120    20A     -0.582932    21A     -0.572253
      22A     -0.563362    23A     -0.534217    24A     -0.527490
      25A     -0.508328    26A     -0.449309    27A     -0.445050
      28A     -0.348196    29A     -0.284787

  @DF-RHF Final Energy:  -324.85479219284827

   => Energetics <=

    Nuclear Repulsion Energy =            344.1003478254380639
    One-Electron Energy =               -1120.8071351219605276
    Two-Electron Energy =                 451.8519951036741418
    Total Energy =                       -324.8547921928482651
  Basis Set: (AUG-CC-PVTZ AUX)
    Blend: AUG-CC-PVTZ-RI
    Molecular point group: c1

    Geometry (in Angstrom), charge = 0, multiplicity = 1:

       Center              X                  Y                   Z               Mass
    ------------   -----------------  -----------------  -----------------  -----------------
         N            2.799280782301    -0.009255604903    -0.066899413543    14.003074004430
         C           -1.442694217699    -0.009193604903    -0.010004413543    12.000000000000
         C            1.393538782301    -0.009224604903     0.011525586457    12.000000000000
         C           -0.596109017699    -1.124384704903    -0.007418513543    12.000000000000
         C           -0.717213217699     1.188274395097    -0.001735413543    12.000000000000
         C            0.676258782301    -1.213157604903    -0.007365413543    12.000000000000
         C            0.676292782301     1.194712395097    -0.007364413543    12.000000000000
         C           -2.948722217699    -0.009242604903     0.035021586457    12.000000000000
         H           -1.250160217699    -2.156614604903    -0.012397413543     1.007825032230
         H           -1.250117217699     2.138206395097    -0.012382413543     1.007825032230
         H            1.215300782301    -2.159561604903    -0.011449413543     1.007825032230
         H            1.215352782301     2.141106395097    -0.011448413543     1.007825032230
         H           -3.356518217699     0.876574395097    -0.460698413543     1.007825032230
         H           -3.356610217699    -0.892954604903    -0.464379413543     1.007825032230
         H           -3.319050217699    -0.011389604903     1.066348586457     1.007825032230
         H            3.217885782301     0.820313395097     0.342577586457     1.007825032230
         H            3.217847782301    -0.838826604903     0.342624586457     1.007825032230

  Basis Set: AUG-CC-PVTZ
    Blend: AUG-CC-PVTZ
  Basis Set: (AUG-CC-PVTZ AUX)
    Blend: AUG-CC-PVTZ-JKFIT
	 Reference Energy          =    -324.8547921928482651 [Eh]
	 Singles Energy            =      -0.0000000000000000 [Eh]
	 Same-Spin Energy          =      -0.3599655007143485 [Eh]
	 Opposite-Spin Energy      =      -1.1518306935830305 [Eh]
	 Correlation Energy        =      -1.5117961942973790 [Eh]
	 Total Energy              =    -326.3665883871456685 [Eh]

	 ================> DF-SCS-MP2 Energies <==================
	-----------------------------------------------------------
	 SCS Same-Spin Scale       =       0.3333333333333333 [-]
	 SCS Opposite-Spin Scale   =       1.2000000000000000 [-]
	 SCS Same-Spin Energy      =      -0.1199885002381162 [Eh]
	 SCS Opposite-Spin Energy  =      -1.3821968322996365 [Eh]
	 SCS Correlation Energy    =      -1.5021853325377528 [Eh]
	 SCS Total Energy          =    -326.3569775253860143 [Eh]
	-----------------------------------------------------------

  Dipole Moment: [D]
     X:     0.6440      Y:     0.0507      Z:     1.1278     Total:     1.2997

*** Psi4 exiting successfully. Buy a developer a beer!
