                               Psi4 1.3.2 release

  ==> Input File <==

--------------------------------------------------------------------------
#psi4
#
memory 32 gb

molecule  {
0 1
  N        2.8400825    -0.0981250    -0.0691742
  C       -1.3987330     0.0000320    -0.0172550
  C        1.4375000     0.0000010     0.0042750
  C       -0.6732730    -1.1974670    -0.0089890
  C       -0.6732520     1.1975000    -0.0089860
  C        0.7202200    -1.2039320    -0.0146160
  C        0.7202540     1.2039380    -0.0146150
  C       -2.9047610    -0.0000170     0.0277710
  H       -1.2061990    -2.1473890    -0.0196480
  H       -1.2061560     2.1474320    -0.0196330
  H        1.2592620    -2.1503360    -0.0187000
  H        1.2593140     2.1503320    -0.0186990
  H       -3.3125570     0.8858000    -0.4679490
  H       -3.3126490    -0.8837290    -0.4716300
  H       -3.2750890    -0.0021640     1.0590980
  H        3.2618470     0.8295390     0.3353270
  H        3.2618090    -0.8296010     0.3353740
units angstrom
no_reorient  #important for SAPT in psi4, default
symmetry c1  #important for SAPT in psi4, default
}

set PROPERTIES_ORIGIN ["COM"]
properties('MP2/aug-cc-pvtz', properties = ['dipole'])
--------------------------------------------------------------------------

    Molecular point group: c1
  Charge       = 0
  Multiplicity = 1
  Basis Set: AUG-CC-PVTZ
    Blend: AUG-CC-PVTZ
  Basis Set: (AUG-CC-PVTZ AUX)
    Blend: AUG-CC-PVTZ-JKFIT

    Orbital Energies [Eh]
    ---------------------

    Doubly Occupied:

       1A    -15.563261     2A    -11.273550     3A    -11.231869
       4A    -11.230360     5A    -11.227337     6A    -11.226501
       7A    -11.222605     8A    -11.218684     9A     -1.220076
      10A     -1.130369    11A     -1.020962    12A     -1.007998
      13A     -0.916076    14A     -0.830720    15A     -0.791627
      16A     -0.704588    17A     -0.671403    18A     -0.635188
      19A     -0.602911    20A     -0.578255    21A     -0.577771
      22A     -0.570262    23A     -0.529403    24A     -0.524032
      25A     -0.494756    26A     -0.479910    27A     -0.438591
      28A     -0.334429    29A     -0.287929

  @DF-RHF Final Energy:  -324.86936395145858

   => Energetics <=

    Nuclear Repulsion Energy =            342.0189665521580764
    One-Electron Energy =               -1116.6938148155770705
    Two-Electron Energy =                 449.8054843119604129
    Total Energy =                       -324.8693639514585811
  Basis Set: (AUG-CC-PVTZ AUX)
    Blend: AUG-CC-PVTZ-RI
    Molecular point group: c1

    Geometry (in Angstrom), charge = 0, multiplicity = 1:

       Center              X                  Y                   Z               Mass
    ------------   -----------------  -----------------  -----------------  -----------------
         N            2.810109291680    -0.085297283026    -0.063210932034    14.003074004430
         C           -1.428706208320     0.012859716974    -0.011291732034    12.000000000000
         C            1.407526791680     0.012828716974     0.010238267966    12.000000000000
         C           -0.703246208320    -1.184639283026    -0.003025732034    12.000000000000
         C           -0.703225208320     1.210327716974    -0.003022732034    12.000000000000
         C            0.690246791680    -1.191104283026    -0.008652732034    12.000000000000
         C            0.690280791680     1.216765716974    -0.008651732034    12.000000000000
         C           -2.934734208320     0.012810716974     0.033734267966    12.000000000000
         H           -1.236172208320    -2.134561283026    -0.013684732034     1.007825032230
         H           -1.236129208320     2.160259716974    -0.013669732034     1.007825032230
         H            1.229288791680    -2.137508283026    -0.012736732034     1.007825032230
         H            1.229340791680     2.163159716974    -0.012735732034     1.007825032230
         H           -3.342530208320     0.898627716974    -0.461985732034     1.007825032230
         H           -3.342622208320    -0.870901283026    -0.465666732034     1.007825032230
         H           -3.305062208320     0.010663716974     1.065061267966     1.007825032230
         H            3.231873791680     0.842366716974     0.341290267966     1.007825032230
         H            3.231835791680    -0.816773283026     0.341337267966     1.007825032230

  Basis Set: AUG-CC-PVTZ
    Blend: AUG-CC-PVTZ
  Basis Set: (AUG-CC-PVTZ AUX)
    Blend: AUG-CC-PVTZ-JKFIT
	 Reference Energy          =    -324.8693639514585811 [Eh]
	 Singles Energy            =      -0.0000000000000000 [Eh]
	 Same-Spin Energy          =      -0.3597491908098157 [Eh]
	 Opposite-Spin Energy      =      -1.1516663315559112 [Eh]
	 Correlation Energy        =      -1.5114155223657271 [Eh]
	 Total Energy              =    -326.3807794738243047 [Eh]

	 ================> DF-SCS-MP2 Energies <==================
	-----------------------------------------------------------
	 SCS Same-Spin Scale       =       0.3333333333333333 [-]
	 SCS Opposite-Spin Scale   =       1.2000000000000000 [-]
	 SCS Same-Spin Energy      =      -0.1199163969366052 [Eh]
	 SCS Opposite-Spin Energy  =      -1.3819995978670934 [Eh]
	 SCS Correlation Energy    =      -1.5019159948036986 [Eh]
	 SCS Total Energy          =    -326.3712799462622911 [Eh]
	-----------------------------------------------------------

  Dipole Moment: [D]
     X:     0.5596      Y:     0.0707      Z:     1.1159     Total:     1.2504

*** Psi4 exiting successfully. Buy a developer a beer!
