                               Psi4 1.3.2 release

  ==> Input File <==

--------------------------------------------------------------------------
#psi4
#
memory 32 gb

molecule  {
0 1
  N        2.8432420    -0.0000300    -0.0741500
  C       -1.3987330     0.0000320    -0.0172550
  C        1.4375000     0.0000010     0.0042750
  C       -0.6319473    -1.1714472    -0.0108754
  C       -0.6732520     1.1975000    -0.0089860
  C        0.7202200    -1.2039320    -0.0146160
  C        0.7202540     1.2039380    -0.0146150
  C       -2.9047610    -0.0000170     0.0277710
  H       -1.2061990    -2.1473890    -0.0196480
  H       -1.2061560     2.1474320    -0.0196330
  H        1.2592620    -2.1503360    -0.0187000
  H        1.2593140     2.1503320    -0.0186990
  H       -3.3125570     0.8858000    -0.4679490
  H       -3.3126490    -0.8837290    -0.4716300
  H       -3.2750890    -0.0021640     1.0590980
  H        3.2618470     0.8295390     0.3353270
  H        3.2618090    -0.8296010     0.3353740
units angstrom
no_reorient  #important for SAPT in psi4, default
symmetry c1  #important for SAPT in psi4, default
}

set PROPERTIES_ORIGIN ["COM"]
properties('MP2/aug-cc-pvtz', properties = ['dipole'])
--------------------------------------------------------------------------

    Molecular point group: c1
  Charge       = 0
  Multiplicity = 1
  Basis Set: AUG-CC-PVTZ
    Blend: AUG-CC-PVTZ
  Basis Set: (AUG-CC-PVTZ AUX)
    Blend: AUG-CC-PVTZ-JKFIT

    Orbital Energies [Eh]
    ---------------------

    Doubly Occupied:

       1A    -15.564180     2A    -11.273002     3A    -11.230422
       4A    -11.230256     5A    -11.226177     6A    -11.222354
       7A    -11.220467     8A    -11.219648     9A     -1.219060
      10A     -1.132748    11A     -1.021854    12A     -1.010469
      13A     -0.915189    14A     -0.827257    15A     -0.791883
      16A     -0.689734    17A     -0.683538    18A     -0.632779
      19A     -0.602535    20A     -0.582347    21A     -0.574647
      22A     -0.570689    23A     -0.530980    24A     -0.525231
      25A     -0.500000    26A     -0.472024    27A     -0.440422
      28A     -0.338743    29A     -0.286557

  @DF-RHF Final Energy:  -324.87976772271190

   => Energetics <=

    Nuclear Repulsion Energy =            342.6290767320681994
    One-Electron Energy =               -1117.9473042590384466
    Two-Electron Energy =                 450.4384598042584003
    Total Energy =                       -324.8797677227119038
  Basis Set: (AUG-CC-PVTZ AUX)
    Blend: AUG-CC-PVTZ-RI
    Molecular point group: c1

    Geometry (in Angstrom), charge = 0, multiplicity = 1:

       Center              X                  Y                   Z               Mass
    ------------   -----------------  -----------------  -----------------  -----------------
         N            2.808224115678    -0.002947254056    -0.067324583172    14.003074004430
         C           -1.433750884322    -0.002885254056    -0.010429583172    12.000000000000
         C            1.402482115678    -0.002916254056     0.011100416828    12.000000000000
         C           -0.666965184322    -1.174364454056    -0.004049983172    12.000000000000
         C           -0.708269884322     1.194582745944    -0.002160583172    12.000000000000
         C            0.685202115678    -1.206849254056    -0.007790583172    12.000000000000
         C            0.685236115678     1.201020745944    -0.007789583172    12.000000000000
         C           -2.939778884322    -0.002934254056     0.034596416828    12.000000000000
         H           -1.241216884322    -2.150306254056    -0.012822583172     1.007825032230
         H           -1.241173884322     2.144514745944    -0.012807583172     1.007825032230
         H            1.224244115678    -2.153253254056    -0.011874583172     1.007825032230
         H            1.224296115678     2.147414745944    -0.011873583172     1.007825032230
         H           -3.347574884322     0.882882745944    -0.461123583172     1.007825032230
         H           -3.347666884322    -0.886646254056    -0.464804583172     1.007825032230
         H           -3.310106884322    -0.005081254056     1.065923416828     1.007825032230
         H            3.226829115678     0.826621745944     0.342152416828     1.007825032230
         H            3.226791115678    -0.832518254056     0.342199416828     1.007825032230

  Basis Set: AUG-CC-PVTZ
    Blend: AUG-CC-PVTZ
  Basis Set: (AUG-CC-PVTZ AUX)
    Blend: AUG-CC-PVTZ-JKFIT
	 Reference Energy          =    -324.8797677227119038 [Eh]
	 Singles Energy            =      -0.0000000000000000 [Eh]
	 Same-Spin Energy          =      -0.3596549461191472 [Eh]
	 Opposite-Spin Energy      =      -1.1510255027314655 [Eh]
	 Correlation Energy        =      -1.5106804488506127 [Eh]
	 Total Energy              =    -326.3904481715625252 [Eh]

	 ================> DF-SCS-MP2 Energies <==================
	-----------------------------------------------------------
	 SCS Same-Spin Scale       =       0.3333333333333333 [-]
	 SCS Opposite-Spin Scale   =       1.2000000000000000 [-]
	 SCS Same-Spin Energy      =      -0.1198849820397157 [Eh]
	 SCS Opposite-Spin Energy  =      -1.3812306032777586 [Eh]
	 SCS Correlation Energy    =      -1.5011155853174742 [Eh]
	 SCS Total Energy          =    -326.3808833080293539 [Eh]
	-----------------------------------------------------------

  Dipole Moment: [D]
     X:     0.5929      Y:     0.0039      Z:     1.1250     Total:     1.2717

*** Psi4 exiting successfully. Buy a developer a beer!
