                               Psi4 1.3.2 release

  ==> Input File <==

--------------------------------------------------------------------------
#psi4
#
memory 32 gb

molecule  {
0 1
  N        2.8432420    -0.0000300    -0.0741500
  C       -1.3987330     0.0000320    -0.0172550
  C        1.4375000     0.0000010     0.0042750
  C       -0.6942705    -1.2099317    -0.0080495
  C       -0.6732520     1.1975000    -0.0089860
  C        0.7202200    -1.2039320    -0.0146160
  C        0.7202540     1.2039380    -0.0146150
  C       -2.9047610    -0.0000170     0.0277710
  H       -1.2061990    -2.1473890    -0.0196480
  H       -1.2061560     2.1474320    -0.0196330
  H        1.2592620    -2.1503360    -0.0187000
  H        1.2593140     2.1503320    -0.0186990
  H       -3.3125570     0.8858000    -0.4679490
  H       -3.3126490    -0.8837290    -0.4716300
  H       -3.2750890    -0.0021640     1.0590980
  H        3.2618470     0.8295390     0.3353270
  H        3.2618090    -0.8296010     0.3353740
units angstrom
no_reorient  #important for SAPT in psi4, default
symmetry c1  #important for SAPT in psi4, default
}

set PROPERTIES_ORIGIN ["COM"]
properties('MP2/aug-cc-pvtz', properties = ['dipole'])
--------------------------------------------------------------------------

    Molecular point group: c1
  Charge       = 0
  Multiplicity = 1
  Basis Set: AUG-CC-PVTZ
    Blend: AUG-CC-PVTZ
  Basis Set: (AUG-CC-PVTZ AUX)
    Blend: AUG-CC-PVTZ-JKFIT

    Orbital Energies [Eh]
    ---------------------

    Doubly Occupied:

       1A    -15.563485     2A    -11.272530     3A    -11.231465
       4A    -11.231277     5A    -11.227761     6A    -11.226138
       7A    -11.225285     8A    -11.218033     9A     -1.217731
      10A     -1.128254    11A     -1.019682    12A     -1.006040
      13A     -0.914501    14A     -0.832757    15A     -0.787993
      16A     -0.691636    17A     -0.681408    18A     -0.635093
      19A     -0.601267    20A     -0.586648    21A     -0.577948
      22A     -0.569890    23A     -0.529799    24A     -0.522914
      25A     -0.492368    26A     -0.483368    27A     -0.437518
      28A     -0.332105    29A     -0.288379

  @DF-RHF Final Energy:  -324.88151718532595

   => Energetics <=

    Nuclear Repulsion Energy =            341.6182692345101373
    One-Electron Energy =               -1115.9330245588271282
    Two-Electron Energy =                 449.4332381389911006
    Total Energy =                       -324.8815171853259471
  Basis Set: (AUG-CC-PVTZ AUX)
    Blend: AUG-CC-PVTZ-RI
    Molecular point group: c1

    Geometry (in Angstrom), charge = 0, multiplicity = 1:

       Center              X                  Y                   Z               Mass
    ------------   -----------------  -----------------  -----------------  -----------------
         N            2.815208835566     0.001365801958    -0.067641288988    14.003074004430
         C           -1.426766164434     0.001427801958    -0.010746288988    12.000000000000
         C            1.409466835566     0.001396801958     0.010783711012    12.000000000000
         C           -0.722303664434    -1.208535898042    -0.001540788988    12.000000000000
         C           -0.701285164434     1.198895801958    -0.002477288988    12.000000000000
         C            0.692186835566    -1.202536198042    -0.008107288988    12.000000000000
         C            0.692220835566     1.205333801958    -0.008106288988    12.000000000000
         C           -2.932794164434     0.001378801958     0.034279711012    12.000000000000
         H           -1.234232164434    -2.145993198042    -0.013139288988     1.007825032230
         H           -1.234189164434     2.148827801958    -0.013124288988     1.007825032230
         H            1.231228835566    -2.148940198042    -0.012191288988     1.007825032230
         H            1.231280835566     2.151727801958    -0.012190288988     1.007825032230
         H           -3.340590164434     0.887195801958    -0.461440288988     1.007825032230
         H           -3.340682164434    -0.882333198042    -0.465121288988     1.007825032230
         H           -3.303122164434    -0.000768198042     1.065606711012     1.007825032230
         H            3.233813835566     0.830934801958     0.341835711012     1.007825032230
         H            3.233775835566    -0.828205198042     0.341882711012     1.007825032230

  Basis Set: AUG-CC-PVTZ
    Blend: AUG-CC-PVTZ
  Basis Set: (AUG-CC-PVTZ AUX)
    Blend: AUG-CC-PVTZ-JKFIT
	 Reference Energy          =    -324.8815171853259471 [Eh]
	 Singles Energy            =      -0.0000000000000000 [Eh]
	 Same-Spin Energy          =      -0.3596311486420382 [Eh]
	 Opposite-Spin Energy      =      -1.1513274630173687 [Eh]
	 Correlation Energy        =      -1.5109586116594067 [Eh]
	 Total Energy              =    -326.3924757969853658 [Eh]

	 ================> DF-SCS-MP2 Energies <==================
	-----------------------------------------------------------
	 SCS Same-Spin Scale       =       0.3333333333333333 [-]
	 SCS Opposite-Spin Scale   =       1.2000000000000000 [-]
	 SCS Same-Spin Energy      =      -0.1198770495473460 [Eh]
	 SCS Opposite-Spin Energy  =      -1.3815929556208424 [Eh]
	 SCS Correlation Energy    =      -1.5014700051681884 [Eh]
	 SCS Total Energy          =    -326.3829871904941342 [Eh]
	-----------------------------------------------------------

  Dipole Moment: [D]
     X:     0.5757      Y:     0.0017      Z:     1.1228     Total:     1.2618

*** Psi4 exiting successfully. Buy a developer a beer!
