                               Psi4 1.3.2 release

  ==> Input File <==

--------------------------------------------------------------------------
#psi4
#
memory 32 gb

molecule  {
0 1
  N        2.8432420    -0.0000300    -0.0741500
  C       -1.3987330     0.0000320    -0.0172550
  C        1.4414159     0.1305177    -0.0640487
  C       -0.6732730    -1.1974670    -0.0089890
  C       -0.6732520     1.1975000    -0.0089860
  C        0.7202200    -1.2039320    -0.0146160
  C        0.7202540     1.2039380    -0.0146150
  C       -2.9047610    -0.0000170     0.0277710
  H       -1.2061990    -2.1473890    -0.0196480
  H       -1.2061560     2.1474320    -0.0196330
  H        1.2592620    -2.1503360    -0.0187000
  H        1.2593140     2.1503320    -0.0186990
  H       -3.3125570     0.8858000    -0.4679490
  H       -3.3126490    -0.8837290    -0.4716300
  H       -3.2750890    -0.0021640     1.0590980
  H        3.2618470     0.8295390     0.3353270
  H        3.2618090    -0.8296010     0.3353740
units angstrom
no_reorient  #important for SAPT in psi4, default
symmetry c1  #important for SAPT in psi4, default
}

set PROPERTIES_ORIGIN ["COM"]
properties('MP2/aug-cc-pvtz', properties = ['dipole'])
--------------------------------------------------------------------------

    Molecular point group: c1
  Charge       = 0
  Multiplicity = 1
  Basis Set: AUG-CC-PVTZ
    Blend: AUG-CC-PVTZ
  Basis Set: (AUG-CC-PVTZ AUX)
    Blend: AUG-CC-PVTZ-JKFIT

    Orbital Energies [Eh]
    ---------------------

    Doubly Occupied:

       1A    -15.562746     2A    -11.271504     3A    -11.236039
       4A    -11.230787     5A    -11.230490     6A    -11.228087
       7A    -11.218953     8A    -11.210081     9A     -1.217100
      10A     -1.130192    11A     -1.031106    12A     -1.000607
      13A     -0.917357    14A     -0.829687    15A     -0.786439
      16A     -0.695734    17A     -0.678823    18A     -0.637385
      19A     -0.609818    20A     -0.586825    21A     -0.570464
      22A     -0.566611    23A     -0.529796    24A     -0.524362
      25A     -0.498835    26A     -0.468136    27A     -0.435727
      28A     -0.339047    29A     -0.286543

  @DF-RHF Final Energy:  -324.86039648437043

   => Energetics <=

    Nuclear Repulsion Energy =            341.9668893019392613
    One-Electron Energy =               -1116.5960069548998490
    Two-Electron Energy =                 449.7687211685901048
    Total Energy =                       -324.8603964843704262
  Basis Set: (AUG-CC-PVTZ AUX)
    Blend: AUG-CC-PVTZ-RI
    Molecular point group: c1

    Geometry (in Angstrom), charge = 0, multiplicity = 1:

       Center              X                  Y                   Z               Mass
    ------------   -----------------  -----------------  -----------------  -----------------
         N            2.812416727323    -0.014658488005    -0.059878785610    14.003074004430
         C           -1.429558272677    -0.014596488005    -0.002983785610    12.000000000000
         C            1.410590627323     0.115889211995    -0.049777485610    12.000000000000
         C           -0.704098272677    -1.212095488005     0.005282214390    12.000000000000
         C           -0.704077272677     1.182871511995     0.005285214390    12.000000000000
         C            0.689394727323    -1.218560488005    -0.000344785610    12.000000000000
         C            0.689428727323     1.189309511995    -0.000343785610    12.000000000000
         C           -2.935586272677    -0.014645488005     0.042042214390    12.000000000000
         H           -1.237024272677    -2.162017488005    -0.005376785610     1.007825032230
         H           -1.236981272677     2.132803511995    -0.005361785610     1.007825032230
         H            1.228436727323    -2.164964488005    -0.004428785610     1.007825032230
         H            1.228488727323     2.135703511995    -0.004427785610     1.007825032230
         H           -3.343382272677     0.871171511995    -0.453677785610     1.007825032230
         H           -3.343474272677    -0.898357488005    -0.457358785610     1.007825032230
         H           -3.305914272677    -0.016792488005     1.073369214390     1.007825032230
         H            3.231021727323     0.814910511995     0.349598214390     1.007825032230
         H            3.230983727323    -0.844229488005     0.349645214390     1.007825032230

  Basis Set: AUG-CC-PVTZ
    Blend: AUG-CC-PVTZ
  Basis Set: (AUG-CC-PVTZ AUX)
    Blend: AUG-CC-PVTZ-JKFIT
	 Reference Energy          =    -324.8603964843704262 [Eh]
	 Singles Energy            =      -0.0000000000000000 [Eh]
	 Same-Spin Energy          =      -0.3591071820264413 [Eh]
	 Opposite-Spin Energy      =      -1.1519530461781302 [Eh]
	 Correlation Energy        =      -1.5110602282045715 [Eh]
	 Total Energy              =    -326.3714567125750250 [Eh]

	 ================> DF-SCS-MP2 Energies <==================
	-----------------------------------------------------------
	 SCS Same-Spin Scale       =       0.3333333333333333 [-]
	 SCS Opposite-Spin Scale   =       1.2000000000000000 [-]
	 SCS Same-Spin Energy      =      -0.1197023940088138 [Eh]
	 SCS Opposite-Spin Energy  =      -1.3823436554137563 [Eh]
	 SCS Correlation Energy    =      -1.5020460494225700 [Eh]
	 SCS Total Energy          =    -326.3624425337930006 [Eh]
	-----------------------------------------------------------

  Dipole Moment: [D]
     X:     0.5498      Y:    -0.0430      Z:     1.1234     Total:     1.2515

*** Psi4 exiting successfully. Buy a developer a beer!
