                               Psi4 1.3.2 release

  ==> Input File <==

--------------------------------------------------------------------------
#psi4
#
memory 32 gb

molecule  {
0 1
  N        2.8422532     0.0490475    -0.0764961
  C       -1.3987330     0.0000320    -0.0172550
  C        1.4375000     0.0000010     0.0042750
  C       -0.6732730    -1.1974670    -0.0089890
  C       -0.6732520     1.1975000    -0.0089860
  C        0.7202200    -1.2039320    -0.0146160
  C        0.7202540     1.2039380    -0.0146150
  C       -2.9047610    -0.0000170     0.0277710
  H       -1.2061990    -2.1473890    -0.0196480
  H       -1.2061560     2.1474320    -0.0196330
  H        1.2592620    -2.1503360    -0.0187000
  H        1.2593140     2.1503320    -0.0186990
  H       -3.3125570     0.8858000    -0.4679490
  H       -3.3126490    -0.8837290    -0.4716300
  H       -3.2750890    -0.0021640     1.0590980
  H        3.2618470     0.8295390     0.3353270
  H        3.2618090    -0.8296010     0.3353740
units angstrom
no_reorient  #important for SAPT in psi4, default
symmetry c1  #important for SAPT in psi4, default
}

set PROPERTIES_ORIGIN ["COM"]
properties('MP2/aug-cc-pvtz', properties = ['dipole'])
--------------------------------------------------------------------------

    Molecular point group: c1
  Charge       = 0
  Multiplicity = 1
  Basis Set: AUG-CC-PVTZ
    Blend: AUG-CC-PVTZ
  Basis Set: (AUG-CC-PVTZ AUX)
    Blend: AUG-CC-PVTZ-JKFIT

    Orbital Energies [Eh]
    ---------------------

    Doubly Occupied:

       1A    -15.563937     2A    -11.272809     3A    -11.231422
       4A    -11.230651     5A    -11.227254     6A    -11.225373
       7A    -11.223409     8A    -11.218628     9A     -1.218461
      10A     -1.129760    11A     -1.020015    12A     -1.008031
      13A     -0.915013    14A     -0.830789    15A     -0.789712
      16A     -0.695852    17A     -0.677179    18A     -0.634314
      19A     -0.601514    20A     -0.582810    21A     -0.577900
      22A     -0.570196    23A     -0.529917    24A     -0.523830
      25A     -0.494758    26A     -0.480311    27A     -0.438612
      28A     -0.334316    29A     -0.287925

  @DF-RHF Final Energy:  -324.87917702725161

   => Energetics <=

    Nuclear Repulsion Energy =            341.9545169803870976
    One-Electron Energy =               -1116.5979908449148752
    Two-Electron Energy =                 449.7642968372761629
    Total Energy =                       -324.8791770272516146
  Basis Set: (AUG-CC-PVTZ AUX)
    Blend: AUG-CC-PVTZ-RI
    Molecular point group: c1

    Geometry (in Angstrom), charge = 0, multiplicity = 1:

       Center              X                  Y                   Z               Mass
    ------------   -----------------  -----------------  -----------------  -----------------
         N            2.811996107498     0.042627994996    -0.069575273832    14.003074004430
         C           -1.428990092502    -0.006387505004    -0.010334173832    12.000000000000
         C            1.407242907498    -0.006418505004     0.011195826168    12.000000000000
         C           -0.703530092502    -1.203886505004    -0.002068173832    12.000000000000
         C           -0.703509092502     1.191080494996    -0.002065173832    12.000000000000
         C            0.689962907498    -1.210351505004    -0.007695173832    12.000000000000
         C            0.689996907498     1.197518494996    -0.007694173832    12.000000000000
         C           -2.935018092502    -0.006436505004     0.034691826168    12.000000000000
         H           -1.236456092502    -2.153808505004    -0.012727173832     1.007825032230
         H           -1.236413092502     2.141012494996    -0.012712173832     1.007825032230
         H            1.229004907498    -2.156755505004    -0.011779173832     1.007825032230
         H            1.229056907498     2.143912494996    -0.011778173832     1.007825032230
         H           -3.342814092502     0.879380494996    -0.461028173832     1.007825032230
         H           -3.342906092502    -0.890148505004    -0.464709173832     1.007825032230
         H           -3.305346092502    -0.008583505004     1.066018826168     1.007825032230
         H            3.231589907498     0.823119494996     0.342247826168     1.007825032230
         H            3.231551907498    -0.836020505004     0.342294826168     1.007825032230

  Basis Set: AUG-CC-PVTZ
    Blend: AUG-CC-PVTZ
  Basis Set: (AUG-CC-PVTZ AUX)
    Blend: AUG-CC-PVTZ-JKFIT
	 Reference Energy          =    -324.8791770272516146 [Eh]
	 Singles Energy            =      -0.0000000000000000 [Eh]
	 Same-Spin Energy          =      -0.3596694799930853 [Eh]
	 Opposite-Spin Energy      =      -1.1513287230218774 [Eh]
	 Correlation Energy        =      -1.5109982030149627 [Eh]
	 Total Energy              =    -326.3901752302665500 [Eh]

	 ================> DF-SCS-MP2 Energies <==================
	-----------------------------------------------------------
	 SCS Same-Spin Scale       =       0.3333333333333333 [-]
	 SCS Opposite-Spin Scale   =       1.2000000000000000 [-]
	 SCS Same-Spin Energy      =      -0.1198898266643618 [Eh]
	 SCS Opposite-Spin Energy  =      -1.3815944676262528 [Eh]
	 SCS Correlation Energy    =      -1.5014842942906146 [Eh]
	 SCS Total Energy          =    -326.3806613215422203 [Eh]
	-----------------------------------------------------------

  Dipole Moment: [D]
     X:     0.5684      Y:    -0.0355      Z:     1.1280     Total:     1.2636

*** Psi4 exiting successfully. Buy a developer a beer!
