                               Psi4 1.3.2 release

  ==> Input File <==

--------------------------------------------------------------------------
#psi4
#
memory 32 gb

molecule  {
0 1
  N        2.8432420    -0.0000300    -0.0741500
  C       -1.3987330     0.0000320    -0.0172550
  C        1.4375000     0.0000010     0.0042750
  C       -0.5915559    -1.1440001    -0.0127695
  C       -0.6732520     1.1975000    -0.0089860
  C        0.7202200    -1.2039320    -0.0146160
  C        0.7202540     1.2039380    -0.0146150
  C       -2.9047610    -0.0000170     0.0277710
  H       -1.2061990    -2.1473890    -0.0196480
  H       -1.2061560     2.1474320    -0.0196330
  H        1.2592620    -2.1503360    -0.0187000
  H        1.2593140     2.1503320    -0.0186990
  H       -3.3125570     0.8858000    -0.4679490
  H       -3.3126490    -0.8837290    -0.4716300
  H       -3.2750890    -0.0021640     1.0590980
  H        3.2618470     0.8295390     0.3353270
  H        3.2618090    -0.8296010     0.3353740
units angstrom
no_reorient  #important for SAPT in psi4, default
symmetry c1  #important for SAPT in psi4, default
}

set PROPERTIES_ORIGIN ["COM"]
properties('MP2/aug-cc-pvtz', properties = ['dipole'])
--------------------------------------------------------------------------

    Molecular point group: c1
  Charge       = 0
  Multiplicity = 1
  Basis Set: AUG-CC-PVTZ
    Blend: AUG-CC-PVTZ
  Basis Set: (AUG-CC-PVTZ AUX)
    Blend: AUG-CC-PVTZ-JKFIT

    Orbital Energies [Eh]
    ---------------------

    Doubly Occupied:

       1A    -15.564762     2A    -11.273500     3A    -11.229965
       4A    -11.229797     5A    -11.225618     6A    -11.220765
       7A    -11.220607     8A    -11.216644     9A     -1.220279
      10A     -1.136562    11A     -1.026581    12A     -1.010827
      13A     -0.915722    14A     -0.824084    15A     -0.795019
      16A     -0.689314    17A     -0.684894    18A     -0.632713
      19A     -0.604263    20A     -0.582369    21A     -0.571421
      22A     -0.568779    23A     -0.532319    24A     -0.526585
      25A     -0.504547    26A     -0.461449    27A     -0.442760
      28A     -0.343415    29A     -0.285557

  @DF-RHF Final Energy:  -324.87050848774459

   => Energetics <=

    Nuclear Repulsion Energy =            343.3481737863820058
    One-Electron Energy =               -1119.3551343454605558
    Two-Electron Energy =                 451.1364520713340198
    Total Energy =                       -324.8705084877445870
  Basis Set: (AUG-CC-PVTZ AUX)
    Blend: AUG-CC-PVTZ-RI
    Molecular point group: c1

    Geometry (in Angstrom), charge = 0, multiplicity = 1:

       Center              X                  Y                   Z               Mass
    ------------   -----------------  -----------------  -----------------  -----------------
         N            2.803697348521    -0.006023320516    -0.067112306557    14.003074004430
         C           -1.438277651479    -0.005961320516    -0.010217306557    12.000000000000
         C            1.397955348521    -0.005992320516     0.011312693443    12.000000000000
         C           -0.631100551479    -1.149993420516    -0.005731806557    12.000000000000
         C           -0.712796651479     1.191506679484    -0.001948306557    12.000000000000
         C            0.680675348521    -1.209925320516    -0.007578306557    12.000000000000
         C            0.680709348521     1.197944679484    -0.007577306557    12.000000000000
         C           -2.944305651479    -0.006010320516     0.034808693443    12.000000000000
         H           -1.245743651479    -2.153382320516    -0.012610306557     1.007825032230
         H           -1.245700651479     2.141438679484    -0.012595306557     1.007825032230
         H            1.219717348521    -2.156329320516    -0.011662306557     1.007825032230
         H            1.219769348521     2.144338679484    -0.011661306557     1.007825032230
         H           -3.352101651479     0.879806679484    -0.460911306557     1.007825032230
         H           -3.352193651479    -0.889722320516    -0.464592306557     1.007825032230
         H           -3.314633651479    -0.008157320516     1.066135693443     1.007825032230
         H            3.222302348521     0.823545679484     0.342364693443     1.007825032230
         H            3.222264348521    -0.835594320516     0.342411693443     1.007825032230

  Basis Set: AUG-CC-PVTZ
    Blend: AUG-CC-PVTZ
  Basis Set: (AUG-CC-PVTZ AUX)
    Blend: AUG-CC-PVTZ-JKFIT
	 Reference Energy          =    -324.8705084877445870 [Eh]
	 Singles Energy            =      -0.0000000000000000 [Eh]
	 Same-Spin Energy          =      -0.3597682085791877 [Eh]
	 Opposite-Spin Energy      =      -1.1512700313264315 [Eh]
	 Correlation Energy        =      -1.5110382399056190 [Eh]
	 Total Energy              =    -326.3815467276502318 [Eh]

	 ================> DF-SCS-MP2 Energies <==================
	-----------------------------------------------------------
	 SCS Same-Spin Scale       =       0.3333333333333333 [-]
	 SCS Opposite-Spin Scale   =       1.2000000000000000 [-]
	 SCS Same-Spin Energy      =      -0.1199227361930626 [Eh]
	 SCS Opposite-Spin Energy  =      -1.3815240375917177 [Eh]
	 SCS Correlation Energy    =      -1.5014467737847803 [Eh]
	 SCS Total Energy          =    -326.3719552615293651 [Eh]
	-----------------------------------------------------------

  Dipole Moment: [D]
     X:     0.6136      Y:     0.0202      Z:     1.1265     Total:     1.2829

*** Psi4 exiting successfully. Buy a developer a beer!
