                               Psi4 1.3.2 release

  ==> Input File <==

--------------------------------------------------------------------------
#psi4
#
memory 32 gb

molecule  {
0 1
  N        2.8432420    -0.0000300    -0.0741500
  C       -1.3987330     0.0000320    -0.0172550
  C        1.4375000     0.0000010     0.0042750
  C       -0.6732730    -1.1974670    -0.0089890
  C       -0.6732520     1.1975000    -0.0089860
  C        0.7202200    -1.2039320    -0.0146160
  C        0.7202540     1.2039380    -0.0146150
  C       -2.9047610    -0.0000170     0.0277710
  H       -1.2061990    -2.1473890    -0.0196480
  H       -1.2061560     2.1474320    -0.0196330
  H        1.2592620    -2.1503360    -0.0187000
  H        1.2593140     2.1503320    -0.0186990
  H       -3.3125570     0.8858000    -0.4679490
  H       -3.3126490    -0.8837290    -0.4716300
  H       -3.2750890    -0.0021640     1.0590980
  H        3.1793977     0.6661454     0.2546756
  H        3.2618090    -0.8296010     0.3353740
units angstrom
no_reorient  #important for SAPT in psi4, default
symmetry c1  #important for SAPT in psi4, default
}

set PROPERTIES_ORIGIN ["COM"]
properties('MP2/aug-cc-pvtz', properties = ['dipole'])
--------------------------------------------------------------------------

    Molecular point group: c1
  Charge       = 0
  Multiplicity = 1
  Basis Set: AUG-CC-PVTZ
    Blend: AUG-CC-PVTZ
  Basis Set: (AUG-CC-PVTZ AUX)
    Blend: AUG-CC-PVTZ-JKFIT

    Orbital Energies [Eh]
    ---------------------

    Doubly Occupied:

       1A    -15.540812     2A    -11.272775     3A    -11.231473
       4A    -11.231198     5A    -11.227743     6A    -11.225083
       7A    -11.224516     8A    -11.218916     9A     -1.249240
      10A     -1.136391    11A     -1.026900    12A     -1.008513
      13A     -0.920840    14A     -0.833864    15A     -0.795299
      16A     -0.720251    17A     -0.689611    18A     -0.634865
      19A     -0.612630    20A     -0.586523    21A     -0.578228
      22A     -0.570532    23A     -0.531560    24A     -0.525378
      25A     -0.495349    26A     -0.481073    27A     -0.440793
      28A     -0.334603    29A     -0.289319

  @DF-RHF Final Energy:  -324.83819707134472

   => Energetics <=

    Nuclear Repulsion Energy =            343.1608048672308655
    One-Electron Energy =               -1118.7294422686434245
    Two-Electron Energy =                 450.7304403300678928
    Total Energy =                       -324.8381970713447231
  Basis Set: (AUG-CC-PVTZ AUX)
    Blend: AUG-CC-PVTZ-RI
    Molecular point group: c1

    Geometry (in Angstrom), charge = 0, multiplicity = 1:

       Center              X                  Y                   Z               Mass
    ------------   -----------------  -----------------  -----------------  -----------------
         N            2.813631642958     0.001506786985    -0.066776868750    14.003074004430
         C           -1.428343357042     0.001568786985    -0.009881868750    12.000000000000
         C            1.407889642958     0.001537786985     0.011648131250    12.000000000000
         C           -0.702883357042    -1.195930213015    -0.001615868750    12.000000000000
         C           -0.702862357042     1.199036786985    -0.001612868750    12.000000000000
         C            0.690609642958    -1.202395213015    -0.007242868750    12.000000000000
         C            0.690643642958     1.205474786985    -0.007241868750    12.000000000000
         C           -2.934371357042     0.001519786985     0.035144131250    12.000000000000
         H           -1.235809357042    -2.145852213015    -0.012274868750     1.007825032230
         H           -1.235766357042     2.148968786985    -0.012259868750     1.007825032230
         H            1.229651642958    -2.148799213015    -0.011326868750     1.007825032230
         H            1.229703642958     2.151868786985    -0.011325868750     1.007825032230
         H           -3.342167357042     0.887336786985    -0.460575868750     1.007825032230
         H           -3.342259357042    -0.882192213015    -0.464256868750     1.007825032230
         H           -3.304699357042    -0.000627213015     1.066471131250     1.007825032230
         H            3.149787342958     0.667682186985     0.262048731250     1.007825032230
         H            3.232198642958    -0.828064213015     0.342747131250     1.007825032230

  Basis Set: AUG-CC-PVTZ
    Blend: AUG-CC-PVTZ
  Basis Set: (AUG-CC-PVTZ AUX)
    Blend: AUG-CC-PVTZ-JKFIT
	 Reference Energy          =    -324.8381970713447231 [Eh]
	 Singles Energy            =      -0.0000000000000000 [Eh]
	 Same-Spin Energy          =      -0.3586009780197604 [Eh]
	 Opposite-Spin Energy      =      -1.1484454479688893 [Eh]
	 Correlation Energy        =      -1.5070464259886496 [Eh]
	 Total Energy              =    -326.3452434973333993 [Eh]

	 ================> DF-SCS-MP2 Energies <==================
	-----------------------------------------------------------
	 SCS Same-Spin Scale       =       0.3333333333333333 [-]
	 SCS Opposite-Spin Scale   =       1.2000000000000000 [-]
	 SCS Same-Spin Energy      =      -0.1195336593399201 [Eh]
	 SCS Opposite-Spin Energy  =      -1.3781345375626670 [Eh]
	 SCS Correlation Energy    =      -1.4976681969025871 [Eh]
	 SCS Total Energy          =    -326.3358652682472894 [Eh]
	-----------------------------------------------------------

  Dipole Moment: [D]
     X:     0.5146      Y:    -0.0926      Z:     1.0987     Total:     1.2168

*** Psi4 exiting successfully. Buy a developer a beer!
