                               Psi4 1.3.2 release

  ==> Input File <==

--------------------------------------------------------------------------
#psi4
#
memory 32 gb

molecule  {
0 1
  N        2.8432420    -0.0000300    -0.0741500
  C       -1.3987330     0.0000320    -0.0172550
  C        1.5373447    -0.0000012    -0.0012952
  C       -0.6732730    -1.1974670    -0.0089890
  C       -0.6732520     1.1975000    -0.0089860
  C        0.7202200    -1.2039320    -0.0146160
  C        0.7202540     1.2039380    -0.0146150
  C       -2.9047610    -0.0000170     0.0277710
  H       -1.2061990    -2.1473890    -0.0196480
  H       -1.2061560     2.1474320    -0.0196330
  H        1.2592620    -2.1503360    -0.0187000
  H        1.2593140     2.1503320    -0.0186990
  H       -3.3125570     0.8858000    -0.4679490
  H       -3.3126490    -0.8837290    -0.4716300
  H       -3.2750890    -0.0021640     1.0590980
  H        3.2618470     0.8295390     0.3353270
  H        3.2618090    -0.8296010     0.3353740
units angstrom
no_reorient  #important for SAPT in psi4, default
symmetry c1  #important for SAPT in psi4, default
}

set PROPERTIES_ORIGIN ["COM"]
properties('MP2/aug-cc-pvtz', properties = ['dipole'])
--------------------------------------------------------------------------

    Molecular point group: c1
  Charge       = 0
  Multiplicity = 1
  Basis Set: AUG-CC-PVTZ
    Blend: AUG-CC-PVTZ
  Basis Set: (AUG-CC-PVTZ AUX)
    Blend: AUG-CC-PVTZ-JKFIT

    Orbital Energies [Eh]
    ---------------------

    Doubly Occupied:

       1A    -15.575917     2A    -11.282068     3A    -11.228697
       4A    -11.228625     5A    -11.224232     6A    -11.224221
       7A    -11.220590     8A    -11.214850     9A     -1.259216
      10A     -1.123906    11A     -1.010061    12A     -0.999562
      13A     -0.909977    14A     -0.824939    15A     -0.792771
      16A     -0.706765    17A     -0.698530    18A     -0.634187
      19A     -0.597040    20A     -0.591987    21A     -0.566810
      22A     -0.566254    23A     -0.538927    24A     -0.523383
      25A     -0.495468    26A     -0.463314    27A     -0.442619
      28A     -0.330421    29A     -0.272959

  @DF-RHF Final Energy:  -324.86671837993651

   => Energetics <=

    Nuclear Repulsion Energy =            341.3270117329991535
    One-Electron Energy =               -1115.2908691404993533
    Two-Electron Energy =                 449.0971390275636850
    Total Energy =                       -324.8667183799365148
  Basis Set: (AUG-CC-PVTZ AUX)
    Blend: AUG-CC-PVTZ-RI
    Molecular point group: c1

    Geometry (in Angstrom), charge = 0, multiplicity = 1:

       Center              X                  Y                   Z               Mass
    ------------   -----------------  -----------------  -----------------  -----------------
         N            2.801665742181    -0.000030902185    -0.066911730316    14.003074004430
         C           -1.440309257819     0.000031097815    -0.010016730316    12.000000000000
         C            1.495768442181    -0.000002102185     0.005943069684    12.000000000000
         C           -0.714849257819    -1.197467902185    -0.001750730316    12.000000000000
         C           -0.714828257819     1.197499097815    -0.001747730316    12.000000000000
         C            0.678643742181    -1.203932902185    -0.007377730316    12.000000000000
         C            0.678677742181     1.203937097815    -0.007376730316    12.000000000000
         C           -2.946337257819    -0.000017902185     0.035009269684    12.000000000000
         H           -1.247775257819    -2.147389902185    -0.012409730316     1.007825032230
         H           -1.247732257819     2.147431097815    -0.012394730316     1.007825032230
         H            1.217685742181    -2.150336902185    -0.011461730316     1.007825032230
         H            1.217737742181     2.150331097815    -0.011460730316     1.007825032230
         H           -3.354133257819     0.885799097815    -0.460710730316     1.007825032230
         H           -3.354225257819    -0.883729902185    -0.464391730316     1.007825032230
         H           -3.316665257819    -0.002164902185     1.066336269684     1.007825032230
         H            3.220270742181     0.829538097815     0.342565269684     1.007825032230
         H            3.220232742181    -0.829601902185     0.342612269684     1.007825032230

  Basis Set: AUG-CC-PVTZ
    Blend: AUG-CC-PVTZ
  Basis Set: (AUG-CC-PVTZ AUX)
    Blend: AUG-CC-PVTZ-JKFIT
	 Reference Energy          =    -324.8667183799365148 [Eh]
	 Singles Energy            =      -0.0000000000000000 [Eh]
	 Same-Spin Energy          =      -0.3606753685000189 [Eh]
	 Opposite-Spin Energy      =      -1.1523677842368034 [Eh]
	 Correlation Energy        =      -1.5130431527368224 [Eh]
	 Total Energy              =    -326.3797615326733421 [Eh]

	 ================> DF-SCS-MP2 Energies <==================
	-----------------------------------------------------------
	 SCS Same-Spin Scale       =       0.3333333333333333 [-]
	 SCS Opposite-Spin Scale   =       1.2000000000000000 [-]
	 SCS Same-Spin Energy      =      -0.1202251228333396 [Eh]
	 SCS Opposite-Spin Energy  =      -1.3828413410841640 [Eh]
	 SCS Correlation Energy    =      -1.5030664639175035 [Eh]
	 SCS Total Energy          =    -326.3697848438540063 [Eh]
	-----------------------------------------------------------

  Dipole Moment: [D]
     X:     1.3123      Y:    -0.0003      Z:     1.1025     Total:     1.7140

*** Psi4 exiting successfully. Buy a developer a beer!
