                               Psi4 1.3.2 release

  ==> Input File <==

--------------------------------------------------------------------------
#psi4
#
memory 32 gb

molecule  {
0 1
  N        2.8432420    -0.0000300    -0.0741500
  C       -1.3987330     0.0000320    -0.0172550
  C        1.4375000     0.0000010     0.0042750
  C       -0.6732730    -1.1974670    -0.0089890
  C       -0.6732520     1.1975000    -0.0089860
  C        0.7202200    -1.2039320    -0.0146160
  C        0.7202540     1.2039380    -0.0146150
  C       -2.9047610    -0.0000170     0.0277710
  H       -1.2061990    -2.1473890    -0.0196480
  H       -1.2061560     2.1474320    -0.0196330
  H        1.2592620    -2.1503360    -0.0187000
  H        1.2593140     2.1503320    -0.0186990
  H       -3.3125570     0.8858000    -0.4679490
  H       -3.3126490    -0.8837290    -0.4716300
  H       -3.2750890    -0.0021640     1.0590980
  H        3.3215370     0.7637850     0.3937248
  H        3.2618090    -0.8296010     0.3353740
units angstrom
no_reorient  #important for SAPT in psi4, default
symmetry c1  #important for SAPT in psi4, default
}

set PROPERTIES_ORIGIN ["COM"]
properties('MP2/aug-cc-pvtz', properties = ['dipole'])
--------------------------------------------------------------------------

    Molecular point group: c1
  Charge       = 0
  Multiplicity = 1
  Basis Set: AUG-CC-PVTZ
    Blend: AUG-CC-PVTZ
  Basis Set: (AUG-CC-PVTZ AUX)
    Blend: AUG-CC-PVTZ-JKFIT

    Orbital Energies [Eh]
    ---------------------

    Doubly Occupied:

       1A    -15.563395     2A    -11.273238     3A    -11.231102
       4A    -11.230806     5A    -11.227698     6A    -11.225003
       7A    -11.224399     8A    -11.218814     9A     -1.217844
      10A     -1.130051    11A     -1.020603    12A     -1.008061
      13A     -0.915784    14A     -0.830091    15A     -0.790555
      16A     -0.694822    17A     -0.674796    18A     -0.634409
      19A     -0.597254    20A     -0.586735    21A     -0.577861
      22A     -0.570364    23A     -0.529879    24A     -0.523660
      25A     -0.495165    26A     -0.480304    27A     -0.439125
      28A     -0.334220    29A     -0.288898

  @DF-RHF Final Energy:  -324.88137692862188

   => Energetics <=

    Nuclear Repulsion Energy =            341.8480049280931325
    One-Electron Energy =               -1116.3888933881121375
    Two-Electron Energy =                 449.6595115313971291
    Total Energy =                       -324.8813769286218758
  Basis Set: (AUG-CC-PVTZ AUX)
    Blend: AUG-CC-PVTZ-RI
    Molecular point group: c1

    Geometry (in Angstrom), charge = 0, multiplicity = 1:

       Center              X                  Y                   Z               Mass
    ------------   -----------------  -----------------  -----------------  -----------------
         N            2.812293762479     0.000587758152    -0.068085663787    14.003074004430
         C           -1.429681237521     0.000649758152    -0.011190663787    12.000000000000
         C            1.406551762479     0.000618758152     0.010339336213    12.000000000000
         C           -0.704221237521    -1.196849241848    -0.002924663787    12.000000000000
         C           -0.704200237521     1.198117758152    -0.002921663787    12.000000000000
         C            0.689271762479    -1.203314241848    -0.008551663787    12.000000000000
         C            0.689305762479     1.204555758152    -0.008550663787    12.000000000000
         C           -2.935709237521     0.000600758152     0.033835336213    12.000000000000
         H           -1.237147237521    -2.146771241848    -0.013583663787     1.007825032230
         H           -1.237104237521     2.148049758152    -0.013568663787     1.007825032230
         H            1.228313762479    -2.149718241848    -0.012635663787     1.007825032230
         H            1.228365762479     2.150949758152    -0.012634663787     1.007825032230
         H           -3.343505237521     0.886417758152    -0.461884663787     1.007825032230
         H           -3.343597237521    -0.883111241848    -0.465565663787     1.007825032230
         H           -3.306037237521    -0.001546241848     1.065162336213     1.007825032230
         H            3.290588762479     0.764402758152     0.399789136213     1.007825032230
         H            3.230860762479    -0.828983241848     0.341438336213     1.007825032230

  Basis Set: AUG-CC-PVTZ
    Blend: AUG-CC-PVTZ
  Basis Set: (AUG-CC-PVTZ AUX)
    Blend: AUG-CC-PVTZ-JKFIT
	 Reference Energy          =    -324.8813769286218758 [Eh]
	 Singles Energy            =      -0.0000000000000000 [Eh]
	 Same-Spin Energy          =      -0.3596070795018587 [Eh]
	 Opposite-Spin Energy      =      -1.1511912866874232 [Eh]
	 Correlation Energy        =      -1.5107983661892819 [Eh]
	 Total Energy              =    -326.3921752948111816 [Eh]

	 ================> DF-SCS-MP2 Energies <==================
	-----------------------------------------------------------
	 SCS Same-Spin Scale       =       0.3333333333333333 [-]
	 SCS Opposite-Spin Scale   =       1.2000000000000000 [-]
	 SCS Same-Spin Energy      =      -0.1198690265006195 [Eh]
	 SCS Opposite-Spin Energy  =      -1.3814295440249078 [Eh]
	 SCS Correlation Energy    =      -1.5012985705255273 [Eh]
	 SCS Total Energy          =    -326.3826754991474104 [Eh]
	-----------------------------------------------------------

  Dipole Moment: [D]
     X:     0.5630      Y:    -0.0440      Z:     1.1894     Total:     1.3166

*** Psi4 exiting successfully. Buy a developer a beer!
