                               Psi4 1.4a3.dev225

  ==> Input File <==

--------------------------------------------------------------------------
#psi4
#
memory 32 gb

molecule  {
0 1
  N        2.8432840     0.0000010    -0.0745030
  C       -1.3986540     0.0000000    -0.0170120
  C        1.3876092    -0.0000000     0.0070022
  C       -0.6732940    -1.1975080    -0.0091010
  C       -0.6732940     1.1975090    -0.0091010
  C        0.7202880    -1.2039700    -0.0142280
  C        0.7202880     1.2039700    -0.0142290
  C       -2.9047420     0.0000000     0.0276170
  H       -1.2062760    -2.1473880    -0.0194750
  H       -1.2062760     2.1473880    -0.0194750
  H        1.2592860    -2.1503840    -0.0188250
  H        1.2592870     2.1503840    -0.0188280
  H       -3.3126320     0.8846740    -0.4701760
  H       -3.3126330    -0.8846640    -0.4701940
  H       -3.2755950    -0.0000100     1.0587510
  H        3.2615550     0.8294510     0.3354210
  H        3.2615550    -0.8294590     0.3354000
units angstrom
no_reorient  #important for SAPT in psi4, default
symmetry c1  #important for SAPT in psi4, default
}

set PROPERTIES_ORIGIN ["COM"]
properties('MP2/aug-cc-pvtz', properties = ['dipole'])
--------------------------------------------------------------------------

    Molecular point group: c1
  Charge       = 0
  Multiplicity = 1
  Basis Set: AUG-CC-PVTZ
    Blend: AUG-CC-PVTZ
  Basis Set: (AUG-CC-PVTZ AUX)
    Blend: AUG-CC-PVTZ-JKFIT

    Orbital Energies [Eh]
    ---------------------

    Doubly Occupied:

       1A    -15.558292     2A    -11.268813     3A    -11.232370
       4A    -11.232103     5A    -11.229554     6A    -11.224143
       7A    -11.224117     8A    -11.220067     9A     -1.204370
      10A     -1.130290    11A     -1.023883    12A     -1.012611
      13A     -0.916603    14A     -0.834383    15A     -0.789174
      16A     -0.685617    17A     -0.675834    18A     -0.633344
      19A     -0.604026    20A     -0.583492    21A     -0.577611
      22A     -0.571710    23A     -0.532715    24A     -0.520566
      25A     -0.492532    26A     -0.487106    27A     -0.434055
      28A     -0.336255    29A     -0.294485

  @DF-RHF Final Energy:  -324.88018306050640

   => Energetics <=

    Nuclear Repulsion Energy =            342.3273278275988218
    One-Electron Energy =               -1117.3547782892137548
    Two-Electron Energy =                 450.1472674011085928
    Total Energy =                       -324.8801830605063969
  Basis Set: (AUG-CC-PVTZ AUX)
    Blend: AUG-CC-PVTZ-RI
    Molecular point group: c1

    Geometry (in Angstrom), charge = 0, multiplicity = 1:

       Center              X                  Y                   Z               Mass
    ------------   -----------------  -----------------  -----------------  -----------------
         N            2.818480474382     0.000000832447    -0.068210896755    14.003074004430
         C           -1.423457525618    -0.000000167553    -0.010719896755    12.000000000000
         C            1.362805674382    -0.000000167553     0.013294303245    12.000000000000
         C           -0.698097525618    -1.197508167553    -0.002808896755    12.000000000000
         C           -0.698097525618     1.197508832447    -0.002808896755    12.000000000000
         C            0.695484474382    -1.203970167553    -0.007935896755    12.000000000000
         C            0.695484474382     1.203969832447    -0.007936896755    12.000000000000
         C           -2.929545525618    -0.000000167553     0.033909103245    12.000000000000
         H           -1.231079525618    -2.147388167553    -0.013182896755     1.007825032230
         H           -1.231079525618     2.147387832447    -0.013182896755     1.007825032230
         H            1.234482474382    -2.150384167553    -0.012532896755     1.007825032230
         H            1.234483474382     2.150383832447    -0.012535896755     1.007825032230
         H           -3.337435525618     0.884673832447    -0.463883896755     1.007825032230
         H           -3.337436525618    -0.884664167553    -0.463901896755     1.007825032230
         H           -3.300398525618    -0.000010167553     1.065043103245     1.007825032230
         H            3.236751474382     0.829450832447     0.341713103245     1.007825032230
         H            3.236751474382    -0.829459167553     0.341692103245     1.007825032230

  Basis Set: AUG-CC-PVTZ
    Blend: AUG-CC-PVTZ
  Basis Set: (AUG-CC-PVTZ AUX)
    Blend: AUG-CC-PVTZ-JKFIT
	 Reference Energy          =    -324.8801830605063969 [Eh]
	 Singles Energy            =      -0.0000000000000000 [Eh]
	 Same-Spin Energy          =      -0.3593626055270587 [Eh]
	 Opposite-Spin Energy      =      -1.1510134827210790 [Eh]
	 Correlation Energy        =      -1.5103760882481376 [Eh]
	 Total Energy              =    -326.3905591487545621 [Eh]

	 ================> DF-SCS-MP2 Energies <==================
	-----------------------------------------------------------
	 SCS Same-Spin Scale       =       0.3333333333333333 [-]
	 SCS Opposite-Spin Scale   =       1.2000000000000000 [-]
	 SCS Same-Spin Energy      =      -0.1197875351756862 [Eh]
	 SCS Opposite-Spin Energy  =      -1.3812161792652946 [Eh]
	 SCS Correlation Energy    =      -1.5010037144409809 [Eh]
	 SCS Total Energy          =    -326.3811867749473663 [Eh]
	-----------------------------------------------------------

  Dipole Moment: [D]
     X:     0.2486      Y:    -0.0000      Z:     1.1313     Total:     1.1583

*** Psi4 exiting successfully. Buy a developer a beer!
