                               Psi4 1.3.2 release

  ==> Input File <==

--------------------------------------------------------------------------
#psi4
#
memory 32 gb

molecule  {
0 1
  N        2.8432420    -0.0000300    -0.0741500
  C       -1.3987330     0.0000320    -0.0172550
  C        1.4375000     0.0000010     0.0042750
  C       -0.6524965    -1.1846375    -0.0099311
  C       -0.6732520     1.1975000    -0.0089860
  C        0.7202200    -1.2039320    -0.0146160
  C        0.7202540     1.2039380    -0.0146150
  C       -2.9047610    -0.0000170     0.0277710
  H       -1.2061990    -2.1473890    -0.0196480
  H       -1.2061560     2.1474320    -0.0196330
  H        1.2592620    -2.1503360    -0.0187000
  H        1.2593140     2.1503320    -0.0186990
  H       -3.3125570     0.8858000    -0.4679490
  H       -3.3126490    -0.8837290    -0.4716300
  H       -3.2750890    -0.0021640     1.0590980
  H        3.2618470     0.8295390     0.3353270
  H        3.2618090    -0.8296010     0.3353740
units angstrom
no_reorient  #important for SAPT in psi4, default
symmetry c1  #important for SAPT in psi4, default
}

set PROPERTIES_ORIGIN ["COM"]
properties('MP2/aug-cc-pvtz', properties = ['dipole'])
--------------------------------------------------------------------------

    Molecular point group: c1
  Charge       = 0
  Multiplicity = 1
  Basis Set: AUG-CC-PVTZ
    Blend: AUG-CC-PVTZ
  Basis Set: (AUG-CC-PVTZ AUX)
    Blend: AUG-CC-PVTZ-JKFIT

    Orbital Energies [Eh]
    ---------------------

    Doubly Occupied:

       1A    -15.563926     2A    -11.272813     3A    -11.230727
       4A    -11.230558     5A    -11.226608     6A    -11.223294
       7A    -11.222384     8A    -11.219100     9A     -1.218559
      10A     -1.131092    11A     -1.020429    12A     -1.009544
      13A     -0.914946    14A     -0.828997    15A     -0.790455
      16A     -0.690199    17A     -0.682840    18A     -0.633209
      19A     -0.601828    20A     -0.583078    21A     -0.576820
      22A     -0.570397    23A     -0.530497    24A     -0.524461
      25A     -0.497441    26A     -0.476532    27A     -0.439373
      28A     -0.336471    29A     -0.287128

  @DF-RHF Final Energy:  -324.88196607569853

   => Energetics <=

    Nuclear Repulsion Energy =            342.2828365604701730
    One-Electron Energy =               -1117.2621966365304615
    Two-Electron Energy =                 450.0973940003617599
    Total Energy =                       -324.8819660756985286
  Basis Set: (AUG-CC-PVTZ AUX)
    Blend: AUG-CC-PVTZ-RI
    Molecular point group: c1

    Geometry (in Angstrom), charge = 0, multiplicity = 1:

       Center              X                  Y                   Z               Mass
    ------------   -----------------  -----------------  -----------------  -----------------
         N            2.810527116903    -0.001468983512    -0.067430413280    14.003074004430
         C           -1.431447883097    -0.001406983512    -0.010535413280    12.000000000000
         C            1.404785116903    -0.001437983512     0.010994586720    12.000000000000
         C           -0.685211383097    -1.186076483512    -0.003211513280    12.000000000000
         C           -0.705966883097     1.196061016488    -0.002266413280    12.000000000000
         C            0.687505116903    -1.205370983512    -0.007896413280    12.000000000000
         C            0.687539116903     1.202499016488    -0.007895413280    12.000000000000
         C           -2.937475883097    -0.001455983512     0.034490586720    12.000000000000
         H           -1.238913883097    -2.148827983512    -0.012928413280     1.007825032230
         H           -1.238870883097     2.145993016488    -0.012913413280     1.007825032230
         H            1.226547116903    -2.151774983512    -0.011980413280     1.007825032230
         H            1.226599116903     2.148893016488    -0.011979413280     1.007825032230
         H           -3.345271883097     0.884361016488    -0.461229413280     1.007825032230
         H           -3.345363883097    -0.885167983512    -0.464910413280     1.007825032230
         H           -3.307803883097    -0.003602983512     1.065817586720     1.007825032230
         H            3.229132116903     0.828100016488     0.342046586720     1.007825032230
         H            3.229094116903    -0.831039983512     0.342093586720     1.007825032230

  Basis Set: AUG-CC-PVTZ
    Blend: AUG-CC-PVTZ
  Basis Set: (AUG-CC-PVTZ AUX)
    Blend: AUG-CC-PVTZ-JKFIT
	 Reference Energy          =    -324.8819660756985286 [Eh]
	 Singles Energy            =      -0.0000000000000000 [Eh]
	 Same-Spin Energy          =      -0.3596280131439821 [Eh]
	 Opposite-Spin Energy      =      -1.1510336246293518 [Eh]
	 Correlation Energy        =      -1.5106616377733340 [Eh]
	 Total Energy              =    -326.3926277134718816 [Eh]

	 ================> DF-SCS-MP2 Energies <==================
	-----------------------------------------------------------
	 SCS Same-Spin Scale       =       0.3333333333333333 [-]
	 SCS Opposite-Spin Scale   =       1.2000000000000000 [-]
	 SCS Same-Spin Energy      =      -0.1198760043813274 [Eh]
	 SCS Opposite-Spin Energy  =      -1.3812403495552221 [Eh]
	 SCS Correlation Energy    =      -1.5011163539365495 [Eh]
	 SCS Total Energy          =    -326.3830824296350670 [Eh]
	-----------------------------------------------------------

  Dipole Moment: [D]
     X:     0.5855      Y:     0.0004      Z:     1.1243     Total:     1.2676

*** Psi4 exiting successfully. Buy a developer a beer!
