                               Psi4 1.3.2 release

  ==> Input File <==

--------------------------------------------------------------------------
#psi4
#
memory 32 gb

molecule  {
0 1
  N        2.8432420    -0.0000300    -0.0741500
  C       -1.3987330     0.0000320    -0.0172550
  C        1.6371895    -0.0000034    -0.0068655
  C       -0.6732730    -1.1974670    -0.0089890
  C       -0.6732520     1.1975000    -0.0089860
  C        0.7202200    -1.2039320    -0.0146160
  C        0.7202540     1.2039380    -0.0146150
  C       -2.9047610    -0.0000170     0.0277710
  H       -1.2061990    -2.1473890    -0.0196480
  H       -1.2061560     2.1474320    -0.0196330
  H        1.2592620    -2.1503360    -0.0187000
  H        1.2593140     2.1503320    -0.0186990
  H       -3.3125570     0.8858000    -0.4679490
  H       -3.3126490    -0.8837290    -0.4716300
  H       -3.2750890    -0.0021640     1.0590980
  H        3.2618470     0.8295390     0.3353270
  H        3.2618090    -0.8296010     0.3353740
units angstrom
no_reorient  #important for SAPT in psi4, default
symmetry c1  #important for SAPT in psi4, default
}

set PROPERTIES_ORIGIN ["COM"]
properties('MP2/aug-cc-pvtz', properties = ['dipole'])
--------------------------------------------------------------------------

    Molecular point group: c1
  Charge       = 0
  Multiplicity = 1
  Basis Set: AUG-CC-PVTZ
    Blend: AUG-CC-PVTZ
  Basis Set: (AUG-CC-PVTZ AUX)
    Blend: AUG-CC-PVTZ-JKFIT

    Orbital Energies [Eh]
    ---------------------

    Doubly Occupied:

       1A    -15.591330     2A    -11.292383     3A    -11.226307
       4A    -11.226277     5A    -11.223143     6A    -11.223131
       7A    -11.211338     8A    -11.209861     9A     -1.315949
      10A     -1.115556    11A     -0.998786    12A     -0.991624
      13A     -0.904550    14A     -0.822983    15A     -0.805957
      16A     -0.720921    17A     -0.718844    18A     -0.632211
      19A     -0.592156    20A     -0.591891    21A     -0.572866
      22A     -0.556770    23A     -0.556497    24A     -0.515140
      25A     -0.492234    26A     -0.441571    27A     -0.440984
      28A     -0.326680    29A     -0.257086

  @DF-RHF Final Energy:  -324.81683566995508

   => Energetics <=

    Nuclear Repulsion Energy =            340.9592406222232626
    One-Electron Energy =               -1114.4021023767061251
    Two-Electron Energy =                 448.6260260845278367
    Total Energy =                       -324.8168356699550827
  Basis Set: (AUG-CC-PVTZ AUX)
    Blend: AUG-CC-PVTZ-RI
    Molecular point group: c1

    Geometry (in Angstrom), charge = 0, multiplicity = 1:

       Center              X                  Y                   Z               Mass
    ------------   -----------------  -----------------  -----------------  -----------------
         N            2.790475880937    -0.000030655625    -0.066287452596    14.003074004430
         C           -1.451499119063     0.000031344375    -0.009392452596    12.000000000000
         C            1.584423380937    -0.000004055625     0.000997047404    12.000000000000
         C           -0.726039119063    -1.197467655625    -0.001126452596    12.000000000000
         C           -0.726018119063     1.197499344375    -0.001123452596    12.000000000000
         C            0.667453880937    -1.203932655625    -0.006753452596    12.000000000000
         C            0.667487880937     1.203937344375    -0.006752452596    12.000000000000
         C           -2.957527119063    -0.000017655625     0.035633547404    12.000000000000
         H           -1.258965119063    -2.147389655625    -0.011785452596     1.007825032230
         H           -1.258922119063     2.147431344375    -0.011770452596     1.007825032230
         H            1.206495880937    -2.150336655625    -0.010837452596     1.007825032230
         H            1.206547880937     2.150331344375    -0.010836452596     1.007825032230
         H           -3.365323119063     0.885799344375    -0.460086452596     1.007825032230
         H           -3.365415119063    -0.883729655625    -0.463767452596     1.007825032230
         H           -3.327855119063    -0.002164655625     1.066960547404     1.007825032230
         H            3.209080880937     0.829538344375     0.343189547404     1.007825032230
         H            3.209042880937    -0.829601655625     0.343236547404     1.007825032230

  Basis Set: AUG-CC-PVTZ
    Blend: AUG-CC-PVTZ
  Basis Set: (AUG-CC-PVTZ AUX)
    Blend: AUG-CC-PVTZ-JKFIT
	 Reference Energy          =    -324.8168356699550827 [Eh]
	 Singles Energy            =      -0.0000000000000000 [Eh]
	 Same-Spin Energy          =      -0.3621176631089357 [Eh]
	 Opposite-Spin Energy      =      -1.1544516666261870 [Eh]
	 Correlation Energy        =      -1.5165693297351228 [Eh]
	 Total Energy              =    -326.3334049996902309 [Eh]

	 ================> DF-SCS-MP2 Energies <==================
	-----------------------------------------------------------
	 SCS Same-Spin Scale       =       0.3333333333333333 [-]
	 SCS Opposite-Spin Scale   =       1.2000000000000000 [-]
	 SCS Same-Spin Energy      =      -0.1207058877029786 [Eh]
	 SCS Opposite-Spin Energy  =      -1.3853419999514245 [Eh]
	 SCS Correlation Energy    =      -1.5060478876544030 [Eh]
	 SCS Total Energy          =    -326.3228835576094866 [Eh]
	-----------------------------------------------------------

  Dipole Moment: [D]
     X:     2.1469      Y:    -0.0003      Z:     1.0712     Total:     2.3993

*** Psi4 exiting successfully. Buy a developer a beer!
