                               Psi4 1.3.2 release

  ==> Input File <==

--------------------------------------------------------------------------
#psi4
#
memory 32 gb

molecule  {
0 1
  N        2.8432420    -0.0000300    -0.0741500
  C       -1.3987330     0.0000320    -0.0172550
  C        1.4396200    -0.0435754     0.0268954
  C       -0.6732730    -1.1974670    -0.0089890
  C       -0.6732520     1.1975000    -0.0089860
  C        0.7202200    -1.2039320    -0.0146160
  C        0.7202540     1.2039380    -0.0146150
  C       -2.9047610    -0.0000170     0.0277710
  H       -1.2061990    -2.1473890    -0.0196480
  H       -1.2061560     2.1474320    -0.0196330
  H        1.2592620    -2.1503360    -0.0187000
  H        1.2593140     2.1503320    -0.0186990
  H       -3.3125570     0.8858000    -0.4679490
  H       -3.3126490    -0.8837290    -0.4716300
  H       -3.2750890    -0.0021640     1.0590980
  H        3.2618470     0.8295390     0.3353270
  H        3.2618090    -0.8296010     0.3353740
units angstrom
no_reorient  #important for SAPT in psi4, default
symmetry c1  #important for SAPT in psi4, default
}

set PROPERTIES_ORIGIN ["COM"]
properties('MP2/aug-cc-pvtz', properties = ['dipole'])
--------------------------------------------------------------------------

    Molecular point group: c1
  Charge       = 0
  Multiplicity = 1
  Basis Set: AUG-CC-PVTZ
    Blend: AUG-CC-PVTZ
  Basis Set: (AUG-CC-PVTZ AUX)
    Blend: AUG-CC-PVTZ-JKFIT

    Orbital Energies [Eh]
    ---------------------

    Doubly Occupied:

       1A    -15.564067     2A    -11.272328     3A    -11.231066
       4A    -11.230787     5A    -11.228676     6A    -11.227371
       7A    -11.219923     8A    -11.218648     9A     -1.218545
      10A     -1.129686    11A     -1.021519    12A     -1.006452
      13A     -0.914943    14A     -0.830511    15A     -0.788665
      16A     -0.690779    17A     -0.681862    18A     -0.634173
      19A     -0.602653    20A     -0.585223    21A     -0.575406
      22A     -0.570181    23A     -0.529991    24A     -0.523936
      25A     -0.495354    26A     -0.478480    27A     -0.438963
      28A     -0.334695    29A     -0.287695

  @DF-RHF Final Energy:  -324.87965233791573

   => Energetics <=

    Nuclear Repulsion Energy =            341.9150453291146619
    One-Electron Energy =               -1116.5242385482151803
    Two-Electron Energy =                 449.7295408811847324
    Total Energy =                       -324.8796523379157293
  Basis Set: (AUG-CC-PVTZ AUX)
    Blend: AUG-CC-PVTZ-RI
    Molecular point group: c1

    Geometry (in Angstrom), charge = 0, multiplicity = 1:

       Center              X                  Y                   Z               Mass
    ------------   -----------------  -----------------  -----------------  -----------------
         N            2.812617998414     0.004852569481    -0.070071122717    14.003074004430
         C           -1.429357001586     0.004914569481    -0.013176122717    12.000000000000
         C            1.408995998414    -0.038692830519     0.030974277283    12.000000000000
         C           -0.703897001586    -1.192584430519    -0.004910122717    12.000000000000
         C           -0.703876001586     1.202382569481    -0.004907122717    12.000000000000
         C            0.689595998414    -1.199049430519    -0.010537122717    12.000000000000
         C            0.689629998414     1.208820569481    -0.010536122717    12.000000000000
         C           -2.935385001586     0.004865569481     0.031849877283    12.000000000000
         H           -1.236823001586    -2.142506430519    -0.015569122717     1.007825032230
         H           -1.236780001586     2.152314569481    -0.015554122717     1.007825032230
         H            1.228637998414    -2.145453430519    -0.014621122717     1.007825032230
         H            1.228689998414     2.155214569481    -0.014620122717     1.007825032230
         H           -3.343181001586     0.890682569481    -0.463870122717     1.007825032230
         H           -3.343273001586    -0.878846430519    -0.467551122717     1.007825032230
         H           -3.305713001586     0.002718569481     1.063176877283     1.007825032230
         H            3.231222998414     0.834421569481     0.339405877283     1.007825032230
         H            3.231184998414    -0.824718430519     0.339452877283     1.007825032230

  Basis Set: AUG-CC-PVTZ
    Blend: AUG-CC-PVTZ
  Basis Set: (AUG-CC-PVTZ AUX)
    Blend: AUG-CC-PVTZ-JKFIT
	 Reference Energy          =    -324.8796523379157293 [Eh]
	 Singles Energy            =      -0.0000000000000000 [Eh]
	 Same-Spin Energy          =      -0.3596000666590747 [Eh]
	 Opposite-Spin Energy      =      -1.1513863580573975 [Eh]
	 Correlation Energy        =      -1.5109864247164722 [Eh]
	 Total Energy              =    -326.3906387626321930 [Eh]

	 ================> DF-SCS-MP2 Energies <==================
	-----------------------------------------------------------
	 SCS Same-Spin Scale       =       0.3333333333333333 [-]
	 SCS Opposite-Spin Scale   =       1.2000000000000000 [-]
	 SCS Same-Spin Energy      =      -0.1198666888863582 [Eh]
	 SCS Opposite-Spin Energy  =      -1.3816636296688769 [Eh]
	 SCS Correlation Energy    =      -1.5015303185552351 [Eh]
	 SCS Total Energy          =    -326.3811826564709691 [Eh]
	-----------------------------------------------------------

  Dipole Moment: [D]
     X:     0.5815      Y:     0.0156      Z:     1.1232     Total:     1.2649

*** Psi4 exiting successfully. Buy a developer a beer!
