                               Psi4 1.4a3.dev225

  ==> Input File <==

--------------------------------------------------------------------------
#psi4
#
memory 32 gb

molecule  {
0 1
  N        2.8432840     0.0000010    -0.0745030
  C       -1.3986540     0.0000000    -0.0170120
  C        1.4375310     0.0000000     0.0042070
  C       -0.6732940    -1.1975080    -0.0091010
  C       -0.6732940     1.1975090    -0.0091010
  C        0.7202880    -1.2039700    -0.0142280
  C        0.7202880     1.2039700    -0.0142290
  C       -2.9547201     0.0000000     0.0290980
  H       -1.2062760    -2.1473880    -0.0194750
  H       -1.2062760     2.1473880    -0.0194750
  H        1.2592860    -2.1503840    -0.0188250
  H        1.2592870     2.1503840    -0.0188280
  H       -3.3126320     0.8846740    -0.4701760
  H       -3.3126330    -0.8846640    -0.4701940
  H       -3.2755950    -0.0000100     1.0587510
  H        3.2615550     0.8294510     0.3354210
  H        3.2615550    -0.8294590     0.3354000
units angstrom
no_reorient  #important for SAPT in psi4, default
symmetry c1  #important for SAPT in psi4, default
}

set PROPERTIES_ORIGIN ["COM"]
properties('MP2/aug-cc-pvtz', properties = ['dipole'])
--------------------------------------------------------------------------

    Molecular point group: c1
  Charge       = 0
  Multiplicity = 1
  Basis Set: AUG-CC-PVTZ
    Blend: AUG-CC-PVTZ
  Basis Set: (AUG-CC-PVTZ AUX)
    Blend: AUG-CC-PVTZ-JKFIT

    Orbital Energies [Eh]
    ---------------------

    Doubly Occupied:

       1A    -15.563457     2A    -11.272369     3A    -11.231182
       4A    -11.230790     5A    -11.229041     6A    -11.224092
       7A    -11.224072     8A    -11.217336     9A     -1.217876
      10A     -1.127356    11A     -1.015046    12A     -1.007639
      13A     -0.917178    14A     -0.830013    15A     -0.789223
      16A     -0.690358    17A     -0.681408    18A     -0.630129
      19A     -0.601441    20A     -0.582166    21A     -0.577788
      22A     -0.575551    23A     -0.538854    24A     -0.523705
      25A     -0.484070    26A     -0.481357    27A     -0.439635
      28A     -0.333958    29A     -0.288343

  @DF-RHF Final Energy:  -324.88099107331931

   => Energetics <=

    Nuclear Repulsion Energy =            341.1640193163807453
    One-Electron Energy =               -1115.0391509831258645
    Two-Electron Energy =                 448.9941405934258114
    Total Energy =                       -324.8809910733193078
  Basis Set: (AUG-CC-PVTZ AUX)
    Blend: AUG-CC-PVTZ-RI
    Molecular point group: c1

    Geometry (in Angstrom), charge = 0, multiplicity = 1:

       Center              X                  Y                   Z               Mass
    ------------   -----------------  -----------------  -----------------  -----------------
         N            2.818486784067     0.000000832447    -0.068063611011    14.003074004430
         C           -1.423451215933    -0.000000167553    -0.010572611011    12.000000000000
         C            1.412733784067    -0.000000167553     0.010646388989    12.000000000000
         C           -0.698091215933    -1.197508167553    -0.002661611011    12.000000000000
         C           -0.698091215933     1.197508832447    -0.002661611011    12.000000000000
         C            0.695490784067    -1.203970167553    -0.007788611011    12.000000000000
         C            0.695490784067     1.203969832447    -0.007789611011    12.000000000000
         C           -2.979517315933    -0.000000167553     0.035537388989    12.000000000000
         H           -1.231073215933    -2.147388167553    -0.013035611011     1.007825032230
         H           -1.231073215933     2.147387832447    -0.013035611011     1.007825032230
         H            1.234488784067    -2.150384167553    -0.012385611011     1.007825032230
         H            1.234489784067     2.150383832447    -0.012388611011     1.007825032230
         H           -3.337429215933     0.884673832447    -0.463736611011     1.007825032230
         H           -3.337430215933    -0.884664167553    -0.463754611011     1.007825032230
         H           -3.300392215933    -0.000010167553     1.065190388989     1.007825032230
         H            3.236757784067     0.829450832447     0.341860388989     1.007825032230
         H            3.236757784067    -0.829459167553     0.341839388989     1.007825032230

  Basis Set: AUG-CC-PVTZ
    Blend: AUG-CC-PVTZ
  Basis Set: (AUG-CC-PVTZ AUX)
    Blend: AUG-CC-PVTZ-JKFIT
	 Reference Energy          =    -324.8809910733193078 [Eh]
	 Singles Energy            =      -0.0000000000000000 [Eh]
	 Same-Spin Energy          =      -0.3593056220469679 [Eh]
	 Opposite-Spin Energy      =      -1.1509253578308261 [Eh]
	 Correlation Energy        =      -1.5102309798777940 [Eh]
	 Total Energy              =    -326.3912220531971116 [Eh]

	 ================> DF-SCS-MP2 Energies <==================
	-----------------------------------------------------------
	 SCS Same-Spin Scale       =       0.3333333333333333 [-]
	 SCS Opposite-Spin Scale   =       1.2000000000000000 [-]
	 SCS Same-Spin Energy      =      -0.1197685406823226 [Eh]
	 SCS Opposite-Spin Energy  =      -1.3811104293969911 [Eh]
	 SCS Correlation Energy    =      -1.5008789700793137 [Eh]
	 SCS Total Energy          =    -326.3818700433986351 [Eh]
	-----------------------------------------------------------

  Dipole Moment: [D]
     X:     0.5738      Y:    -0.0000      Z:     1.1240     Total:     1.2620

*** Psi4 exiting successfully. Buy a developer a beer!
