                               Psi4 1.4a3.dev225

  ==> Input File <==

--------------------------------------------------------------------------
#psi4
#
memory 32 gb

molecule  {
0 1
  N        2.8432840     0.0000010    -0.0745030
  C       -1.3986540     0.0000000    -0.0170120
  C        1.4574997     0.0000000     0.0030889
  C       -0.6732940    -1.1975080    -0.0091010
  C       -0.6732940     1.1975090    -0.0091010
  C        0.7202880    -1.2039700    -0.0142280
  C        0.7202880     1.2039700    -0.0142290
  C       -2.9047420     0.0000000     0.0276170
  H       -1.2062760    -2.1473880    -0.0194750
  H       -1.2062760     2.1473880    -0.0194750
  H        1.2592860    -2.1503840    -0.0188250
  H        1.2592870     2.1503840    -0.0188280
  H       -3.3126320     0.8846740    -0.4701760
  H       -3.3126330    -0.8846640    -0.4701940
  H       -3.2755950    -0.0000100     1.0587510
  H        3.2615550     0.8294510     0.3354210
  H        3.2615550    -0.8294590     0.3354000
units angstrom
no_reorient  #important for SAPT in psi4, default
symmetry c1  #important for SAPT in psi4, default
}

set PROPERTIES_ORIGIN ["COM"]
properties('MP2/aug-cc-pvtz', properties = ['dipole'])
--------------------------------------------------------------------------

    Molecular point group: c1
  Charge       = 0
  Multiplicity = 1
  Basis Set: AUG-CC-PVTZ
    Blend: AUG-CC-PVTZ
  Basis Set: (AUG-CC-PVTZ AUX)
    Blend: AUG-CC-PVTZ-JKFIT

    Orbital Energies [Eh]
    ---------------------

    Doubly Occupied:

       1A    -15.565945     2A    -11.274384     3A    -11.230604
       4A    -11.230457     5A    -11.226044     6A    -11.224355
       7A    -11.224334     8A    -11.217920     9A     -1.224991
      10A     -1.128824    11A     -1.017956    12A     -1.006250
      13A     -0.913868    14A     -0.829522    15A     -0.789389
      16A     -0.693539    17A     -0.685016    18A     -0.634178
      19A     -0.600444    20A     -0.586946    21A     -0.575458
      22A     -0.569460    23A     -0.528872    24A     -0.525724
      25A     -0.495286    26A     -0.477463    27A     -0.439762
      28A     -0.333466    29A     -0.284955

  @DF-RHF Final Energy:  -324.88170000236750

   => Energetics <=

    Nuclear Repulsion Energy =            341.8018822242113401
    One-Electron Energy =               -1116.2963403822016062
    Two-Electron Energy =                 449.6127581556227710
    Total Energy =                       -324.8817000023674950
  Basis Set: (AUG-CC-PVTZ AUX)
    Blend: AUG-CC-PVTZ-RI
    Molecular point group: c1

    Geometry (in Angstrom), charge = 0, multiplicity = 1:

       Center              X                  Y                   Z               Mass
    ------------   -----------------  -----------------  -----------------  -----------------
         N            2.810647667894     0.000000832447    -0.067772323248    14.003074004430
         C           -1.431290332106    -0.000000167553    -0.010281323248    12.000000000000
         C            1.424863367894    -0.000000167553     0.009819576752    12.000000000000
         C           -0.705930332106    -1.197508167553    -0.002370323248    12.000000000000
         C           -0.705930332106     1.197508832447    -0.002370323248    12.000000000000
         C            0.687651667894    -1.203970167553    -0.007497323248    12.000000000000
         C            0.687651667894     1.203969832447    -0.007498323248    12.000000000000
         C           -2.937378332106    -0.000000167553     0.034347676752    12.000000000000
         H           -1.238912332106    -2.147388167553    -0.012744323248     1.007825032230
         H           -1.238912332106     2.147387832447    -0.012744323248     1.007825032230
         H            1.226649667894    -2.150384167553    -0.012094323248     1.007825032230
         H            1.226650667894     2.150383832447    -0.012097323248     1.007825032230
         H           -3.345268332106     0.884673832447    -0.463445323248     1.007825032230
         H           -3.345269332106    -0.884664167553    -0.463463323248     1.007825032230
         H           -3.308231332106    -0.000010167553     1.065481676752     1.007825032230
         H            3.228918667894     0.829450832447     0.342151676752     1.007825032230
         H            3.228918667894    -0.829459167553     0.342130676752     1.007825032230

  Basis Set: AUG-CC-PVTZ
    Blend: AUG-CC-PVTZ
  Basis Set: (AUG-CC-PVTZ AUX)
    Blend: AUG-CC-PVTZ-JKFIT
	 Reference Energy          =    -324.8817000023674950 [Eh]
	 Singles Energy            =      -0.0000000000000000 [Eh]
	 Same-Spin Energy          =      -0.3597763745938649 [Eh]
	 Opposite-Spin Energy      =      -1.1512793795562826 [Eh]
	 Correlation Energy        =      -1.5110557541501475 [Eh]
	 Total Energy              =    -326.3927557565176585 [Eh]

	 ================> DF-SCS-MP2 Energies <==================
	-----------------------------------------------------------
	 SCS Same-Spin Scale       =       0.3333333333333333 [-]
	 SCS Opposite-Spin Scale   =       1.2000000000000000 [-]
	 SCS Same-Spin Energy      =      -0.1199254581979549 [Eh]
	 SCS Opposite-Spin Energy  =      -1.3815352554675391 [Eh]
	 SCS Correlation Energy    =      -1.5014607136654941 [Eh]
	 SCS Total Energy          =    -326.3831607160329895 [Eh]
	-----------------------------------------------------------

  Dipole Moment: [D]
     X:     0.7167      Y:    -0.0000      Z:     1.1203     Total:     1.3299

*** Psi4 exiting successfully. Buy a developer a beer!
