                               Psi4 1.4a3.dev225

  ==> Input File <==

--------------------------------------------------------------------------
#psi4
#
memory 32 gb

molecule  {
0 1
  N        2.8432840     0.0000010    -0.0745030
  C       -1.3986540     0.0000000    -0.0170120
  C        1.4375310     0.0000000     0.0042070
  C       -0.6732940    -1.1975080    -0.0091010
  C       -0.6732940     1.1975090    -0.0091010
  C        0.7202880    -1.2039700    -0.0142280
  C        0.7202880     1.2039700    -0.0142290
  C       -2.9047420     0.0000000     0.0276170
  H       -1.2062760    -2.1473880    -0.0194750
  H       -1.2062760     2.1473880    -0.0194750
  H        1.2592860    -2.1503840    -0.0188250
  H        1.2592870     2.1503840    -0.0188280
  H       -3.3126320     0.8846740    -0.4701760
  H       -3.3126330    -0.8846640    -0.4701940
  H       -3.2755950    -0.0000100     1.0587510
  H        3.2409580     0.7886063     0.3152351
  H        3.2615550    -0.8294590     0.3354000
units angstrom
no_reorient  #important for SAPT in psi4, default
symmetry c1  #important for SAPT in psi4, default
}

set PROPERTIES_ORIGIN ["COM"]
properties('MP2/aug-cc-pvtz', properties = ['dipole'])
--------------------------------------------------------------------------

    Molecular point group: c1
  Charge       = 0
  Multiplicity = 1
  Basis Set: AUG-CC-PVTZ
    Blend: AUG-CC-PVTZ
  Basis Set: (AUG-CC-PVTZ AUX)
    Blend: AUG-CC-PVTZ-JKFIT

    Orbital Energies [Eh]
    ---------------------

    Doubly Occupied:

       1A    -15.558373     2A    -11.272647     3A    -11.231158
       4A    -11.230971     5A    -11.227252     6A    -11.224460
       7A    -11.224283     8A    -11.218636     9A     -1.223777
      10A     -1.131153    11A     -1.021257    12A     -1.008104
      13A     -0.915970    14A     -0.831443    15A     -0.790289
      16A     -0.694993    17A     -0.686758    18A     -0.634196
      19A     -0.604897    20A     -0.585335    21A     -0.577915
      22A     -0.570196    23A     -0.530482    24A     -0.524031
      25A     -0.494874    26A     -0.480606    27A     -0.438952
      28A     -0.334306    29A     -0.288105

  @DF-RHF Final Energy:  -324.88203403742341

   => Energetics <=

    Nuclear Repulsion Energy =            342.2103610549141877
    One-Electron Energy =               -1117.0739571571004944
    Two-Electron Energy =                 449.9815620647628975
    Total Energy =                       -324.8820340374234092
  Basis Set: (AUG-CC-PVTZ AUX)
    Blend: AUG-CC-PVTZ-RI
    Molecular point group: c1

    Geometry (in Angstrom), charge = 0, multiplicity = 1:

       Center              X                  Y                   Z               Mass
    ------------   -----------------  -----------------  -----------------  -----------------
         N            2.813079479443     0.000385281553    -0.067707632589    14.003074004430
         C           -1.428858520557     0.000384281553    -0.010216632589    12.000000000000
         C            1.407326479443     0.000384281553     0.011002367411    12.000000000000
         C           -0.703498520557    -1.197123718447    -0.002305632589    12.000000000000
         C           -0.703498520557     1.197893281553    -0.002305632589    12.000000000000
         C            0.690083479443    -1.203585718447    -0.007432632589    12.000000000000
         C            0.690083479443     1.204354281553    -0.007433632589    12.000000000000
         C           -2.934946520557     0.000384281553     0.034412367411    12.000000000000
         H           -1.236480520557    -2.147003718447    -0.012679632589     1.007825032230
         H           -1.236480520557     2.147772281553    -0.012679632589     1.007825032230
         H            1.229081479443    -2.149999718447    -0.012029632589     1.007825032230
         H            1.229082479443     2.150768281553    -0.012032632589     1.007825032230
         H           -3.342836520557     0.885058281553    -0.463380632589     1.007825032230
         H           -3.342837520557    -0.884279718447    -0.463398632589     1.007825032230
         H           -3.305799520557     0.000374281553     1.065546367411     1.007825032230
         H            3.210753479443     0.788990581553     0.322030467411     1.007825032230
         H            3.231350479443    -0.829074718447     0.342195367411     1.007825032230

  Basis Set: AUG-CC-PVTZ
    Blend: AUG-CC-PVTZ
  Basis Set: (AUG-CC-PVTZ AUX)
    Blend: AUG-CC-PVTZ-JKFIT
	 Reference Energy          =    -324.8820340374234092 [Eh]
	 Singles Energy            =      -0.0000000000000000 [Eh]
	 Same-Spin Energy          =      -0.3593318322598679 [Eh]
	 Opposite-Spin Energy      =      -1.1503140307153590 [Eh]
	 Correlation Energy        =      -1.5096458629752267 [Eh]
	 Total Energy              =    -326.3916799003986284 [Eh]

	 ================> DF-SCS-MP2 Energies <==================
	-----------------------------------------------------------
	 SCS Same-Spin Scale       =       0.3333333333333333 [-]
	 SCS Opposite-Spin Scale   =       1.2000000000000000 [-]
	 SCS Same-Spin Energy      =      -0.1197772774199559 [Eh]
	 SCS Opposite-Spin Energy  =      -1.3803768368584308 [Eh]
	 SCS Correlation Energy    =      -1.5001541142783867 [Eh]
	 SCS Total Energy          =    -326.3821881517017687 [Eh]
	-----------------------------------------------------------

  Dipole Moment: [D]
     X:     0.5670      Y:    -0.0217      Z:     1.1174     Total:     1.2532

*** Psi4 exiting successfully. Buy a developer a beer!
