                               Psi4 1.3.2 release

  ==> Input File <==

--------------------------------------------------------------------------
#psi4
#
memory 32 gb

molecule  {
0 1
  N        2.8432420    -0.0000300    -0.0741500
  C       -1.3987330     0.0000320    -0.0172550
  C        1.4383460    -0.0217905     0.0155989
  C       -0.6732730    -1.1974670    -0.0089890
  C       -0.6732520     1.1975000    -0.0089860
  C        0.7202200    -1.2039320    -0.0146160
  C        0.7202540     1.2039380    -0.0146150
  C       -2.9047610    -0.0000170     0.0277710
  H       -1.2061990    -2.1473890    -0.0196480
  H       -1.2061560     2.1474320    -0.0196330
  H        1.2592620    -2.1503360    -0.0187000
  H        1.2593140     2.1503320    -0.0186990
  H       -3.3125570     0.8858000    -0.4679490
  H       -3.3126490    -0.8837290    -0.4716300
  H       -3.2750890    -0.0021640     1.0590980
  H        3.2618470     0.8295390     0.3353270
  H        3.2618090    -0.8296010     0.3353740
units angstrom
no_reorient  #important for SAPT in psi4, default
symmetry c1  #important for SAPT in psi4, default
}

set PROPERTIES_ORIGIN ["COM"]
properties('MP2/aug-cc-pvtz', properties = ['dipole'])
--------------------------------------------------------------------------

    Molecular point group: c1
  Charge       = 0
  Multiplicity = 1
  Basis Set: AUG-CC-PVTZ
    Blend: AUG-CC-PVTZ
  Basis Set: (AUG-CC-PVTZ AUX)
    Blend: AUG-CC-PVTZ-JKFIT

    Orbital Energies [Eh]
    ---------------------

    Doubly Occupied:

       1A    -15.563878     2A    -11.272541     3A    -11.231053
       4A    -11.230855     5A    -11.227235     6A    -11.226524
       7A    -11.222113     8A    -11.218591     9A     -1.218327
      10A     -1.129623    11A     -1.020218    12A     -1.007554
      13A     -0.914757    14A     -0.830717    15A     -0.788998
      16A     -0.690672    17A     -0.682121    18A     -0.633991
      19A     -0.601682    20A     -0.584816    21A     -0.577117
      22A     -0.570149    23A     -0.530065    24A     -0.523780
      25A     -0.494904    26A     -0.479879    27A     -0.438701
      28A     -0.334340    29A     -0.287748

  @DF-RHF Final Energy:  -324.88173752802840

   => Energetics <=

    Nuclear Repulsion Energy =            341.9318870998197326
    One-Electron Energy =               -1116.5613521960394792
    Two-Electron Energy =                 449.7477275681913511
    Total Energy =                       -324.8817375280283954
  Basis Set: (AUG-CC-PVTZ AUX)
    Blend: AUG-CC-PVTZ-RI
    Molecular point group: c1

    Geometry (in Angstrom), charge = 0, multiplicity = 1:

       Center              X                  Y                   Z               Mass
    ------------   -----------------  -----------------  -----------------  -----------------
         N            2.812760778841     0.002411080208    -0.068805095166    14.003074004430
         C           -1.429214221159     0.002473080208    -0.011910095166    12.000000000000
         C            1.407864778841    -0.019349419792     0.020943804834    12.000000000000
         C           -0.703754221159    -1.195025919792    -0.003644095166    12.000000000000
         C           -0.703733221159     1.199941080208    -0.003641095166    12.000000000000
         C            0.689738778841    -1.201490919792    -0.009271095166    12.000000000000
         C            0.689772778841     1.206379080208    -0.009270095166    12.000000000000
         C           -2.935242221159     0.002424080208     0.033115904834    12.000000000000
         H           -1.236680221159    -2.144947919792    -0.014303095166     1.007825032230
         H           -1.236637221159     2.149873080208    -0.014288095166     1.007825032230
         H            1.228780778841    -2.147894919792    -0.013355095166     1.007825032230
         H            1.228832778841     2.152773080208    -0.013354095166     1.007825032230
         H           -3.343038221159     0.888241080208    -0.462604095166     1.007825032230
         H           -3.343130221159    -0.881287919792    -0.466285095166     1.007825032230
         H           -3.305570221159     0.000277080208     1.064442904834     1.007825032230
         H            3.231365778841     0.831980080208     0.340671904834     1.007825032230
         H            3.231327778841    -0.827159919792     0.340718904834     1.007825032230

  Basis Set: AUG-CC-PVTZ
    Blend: AUG-CC-PVTZ
  Basis Set: (AUG-CC-PVTZ AUX)
    Blend: AUG-CC-PVTZ-JKFIT
	 Reference Energy          =    -324.8817375280283954 [Eh]
	 Singles Energy            =      -0.0000000000000000 [Eh]
	 Same-Spin Energy          =      -0.3596237440387705 [Eh]
	 Opposite-Spin Energy      =      -1.1512271911795948 [Eh]
	 Correlation Energy        =      -1.5108509352183654 [Eh]
	 Total Energy              =    -326.3925884632467387 [Eh]

	 ================> DF-SCS-MP2 Energies <==================
	-----------------------------------------------------------
	 SCS Same-Spin Scale       =       0.3333333333333333 [-]
	 SCS Opposite-Spin Scale   =       1.2000000000000000 [-]
	 SCS Same-Spin Energy      =      -0.1198745813462568 [Eh]
	 SCS Opposite-Spin Energy  =      -1.3814726294155137 [Eh]
	 SCS Correlation Energy    =      -1.5013472107617707 [Eh]
	 SCS Total Energy          =    -326.3830847387901599 [Eh]
	-----------------------------------------------------------

  Dipole Moment: [D]
     X:     0.5812      Y:     0.0078      Z:     1.1234     Total:     1.2648

*** Psi4 exiting successfully. Buy a developer a beer!
