                               Psi4 1.3.2 release

  ==> Input File <==

--------------------------------------------------------------------------
#psi4
#
memory 32 gb

molecule  {
0 1
  N        2.8432420    -0.0000300    -0.0741500
  C       -1.3987330     0.0000320    -0.0172550
  C        1.4375000     0.0000010     0.0042750
  C       -0.7585245    -1.2450999    -0.0052488
  C       -0.6732520     1.1975000    -0.0089860
  C        0.7202200    -1.2039320    -0.0146160
  C        0.7202540     1.2039380    -0.0146150
  C       -2.9047610    -0.0000170     0.0277710
  H       -1.2061990    -2.1473890    -0.0196480
  H       -1.2061560     2.1474320    -0.0196330
  H        1.2592620    -2.1503360    -0.0187000
  H        1.2593140     2.1503320    -0.0186990
  H       -3.3125570     0.8858000    -0.4679490
  H       -3.3126490    -0.8837290    -0.4716300
  H       -3.2750890    -0.0021640     1.0590980
  H        3.2618470     0.8295390     0.3353270
  H        3.2618090    -0.8296010     0.3353740
units angstrom
no_reorient  #important for SAPT in psi4, default
symmetry c1  #important for SAPT in psi4, default
}

set PROPERTIES_ORIGIN ["COM"]
properties('MP2/aug-cc-pvtz', properties = ['dipole'])
--------------------------------------------------------------------------

    Molecular point group: c1
  Charge       = 0
  Multiplicity = 1
  Basis Set: AUG-CC-PVTZ
    Blend: AUG-CC-PVTZ
  Basis Set: (AUG-CC-PVTZ AUX)
    Blend: AUG-CC-PVTZ-JKFIT

    Orbital Energies [Eh]
    ---------------------

    Doubly Occupied:

       1A    -15.562959     2A    -11.272266     3A    -11.232907
       4A    -11.232622     5A    -11.231327     6A    -11.230140
       7A    -11.228490     8A    -11.216527     9A     -1.216835
      10A     -1.125072    11A     -1.021268    12A     -0.999367
      13A     -0.913944    14A     -0.839019    15A     -0.785588
      16A     -0.695080    17A     -0.679214    18A     -0.640860
      19A     -0.604171    20A     -0.589372    21A     -0.576231
      22A     -0.569337    23A     -0.529185    24A     -0.520889
      25A     -0.495404    26A     -0.478019    27A     -0.435294
      28A     -0.326150    29A     -0.290415

  @DF-RHF Final Energy:  -324.86887924120401

   => Energetics <=

    Nuclear Repulsion Energy =            340.6934393226688940
    One-Electron Energy =               -1114.0487302983833615
    Two-Electron Energy =                 448.4864117345105115
    Total Energy =                       -324.8688792412040129
  Basis Set: (AUG-CC-PVTZ AUX)
    Blend: AUG-CC-PVTZ-RI
    Molecular point group: c1

    Geometry (in Angstrom), charge = 0, multiplicity = 1:

       Center              X                  Y                   Z               Mass
    ------------   -----------------  -----------------  -----------------  -----------------
         N            2.822409945132     0.005307191777    -0.067955170576    14.003074004430
         C           -1.419565054868     0.005369191777    -0.011060170576    12.000000000000
         C            1.416667945132     0.005338191777     0.010469829424    12.000000000000
         C           -0.779356554868    -1.239762708223     0.000946029424    12.000000000000
         C           -0.694084054868     1.202837191777    -0.002791170576    12.000000000000
         C            0.699387945132    -1.198594808223    -0.008421170576    12.000000000000
         C            0.699421945132     1.209275191777    -0.008420170576    12.000000000000
         C           -2.925593054868     0.005320191777     0.033965829424    12.000000000000
         H           -1.227031054868    -2.142051808223    -0.013453170576     1.007825032230
         H           -1.226988054868     2.152769191777    -0.013438170576     1.007825032230
         H            1.238429945132    -2.144998808223    -0.012505170576     1.007825032230
         H            1.238481945132     2.155669191777    -0.012504170576     1.007825032230
         H           -3.333389054868     0.891137191777    -0.461754170576     1.007825032230
         H           -3.333481054868    -0.878391808223    -0.465435170576     1.007825032230
         H           -3.295921054868     0.003173191777     1.065292829424     1.007825032230
         H            3.241014945132     0.834876191777     0.341521829424     1.007825032230
         H            3.240976945132    -0.824263808223     0.341568829424     1.007825032230

  Basis Set: AUG-CC-PVTZ
    Blend: AUG-CC-PVTZ
  Basis Set: (AUG-CC-PVTZ AUX)
    Blend: AUG-CC-PVTZ-JKFIT
	 Reference Energy          =    -324.8688792412040129 [Eh]
	 Singles Energy            =      -0.0000000000000000 [Eh]
	 Same-Spin Energy          =      -0.3597762037481949 [Eh]
	 Opposite-Spin Energy      =      -1.1524738369180660 [Eh]
	 Correlation Energy        =      -1.5122500406662609 [Eh]
	 Total Energy              =    -326.3811292818703009 [Eh]

	 ================> DF-SCS-MP2 Energies <==================
	-----------------------------------------------------------
	 SCS Same-Spin Scale       =       0.3333333333333333 [-]
	 SCS Opposite-Spin Scale   =       1.2000000000000000 [-]
	 SCS Same-Spin Energy      =      -0.1199254012493983 [Eh]
	 SCS Opposite-Spin Energy  =      -1.3829686043016791 [Eh]
	 SCS Correlation Energy    =      -1.5028940055510773 [Eh]
	 SCS Total Energy          =    -326.3717732467550832 [Eh]
	-----------------------------------------------------------

  Dipole Moment: [D]
     X:     0.5696      Y:     0.0217      Z:     1.1205     Total:     1.2571

*** Psi4 exiting successfully. Buy a developer a beer!
