                               Psi4 1.4a3.dev225

  ==> Input File <==

--------------------------------------------------------------------------
#psi4
#
memory 32 gb

molecule  {
0 1
  N        2.8432840     0.0000010    -0.0745030
  C       -1.3986540     0.0000000    -0.0170120
  C        1.4175623    -0.0000000     0.0053251
  C       -0.6732940    -1.1975080    -0.0091010
  C       -0.6732940     1.1975090    -0.0091010
  C        0.7202880    -1.2039700    -0.0142280
  C        0.7202880     1.2039700    -0.0142290
  C       -2.9047420     0.0000000     0.0276170
  H       -1.2062760    -2.1473880    -0.0194750
  H       -1.2062760     2.1473880    -0.0194750
  H        1.2592860    -2.1503840    -0.0188250
  H        1.2592870     2.1503840    -0.0188280
  H       -3.3126320     0.8846740    -0.4701760
  H       -3.3126330    -0.8846640    -0.4701940
  H       -3.2755950    -0.0000100     1.0587510
  H        3.2615550     0.8294510     0.3354210
  H        3.2615550    -0.8294590     0.3354000
units angstrom
no_reorient  #important for SAPT in psi4, default
symmetry c1  #important for SAPT in psi4, default
}

set PROPERTIES_ORIGIN ["COM"]
properties('MP2/aug-cc-pvtz', properties = ['dipole'])
--------------------------------------------------------------------------

    Molecular point group: c1
  Charge       = 0
  Multiplicity = 1
  Basis Set: AUG-CC-PVTZ
    Blend: AUG-CC-PVTZ
  Basis Set: (AUG-CC-PVTZ AUX)
    Blend: AUG-CC-PVTZ-JKFIT

    Orbital Energies [Eh]
    ---------------------

    Doubly Occupied:

       1A    -15.561496     2A    -11.271036     3A    -11.231591
       4A    -11.231383     5A    -11.228171     6A    -11.224247
       7A    -11.224225     8A    -11.219196     9A     -1.212048
      10A     -1.130118    11A     -1.021462    12A     -1.009808
      13A     -0.915510    14A     -0.832238    15A     -0.789061
      16A     -0.688456    17A     -0.679461    18A     -0.633744
      19A     -0.602307    20A     -0.582116    21A     -0.580191
      22A     -0.570776    23A     -0.531185    24A     -0.522112
      25A     -0.494035    26A     -0.483259    27A     -0.436855
      28A     -0.335039    29A     -0.290521

  @DF-RHF Final Energy:  -324.88235512297211

   => Energetics <=

    Nuclear Repulsion Energy =            342.0912472917198102
    One-Electron Energy =               -1116.8839144173207387
    Two-Electron Energy =                 449.9103120026288138
    Total Energy =                       -324.8823551229721147
  Basis Set: (AUG-CC-PVTZ AUX)
    Blend: AUG-CC-PVTZ-RI
    Molecular point group: c1

    Geometry (in Angstrom), charge = 0, multiplicity = 1:

       Center              X                  Y                   Z               Mass
    ------------   -----------------  -----------------  -----------------  -----------------
         N            2.815123554114     0.000000832447    -0.068022939883    14.003074004430
         C           -1.426814445886    -0.000000167553    -0.010531939883    12.000000000000
         C            1.389401854114    -0.000000167553     0.011805160117    12.000000000000
         C           -0.701454445886    -1.197508167553    -0.002620939883    12.000000000000
         C           -0.701454445886     1.197508832447    -0.002620939883    12.000000000000
         C            0.692127554114    -1.203970167553    -0.007747939883    12.000000000000
         C            0.692127554114     1.203969832447    -0.007748939883    12.000000000000
         C           -2.932902445886    -0.000000167553     0.034097060117    12.000000000000
         H           -1.234436445886    -2.147388167553    -0.012994939883     1.007825032230
         H           -1.234436445886     2.147387832447    -0.012994939883     1.007825032230
         H            1.231125554114    -2.150384167553    -0.012344939883     1.007825032230
         H            1.231126554114     2.150383832447    -0.012347939883     1.007825032230
         H           -3.340792445886     0.884673832447    -0.463695939883     1.007825032230
         H           -3.340793445886    -0.884664167553    -0.463713939883     1.007825032230
         H           -3.303755445886    -0.000010167553     1.065231060117     1.007825032230
         H            3.233394554114     0.829450832447     0.341901060117     1.007825032230
         H            3.233394554114    -0.829459167553     0.341880060117     1.007825032230

  Basis Set: AUG-CC-PVTZ
    Blend: AUG-CC-PVTZ
  Basis Set: (AUG-CC-PVTZ AUX)
    Blend: AUG-CC-PVTZ-JKFIT
	 Reference Energy          =    -324.8823551229721147 [Eh]
	 Singles Energy            =      -0.0000000000000000 [Eh]
	 Same-Spin Energy          =      -0.3594909402407154 [Eh]
	 Opposite-Spin Energy      =      -1.1510405896558904 [Eh]
	 Correlation Energy        =      -1.5105315298966058 [Eh]
	 Total Energy              =    -326.3928866528686967 [Eh]

	 ================> DF-SCS-MP2 Energies <==================
	-----------------------------------------------------------
	 SCS Same-Spin Scale       =       0.3333333333333333 [-]
	 SCS Opposite-Spin Scale   =       1.2000000000000000 [-]
	 SCS Same-Spin Energy      =      -0.1198303134135718 [Eh]
	 SCS Opposite-Spin Energy  =      -1.3812487075870685 [Eh]
	 SCS Correlation Energy    =      -1.5010790210006404 [Eh]
	 SCS Total Energy          =    -326.3834341439727496 [Eh]
	-----------------------------------------------------------

  Dipole Moment: [D]
     X:     0.4438      Y:    -0.0000      Z:     1.1270     Total:     1.2112

*** Psi4 exiting successfully. Buy a developer a beer!
