                               Psi4 1.3.2 release

  ==> Input File <==

--------------------------------------------------------------------------
#psi4
#
memory 32 gb

molecule  {
0 1
  N        2.8432420    -0.0000300    -0.0741500
  C       -1.3993539     0.0228463    -0.0303176
  C        1.4375000     0.0000010     0.0042750
  C       -0.6732730    -1.1974670    -0.0089890
  C       -0.6732520     1.1975000    -0.0089860
  C        0.7202200    -1.2039320    -0.0146160
  C        0.7202540     1.2039380    -0.0146150
  C       -2.9047610    -0.0000170     0.0277710
  H       -1.2061990    -2.1473890    -0.0196480
  H       -1.2061560     2.1474320    -0.0196330
  H        1.2592620    -2.1503360    -0.0187000
  H        1.2593140     2.1503320    -0.0186990
  H       -3.3125570     0.8858000    -0.4679490
  H       -3.3126490    -0.8837290    -0.4716300
  H       -3.2750890    -0.0021640     1.0590980
  H        3.2618470     0.8295390     0.3353270
  H        3.2618090    -0.8296010     0.3353740
units angstrom
no_reorient  #important for SAPT in psi4, default
symmetry c1  #important for SAPT in psi4, default
}

set PROPERTIES_ORIGIN ["COM"]
properties('MP2/aug-cc-pvtz', properties = ['dipole'])
--------------------------------------------------------------------------

    Molecular point group: c1
  Charge       = 0
  Multiplicity = 1
  Basis Set: AUG-CC-PVTZ
    Blend: AUG-CC-PVTZ
  Basis Set: (AUG-CC-PVTZ AUX)
    Blend: AUG-CC-PVTZ-JKFIT

    Orbital Energies [Eh]
    ---------------------

    Doubly Occupied:

       1A    -15.563779     2A    -11.272780     3A    -11.233416
       4A    -11.228758     5A    -11.226966     6A    -11.225093
       7A    -11.223460     8A    -11.218567     9A     -1.218185
      10A     -1.129613    11A     -1.020002    12A     -1.007808
      13A     -0.914764    14A     -0.830897    15A     -0.788999
      16A     -0.690893    17A     -0.682114    18A     -0.633944
      19A     -0.601348    20A     -0.584983    21A     -0.577668
      22A     -0.570089    23A     -0.530225    24A     -0.523303
      25A     -0.496029    26A     -0.479011    27A     -0.438371
      28A     -0.334424    29A     -0.287751

  @DF-RHF Final Energy:  -324.88175667667161

   => Energetics <=

    Nuclear Repulsion Energy =            341.9343170552809283
    One-Electron Energy =               -1116.5656658420987242
    Two-Electron Energy =                 449.7495921101462386
    Total Energy =                       -324.8817566766716141
  Basis Set: (AUG-CC-PVTZ AUX)
    Blend: AUG-CC-PVTZ-RI
    Molecular point group: c1

    Geometry (in Angstrom), charge = 0, multiplicity = 1:

       Center              X                  Y                   Z               Mass
    ------------   -----------------  -----------------  -----------------  -----------------
         N            2.812925178063    -0.002588005500    -0.066072037949    14.003074004430
         C           -1.429670721937     0.020288294500    -0.022239637949    12.000000000000
         C            1.407183178063    -0.002557005500     0.012352962051    12.000000000000
         C           -0.703589821937    -1.200025005500    -0.000911037949    12.000000000000
         C           -0.703568821937     1.194941994500    -0.000908037949    12.000000000000
         C            0.689903178063    -1.206490005500    -0.006538037949    12.000000000000
         C            0.689937178063     1.201379994500    -0.006537037949    12.000000000000
         C           -2.935077821937    -0.002575005500     0.035848962051    12.000000000000
         H           -1.236515821937    -2.149947005500    -0.011570037949     1.007825032230
         H           -1.236472821937     2.144873994500    -0.011555037949     1.007825032230
         H            1.228945178063    -2.152894005500    -0.010622037949     1.007825032230
         H            1.228997178063     2.147773994500    -0.010621037949     1.007825032230
         H           -3.342873821937     0.883241994500    -0.459871037949     1.007825032230
         H           -3.342965821937    -0.886287005500    -0.463552037949     1.007825032230
         H           -3.305405821937    -0.004722005500     1.067175962051     1.007825032230
         H            3.231530178063     0.826980994500     0.343404962051     1.007825032230
         H            3.231492178063    -0.832159005500     0.343451962051     1.007825032230

  Basis Set: AUG-CC-PVTZ
    Blend: AUG-CC-PVTZ
  Basis Set: (AUG-CC-PVTZ AUX)
    Blend: AUG-CC-PVTZ-JKFIT
	 Reference Energy          =    -324.8817566766716141 [Eh]
	 Singles Energy            =      -0.0000000000000000 [Eh]
	 Same-Spin Energy          =      -0.3596083972008313 [Eh]
	 Opposite-Spin Energy      =      -1.1511829411685452 [Eh]
	 Correlation Energy        =      -1.5107913383693765 [Eh]
	 Total Energy              =    -326.3925480150409726 [Eh]

	 ================> DF-SCS-MP2 Energies <==================
	-----------------------------------------------------------
	 SCS Same-Spin Scale       =       0.3333333333333333 [-]
	 SCS Opposite-Spin Scale   =       1.2000000000000000 [-]
	 SCS Same-Spin Energy      =      -0.1198694657336104 [Eh]
	 SCS Opposite-Spin Energy  =      -1.3814195294022542 [Eh]
	 SCS Correlation Energy    =      -1.5012889951358646 [Eh]
	 SCS Total Energy          =    -326.3830456718074515 [Eh]
	-----------------------------------------------------------

  Dipole Moment: [D]
     X:     0.5856      Y:    -0.0201      Z:     1.1301     Total:     1.2730

*** Psi4 exiting successfully. Buy a developer a beer!
