                               Psi4 1.3.2 release

  ==> Input File <==

--------------------------------------------------------------------------
#psi4
#
memory 32 gb

molecule  {
0 1
  N        2.8432420    -0.0000300    -0.0741500
  C       -1.3987330     0.0000320    -0.0172550
  C        1.3376553     0.0000032     0.0098452
  C       -0.6732730    -1.1974670    -0.0089890
  C       -0.6732520     1.1975000    -0.0089860
  C        0.7202200    -1.2039320    -0.0146160
  C        0.7202540     1.2039380    -0.0146150
  C       -2.9047610    -0.0000170     0.0277710
  H       -1.2061990    -2.1473890    -0.0196480
  H       -1.2061560     2.1474320    -0.0196330
  H        1.2592620    -2.1503360    -0.0187000
  H        1.2593140     2.1503320    -0.0186990
  H       -3.3125570     0.8858000    -0.4679490
  H       -3.3126490    -0.8837290    -0.4716300
  H       -3.2750890    -0.0021640     1.0590980
  H        3.2618470     0.8295390     0.3353270
  H        3.2618090    -0.8296010     0.3353740
units angstrom
no_reorient  #important for SAPT in psi4, default
symmetry c1  #important for SAPT in psi4, default
}

set PROPERTIES_ORIGIN ["COM"]
properties('MP2/aug-cc-pvtz', properties = ['dipole'])
--------------------------------------------------------------------------

    Molecular point group: c1
  Charge       = 0
  Multiplicity = 1
  Basis Set: AUG-CC-PVTZ
    Blend: AUG-CC-PVTZ
  Basis Set: (AUG-CC-PVTZ AUX)
    Blend: AUG-CC-PVTZ-JKFIT

    Orbital Energies [Eh]
    ---------------------

    Doubly Occupied:

       1A    -15.553047     2A    -11.265745     3A    -11.233746
       4A    -11.233371     5A    -11.231532     6A    -11.223985
       7A    -11.223950     8A    -11.221384     9A     -1.195706
      10A     -1.128585    11A     -1.027518    12A     -1.017619
      13A     -0.918181    14A     -0.838064    15A     -0.789843
      16A     -0.682685    17A     -0.670831    18A     -0.632689
      19A     -0.608025    20A     -0.587809    21A     -0.573427
      22A     -0.568826    23A     -0.534930    24A     -0.519787
      25A     -0.492662    26A     -0.488824    27A     -0.428316
      28A     -0.338391    29A     -0.300620

  @DF-RHF Final Energy:  -324.87189883910747

   => Energetics <=

    Nuclear Repulsion Energy =            342.7558633514336748
    One-Electron Energy =               -1118.1953345975300635
    Two-Electron Energy =                 450.5675724069889725
    Total Energy =                       -324.8718988391074731
  Basis Set: (AUG-CC-PVTZ AUX)
    Blend: AUG-CC-PVTZ-RI
    Molecular point group: c1

    Geometry (in Angstrom), charge = 0, multiplicity = 1:

       Center              X                  Y                   Z               Mass
    ------------   -----------------  -----------------  -----------------  -----------------
         N            2.824045442254    -0.000031395304    -0.068160263341    14.003074004430
         C           -1.417929557746     0.000030604696    -0.011265263341    12.000000000000
         C            1.318458742254     0.000001804696     0.015834936659    12.000000000000
         C           -0.692469557746    -1.197468395304    -0.002999263341    12.000000000000
         C           -0.692448557746     1.197498604696    -0.002996263341    12.000000000000
         C            0.701023442254    -1.203933395304    -0.008626263341    12.000000000000
         C            0.701057442254     1.203936604696    -0.008625263341    12.000000000000
         C           -2.923957557746    -0.000018395304     0.033760736659    12.000000000000
         H           -1.225395557746    -2.147390395304    -0.013658263341     1.007825032230
         H           -1.225352557746     2.147430604696    -0.013643263341     1.007825032230
         H            1.240065442254    -2.150337395304    -0.012710263341     1.007825032230
         H            1.240117442254     2.150330604696    -0.012709263341     1.007825032230
         H           -3.331753557746     0.885798604696    -0.461959263341     1.007825032230
         H           -3.331845557746    -0.883730395304    -0.465640263341     1.007825032230
         H           -3.294285557746    -0.002165395304     1.065087736659     1.007825032230
         H            3.242650442254     0.829537604696     0.341316736659     1.007825032230
         H            3.242612442254    -0.829602395304     0.341363736659     1.007825032230

  Basis Set: AUG-CC-PVTZ
    Blend: AUG-CC-PVTZ
  Basis Set: (AUG-CC-PVTZ AUX)
    Blend: AUG-CC-PVTZ-JKFIT
	 Reference Energy          =    -324.8718988391074731 [Eh]
	 Singles Energy            =      -0.0000000000000000 [Eh]
	 Same-Spin Energy          =      -0.3593262084080322 [Eh]
	 Opposite-Spin Energy      =      -1.1512734361542813 [Eh]
	 Correlation Energy        =      -1.5105996445623135 [Eh]
	 Total Energy              =    -326.3824984836697922 [Eh]

	 ================> DF-SCS-MP2 Energies <==================
	-----------------------------------------------------------
	 SCS Same-Spin Scale       =       0.3333333333333333 [-]
	 SCS Opposite-Spin Scale   =       1.2000000000000000 [-]
	 SCS Same-Spin Energy      =      -0.1197754028026774 [Eh]
	 SCS Opposite-Spin Energy  =      -1.3815281233851375 [Eh]
	 SCS Correlation Energy    =      -1.5013035261878149 [Eh]
	 SCS Total Energy          =    -326.3732023652952989 [Eh]
	-----------------------------------------------------------

  Dipole Moment: [D]
     X:    -0.0599      Y:    -0.0002      Z:     1.1366     Total:     1.1382

*** Psi4 exiting successfully. Buy a developer a beer!
