                               Psi4 1.3.2 release

  ==> Input File <==

--------------------------------------------------------------------------
#psi4
#
memory 32 gb

molecule  {
0 1
  N        2.8432420    -0.0000300    -0.0741500
  C       -1.3987330     0.0000320    -0.0172550
  C        1.4375000     0.0000010     0.0042750
  C       -0.6732730    -1.1974670    -0.0089890
  C       -0.6732520     1.1975000    -0.0089860
  C        0.7202200    -1.2039320    -0.0146160
  C        0.7202540     1.2039380    -0.0146150
  C       -3.0047163    -0.0000203     0.0307594
  H       -1.2061990    -2.1473890    -0.0196480
  H       -1.2061560     2.1474320    -0.0196330
  H        1.2592620    -2.1503360    -0.0187000
  H        1.2593140     2.1503320    -0.0186990
  H       -3.3125570     0.8858000    -0.4679490
  H       -3.3126490    -0.8837290    -0.4716300
  H       -3.2750890    -0.0021640     1.0590980
  H        3.2618470     0.8295390     0.3353270
  H        3.2618090    -0.8296010     0.3353740
units angstrom
no_reorient  #important for SAPT in psi4, default
symmetry c1  #important for SAPT in psi4, default
}

set PROPERTIES_ORIGIN ["COM"]
properties('MP2/aug-cc-pvtz', properties = ['dipole'])
--------------------------------------------------------------------------

    Molecular point group: c1
  Charge       = 0
  Multiplicity = 1
  Basis Set: AUG-CC-PVTZ
    Blend: AUG-CC-PVTZ
  Basis Set: (AUG-CC-PVTZ AUX)
    Blend: AUG-CC-PVTZ-JKFIT

    Orbital Energies [Eh]
    ---------------------

    Doubly Occupied:

       1A    -15.563281     2A    -11.272138     3A    -11.231821
       4A    -11.230712     5A    -11.230075     6A    -11.223886
       7A    -11.223866     8A    -11.216854     9A     -1.217630
      10A     -1.125554    11A     -1.010987    12A     -1.007334
      13A     -0.919656    14A     -0.829263    15A     -0.789203
      16A     -0.689997    17A     -0.680788    18A     -0.627111
      19A     -0.602061    20A     -0.582002    21A     -0.579424
      22A     -0.577805    23A     -0.547047    24A     -0.523852
      25A     -0.481770    26A     -0.471795    27A     -0.440408
      28A     -0.333721    29A     -0.288715

  @DF-RHF Final Energy:  -324.87540536025358

   => Energetics <=

    Nuclear Repulsion Energy =            340.4128280158712982
    One-Electron Energy =               -1113.5389508541791201
    Two-Electron Energy =                 448.2507174780541845
    Total Energy =                       -324.8754053602535805
  Basis Set: (AUG-CC-PVTZ AUX)
    Blend: AUG-CC-PVTZ-RI
    Molecular point group: c1

    Geometry (in Angstrom), charge = 0, multiplicity = 1:

       Center              X                  Y                   Z               Mass
    ------------   -----------------  -----------------  -----------------  -----------------
         N            2.824057837478    -0.000030778905    -0.067870914434    14.003074004430
         C           -1.417917162522     0.000031221095    -0.010975914434    12.000000000000
         C            1.418315837478     0.000000221095     0.010554085566    12.000000000000
         C           -0.692457162522    -1.197467778905    -0.002709914434    12.000000000000
         C           -0.692436162522     1.197499221095    -0.002706914434    12.000000000000
         C            0.701035837478    -1.203932778905    -0.008336914434    12.000000000000
         C            0.701069837478     1.203937221095    -0.008335914434    12.000000000000
         C           -3.023900462522    -0.000021078905     0.037038485566    12.000000000000
         H           -1.225383162522    -2.147389778905    -0.013368914434     1.007825032230
         H           -1.225340162522     2.147431221095    -0.013353914434     1.007825032230
         H            1.240077837478    -2.150336778905    -0.012420914434     1.007825032230
         H            1.240129837478     2.150331221095    -0.012419914434     1.007825032230
         H           -3.331741162522     0.885799221095    -0.461669914434     1.007825032230
         H           -3.331833162522    -0.883729778905    -0.465350914434     1.007825032230
         H           -3.294273162522    -0.002164778905     1.065377085566     1.007825032230
         H            3.242662837478     0.829538221095     0.341606085566     1.007825032230
         H            3.242624837478    -0.829601778905     0.341653085566     1.007825032230

  Basis Set: AUG-CC-PVTZ
    Blend: AUG-CC-PVTZ
  Basis Set: (AUG-CC-PVTZ AUX)
    Blend: AUG-CC-PVTZ-JKFIT
	 Reference Energy          =    -324.8754053602535805 [Eh]
	 Singles Energy            =      -0.0000000000000000 [Eh]
	 Same-Spin Energy          =      -0.3591841117751872 [Eh]
	 Opposite-Spin Energy      =      -1.1510455269906383 [Eh]
	 Correlation Energy        =      -1.5102296387658254 [Eh]
	 Total Energy              =    -326.3856349990194303 [Eh]

	 ================> DF-SCS-MP2 Energies <==================
	-----------------------------------------------------------
	 SCS Same-Spin Scale       =       0.3333333333333333 [-]
	 SCS Opposite-Spin Scale   =       1.2000000000000000 [-]
	 SCS Same-Spin Energy      =      -0.1197280372583957 [Eh]
	 SCS Opposite-Spin Energy  =      -1.3812546323887660 [Eh]
	 SCS Correlation Energy    =      -1.5009826696471618 [Eh]
	 SCS Total Energy          =    -326.3763880299007383 [Eh]
	-----------------------------------------------------------

  Dipole Moment: [D]
     X:     0.5803      Y:    -0.0002      Z:     1.1237     Total:     1.2647

*** Psi4 exiting successfully. Buy a developer a beer!
