                               Psi4 1.3.2 release

  ==> Input File <==

--------------------------------------------------------------------------
#psi4
#
memory 32 gb

molecule  {
0 1
  N        2.8432420    -0.0000300    -0.0741500
  C       -1.4093279     0.1366745    -0.0952857
  C        1.4375000     0.0000010     0.0042750
  C       -0.6732730    -1.1974670    -0.0089890
  C       -0.6732520     1.1975000    -0.0089860
  C        0.7202200    -1.2039320    -0.0146160
  C        0.7202540     1.2039380    -0.0146150
  C       -2.9047610    -0.0000170     0.0277710
  H       -1.2061990    -2.1473890    -0.0196480
  H       -1.2061560     2.1474320    -0.0196330
  H        1.2592620    -2.1503360    -0.0187000
  H        1.2593140     2.1503320    -0.0186990
  H       -3.3125570     0.8858000    -0.4679490
  H       -3.3126490    -0.8837290    -0.4716300
  H       -3.2750890    -0.0021640     1.0590980
  H        3.2618470     0.8295390     0.3353270
  H        3.2618090    -0.8296010     0.3353740
units angstrom
no_reorient  #important for SAPT in psi4, default
symmetry c1  #important for SAPT in psi4, default
}

set PROPERTIES_ORIGIN ["COM"]
properties('MP2/aug-cc-pvtz', properties = ['dipole'])
--------------------------------------------------------------------------

    Molecular point group: c1
  Charge       = 0
  Multiplicity = 1
  Basis Set: AUG-CC-PVTZ
    Blend: AUG-CC-PVTZ
  Basis Set: (AUG-CC-PVTZ AUX)
    Blend: AUG-CC-PVTZ-JKFIT

    Orbital Energies [Eh]
    ---------------------

    Doubly Occupied:

       1A    -15.564744     2A    -11.274119     3A    -11.243617
       4A    -11.228243     5A    -11.226624     6A    -11.219552
       7A    -11.219484     8A    -11.216045     9A     -1.218831
      10A     -1.131379    11A     -1.025822    12A     -1.003239
      13A     -0.917216    14A     -0.832883    15A     -0.784205
      16A     -0.691974    17A     -0.680955    18A     -0.633466
      19A     -0.600554    20A     -0.589928    21A     -0.574609
      22A     -0.570636    23A     -0.534795    24A     -0.521328
      25A     -0.507623    26A     -0.455334    27A     -0.438415
      28A     -0.339309    29A     -0.286593

  @DF-RHF Final Energy:  -324.85791828289371

   => Energetics <=

    Nuclear Repulsion Energy =            341.8173524545120472
    One-Electron Energy =               -1116.2874977247913648
    Two-Electron Energy =                 449.6122269873856112
    Total Energy =                       -324.8579182828937064
  Basis Set: (AUG-CC-PVTZ AUX)
    Blend: AUG-CC-PVTZ-RI
    Molecular point group: c1

    Geometry (in Angstrom), charge = 0, multiplicity = 1:

       Center              X                  Y                   Z               Mass
    ------------   -----------------  -----------------  -----------------  -----------------
         N            2.814042989667    -0.015345022026    -0.058790897376    14.003074004430
         C           -1.438526910333     0.121359477974    -0.079926597376    12.000000000000
         C            1.408300989667    -0.015314022026     0.019634102624    12.000000000000
         C           -0.702472010333    -1.212782022026     0.006370102624    12.000000000000
         C           -0.702451010333     1.182184977974     0.006373102624    12.000000000000
         C            0.691020989667    -1.219247022026     0.000743102624    12.000000000000
         C            0.691054989667     1.188622977974     0.000744102624    12.000000000000
         C           -2.933960010333    -0.015332022026     0.043130102624    12.000000000000
         H           -1.235398010333    -2.162704022026    -0.004288897376     1.007825032230
         H           -1.235355010333     2.132116977974    -0.004273897376     1.007825032230
         H            1.230062989667    -2.165651022026    -0.003340897376     1.007825032230
         H            1.230114989667     2.135016977974    -0.003339897376     1.007825032230
         H           -3.341756010333     0.870484977974    -0.452589897376     1.007825032230
         H           -3.341848010333    -0.899044022026    -0.456270897376     1.007825032230
         H           -3.304288010333    -0.017479022026     1.074457102624     1.007825032230
         H            3.232647989667     0.814223977974     0.350686102624     1.007825032230
         H            3.232609989667    -0.844916022026     0.350733102624     1.007825032230

  Basis Set: AUG-CC-PVTZ
    Blend: AUG-CC-PVTZ
  Basis Set: (AUG-CC-PVTZ AUX)
    Blend: AUG-CC-PVTZ-JKFIT
	 Reference Energy          =    -324.8579182828937064 [Eh]
	 Singles Energy            =      -0.0000000000000000 [Eh]
	 Same-Spin Energy          =      -0.3591418804480532 [Eh]
	 Opposite-Spin Energy      =      -1.1522597639112497 [Eh]
	 Correlation Energy        =      -1.5114016443593030 [Eh]
	 Total Energy              =    -326.3693199272530023 [Eh]

	 ================> DF-SCS-MP2 Energies <==================
	-----------------------------------------------------------
	 SCS Same-Spin Scale       =       0.3333333333333333 [-]
	 SCS Opposite-Spin Scale   =       1.2000000000000000 [-]
	 SCS Same-Spin Energy      =      -0.1197139601493511 [Eh]
	 SCS Opposite-Spin Energy  =      -1.3827117166934997 [Eh]
	 SCS Correlation Energy    =      -1.5024256768428508 [Eh]
	 SCS Total Energy          =    -326.3603439597365536 [Eh]
	-----------------------------------------------------------

  Dipole Moment: [D]
     X:     0.6157      Y:    -0.1126      Z:     1.1612     Total:     1.3192

*** Psi4 exiting successfully. Buy a developer a beer!
