                               Psi4 1.3.2 release

  ==> Input File <==

--------------------------------------------------------------------------
#psi4
#
memory 32 gb

molecule  {
0 1
  N        2.8432420    -0.0000300    -0.0741500
  C       -1.3987330     0.0000320    -0.0172550
  C        1.4375000     0.0000010     0.0042750
  C       -0.6732730    -1.1974670    -0.0089890
  C       -0.6732520     1.1975000    -0.0089860
  C        0.7202200    -1.2039320    -0.0146160
  C        0.7202540     1.2039380    -0.0146150
  C       -2.9047610    -0.0000170     0.0277710
  H       -1.2061990    -2.1473890    -0.0196480
  H       -1.2061560     2.1474320    -0.0196330
  H        1.2592620    -2.1503360    -0.0187000
  H        1.2593140     2.1503320    -0.0186990
  H       -3.2380016     0.7238504    -0.3773189
  H       -3.3126490    -0.8837290    -0.4716300
  H       -3.2750890    -0.0021640     1.0590980
  H        3.2618470     0.8295390     0.3353270
  H        3.2618090    -0.8296010     0.3353740
units angstrom
no_reorient  #important for SAPT in psi4, default
symmetry c1  #important for SAPT in psi4, default
}

set PROPERTIES_ORIGIN ["COM"]
properties('MP2/aug-cc-pvtz', properties = ['dipole'])
--------------------------------------------------------------------------

    Molecular point group: c1
  Charge       = 0
  Multiplicity = 1
  Basis Set: AUG-CC-PVTZ
    Blend: AUG-CC-PVTZ
  Basis Set: (AUG-CC-PVTZ AUX)
    Blend: AUG-CC-PVTZ-JKFIT

    Orbital Energies [Eh]
    ---------------------

    Doubly Occupied:

       1A    -15.563284     2A    -11.272098     3A    -11.230733
       4A    -11.229817     5A    -11.225836     6A    -11.223937
       7A    -11.223690     8A    -11.193706     9A     -1.217683
      10A     -1.130057    11A     -1.029052    12A     -1.007485
      13A     -0.930808    14A     -0.830589    15A     -0.792458
      16A     -0.691601    17A     -0.682899    18A     -0.637388
      19A     -0.610688    20A     -0.586186    21A     -0.578562
      22A     -0.575928    23A     -0.545417    24A     -0.523419
      25A     -0.493784    26A     -0.480896    27A     -0.438395
      28A     -0.333769    29A     -0.287360

  @DF-RHF Final Energy:  -324.84866518242848

   => Energetics <=

    Nuclear Repulsion Energy =            342.9118097420882805
    One-Electron Energy =               -1118.3859014030492744
    Two-Electron Energy =                 450.6254264785325176
    Total Energy =                       -324.8486651824284763
  Basis Set: (AUG-CC-PVTZ AUX)
    Blend: AUG-CC-PVTZ-RI
    Molecular point group: c1

    Geometry (in Angstrom), charge = 0, multiplicity = 1:

       Center              X                  Y                   Z               Mass
    ------------   -----------------  -----------------  -----------------  -----------------
         N            2.812153842495     0.001493195392    -0.068389049022    14.003074004430
         C           -1.429821157505     0.001555195392    -0.011494049022    12.000000000000
         C            1.406411842495     0.001524195392     0.010035950978    12.000000000000
         C           -0.704361157505    -1.195943804608    -0.003228049022    12.000000000000
         C           -0.704340157505     1.199023195392    -0.003225049022    12.000000000000
         C            0.689131842495    -1.202408804608    -0.008855049022    12.000000000000
         C            0.689165842495     1.205461195392    -0.008854049022    12.000000000000
         C           -2.935849157505     0.001506195392     0.033531950978    12.000000000000
         H           -1.237287157505    -2.145865804608    -0.013887049022     1.007825032230
         H           -1.237244157505     2.148955195392    -0.013872049022     1.007825032230
         H            1.228173842495    -2.148812804608    -0.012939049022     1.007825032230
         H            1.228225842495     2.151855195392    -0.012938049022     1.007825032230
         H           -3.269089757505     0.725373595392    -0.371557949022     1.007825032230
         H           -3.343737157505    -0.882205804608    -0.465869049022     1.007825032230
         H           -3.306177157505    -0.000640804608     1.064858950978     1.007825032230
         H            3.230758842495     0.831062195392     0.341087950978     1.007825032230
         H            3.230720842495    -0.828077804608     0.341134950978     1.007825032230

  Basis Set: AUG-CC-PVTZ
    Blend: AUG-CC-PVTZ
  Basis Set: (AUG-CC-PVTZ AUX)
    Blend: AUG-CC-PVTZ-JKFIT
	 Reference Energy          =    -324.8486651824284763 [Eh]
	 Singles Energy            =      -0.0000000000000000 [Eh]
	 Same-Spin Energy          =      -0.3597105085352920 [Eh]
	 Opposite-Spin Energy      =      -1.1505006859463487 [Eh]
	 Correlation Energy        =      -1.5102111944816405 [Eh]
	 Total Energy              =    -326.3588763769101320 [Eh]

	 ================> DF-SCS-MP2 Energies <==================
	-----------------------------------------------------------
	 SCS Same-Spin Scale       =       0.3333333333333333 [-]
	 SCS Opposite-Spin Scale   =       1.2000000000000000 [-]
	 SCS Same-Spin Energy      =      -0.1199035028450973 [Eh]
	 SCS Opposite-Spin Energy  =      -1.3806008231356184 [Eh]
	 SCS Correlation Energy    =      -1.5005043259807156 [Eh]
	 SCS Total Energy          =    -326.3491695084092044 [Eh]
	-----------------------------------------------------------

  Dipole Moment: [D]
     X:     0.5051      Y:     0.0506      Z:     1.0986     Total:     1.2102

*** Psi4 exiting successfully. Buy a developer a beer!
