                               Psi4 1.4a3.dev225

  ==> Input File <==

--------------------------------------------------------------------------
#psi4
#
memory 32 gb

molecule  {
0 1
  N        2.8432840     0.0000010    -0.0745030
  C       -1.3986540     0.0000000    -0.0170120
  C        1.4874528     0.0000000     0.0014118
  C       -0.6732940    -1.1975080    -0.0091010
  C       -0.6732940     1.1975090    -0.0091010
  C        0.7202880    -1.2039700    -0.0142280
  C        0.7202880     1.2039700    -0.0142290
  C       -2.9047420     0.0000000     0.0276170
  H       -1.2062760    -2.1473880    -0.0194750
  H       -1.2062760     2.1473880    -0.0194750
  H        1.2592860    -2.1503840    -0.0188250
  H        1.2592870     2.1503840    -0.0188280
  H       -3.3126320     0.8846740    -0.4701760
  H       -3.3126330    -0.8846640    -0.4701940
  H       -3.2755950    -0.0000100     1.0587510
  H        3.2615550     0.8294510     0.3354210
  H        3.2615550    -0.8294590     0.3354000
units angstrom
no_reorient  #important for SAPT in psi4, default
symmetry c1  #important for SAPT in psi4, default
}

set PROPERTIES_ORIGIN ["COM"]
properties('MP2/aug-cc-pvtz', properties = ['dipole'])
--------------------------------------------------------------------------

    Molecular point group: c1
  Charge       = 0
  Multiplicity = 1
  Basis Set: AUG-CC-PVTZ
    Blend: AUG-CC-PVTZ
  Basis Set: (AUG-CC-PVTZ AUX)
    Blend: AUG-CC-PVTZ-JKFIT

    Orbital Energies [Eh]
    ---------------------

    Doubly Occupied:

       1A    -15.569482     2A    -11.277137     3A    -11.229889
       4A    -11.229776     5A    -11.224416     6A    -11.224380
       7A    -11.224150     8A    -11.216860     9A     -1.236586
      10A     -1.127265    11A     -1.015126    12A     -1.003687
      13A     -0.912498    14A     -0.827641    15A     -0.790132
      16A     -0.698184    17A     -0.689718    18A     -0.634348
      19A     -0.599173    20A     -0.589550    21A     -0.571902
      22A     -0.568444    23A     -0.529733    24A     -0.526933
      25A     -0.495696    26A     -0.472574    27A     -0.441294
      28A     -0.332311    29A     -0.280587

  @DF-RHF Final Energy:  -324.87833787327259

   => Energetics <=

    Nuclear Repulsion Energy =            341.6058899269816607
    One-Electron Energy =               -1115.8895094834374504
    Two-Electron Energy =                 449.4052816831831478
    Total Energy =                       -324.8783378732725851
  Basis Set: (AUG-CC-PVTZ AUX)
    Blend: AUG-CC-PVTZ-RI
    Molecular point group: c1

    Geometry (in Angstrom), charge = 0, multiplicity = 1:

       Center              X                  Y                   Z               Mass
    ------------   -----------------  -----------------  -----------------  -----------------
         N            2.807290747625     0.000000832447    -0.067584366376    14.003074004430
         C           -1.434647252375    -0.000000167553    -0.010093366376    12.000000000000
         C            1.451459547625    -0.000000167553     0.008330433624    12.000000000000
         C           -0.709287252375    -1.197508167553    -0.002182366376    12.000000000000
         C           -0.709287252375     1.197508832447    -0.002182366376    12.000000000000
         C            0.684294747625    -1.203970167553    -0.007309366376    12.000000000000
         C            0.684294747625     1.203969832447    -0.007310366376    12.000000000000
         C           -2.940735252375    -0.000000167553     0.034535633624    12.000000000000
         H           -1.242269252375    -2.147388167553    -0.012556366376     1.007825032230
         H           -1.242269252375     2.147387832447    -0.012556366376     1.007825032230
         H            1.223292747625    -2.150384167553    -0.011906366376     1.007825032230
         H            1.223293747625     2.150383832447    -0.011909366376     1.007825032230
         H           -3.348625252375     0.884673832447    -0.463257366376     1.007825032230
         H           -3.348626252375    -0.884664167553    -0.463275366376     1.007825032230
         H           -3.311588252375    -0.000010167553     1.065669633624     1.007825032230
         H            3.225561747625     0.829450832447     0.342339633624     1.007825032230
         H            3.225561747625    -0.829459167553     0.342318633624     1.007825032230

  Basis Set: AUG-CC-PVTZ
    Blend: AUG-CC-PVTZ
  Basis Set: (AUG-CC-PVTZ AUX)
    Blend: AUG-CC-PVTZ-JKFIT
	 Reference Energy          =    -324.8783378732725851 [Eh]
	 Singles Energy            =      -0.0000000000000000 [Eh]
	 Same-Spin Energy          =      -0.3600678044874284 [Eh]
	 Opposite-Spin Energy      =      -1.1515998606390179 [Eh]
	 Correlation Energy        =      -1.5116676651264462 [Eh]
	 Total Energy              =    -326.3900055383990093 [Eh]

	 ================> DF-SCS-MP2 Energies <==================
	-----------------------------------------------------------
	 SCS Same-Spin Scale       =       0.3333333333333333 [-]
	 SCS Opposite-Spin Scale   =       1.2000000000000000 [-]
	 SCS Same-Spin Energy      =      -0.1200226014958095 [Eh]
	 SCS Opposite-Spin Energy  =      -1.3819198327668214 [Eh]
	 SCS Correlation Energy    =      -1.5019424342626309 [Eh]
	 SCS Total Energy          =    -326.3802803075352017 [Eh]
	-----------------------------------------------------------

  Dipole Moment: [D]
     X:     0.9317      Y:    -0.0000      Z:     1.1143     Total:     1.4525

*** Psi4 exiting successfully. Buy a developer a beer!
