                               Psi4 1.3.2 release

  ==> Input File <==

--------------------------------------------------------------------------
#psi4
#
memory 32 gb

molecule  {
0 1
  N        2.8432420    -0.0000300    -0.0741500
  C       -1.3987330     0.0000320    -0.0172550
  C        1.4375000     0.0000010     0.0042750
  C       -0.6732730    -1.1974670    -0.0089890
  C       -0.6732520     1.1975000    -0.0089860
  C        0.7202200    -1.2039320    -0.0146160
  C        0.7202540     1.2039380    -0.0146150
  C       -2.8048057    -0.0000137     0.0247826
  H       -1.2061990    -2.1473890    -0.0196480
  H       -1.2061560     2.1474320    -0.0196330
  H        1.2592620    -2.1503360    -0.0187000
  H        1.2593140     2.1503320    -0.0186990
  H       -3.3125570     0.8858000    -0.4679490
  H       -3.3126490    -0.8837290    -0.4716300
  H       -3.2750890    -0.0021640     1.0590980
  H        3.2618470     0.8295390     0.3353270
  H        3.2618090    -0.8296010     0.3353740
units angstrom
no_reorient  #important for SAPT in psi4, default
symmetry c1  #important for SAPT in psi4, default
}

set PROPERTIES_ORIGIN ["COM"]
properties('MP2/aug-cc-pvtz', properties = ['dipole'])
--------------------------------------------------------------------------

    Molecular point group: c1
  Charge       = 0
  Multiplicity = 1
  Basis Set: AUG-CC-PVTZ
    Blend: AUG-CC-PVTZ
  Basis Set: (AUG-CC-PVTZ AUX)
    Blend: AUG-CC-PVTZ-JKFIT

    Orbital Energies [Eh]
    ---------------------

    Doubly Occupied:

       1A    -15.564365     2A    -11.273492     3A    -11.231488
       4A    -11.231426     5A    -11.224859     6A    -11.224840
       7A    -11.223209     8A    -11.221639     9A     -1.218886
      10A     -1.136048    11A     -1.031214    12A     -1.008971
      13A     -0.910182    14A     -0.832961    15A     -0.788399
      16A     -0.692075    17A     -0.684033    18A     -0.644489
      19A     -0.602409    20A     -0.590207    21A     -0.578194
      22A     -0.562427    23A     -0.525832    24A     -0.513415
      25A     -0.508266    26A     -0.475378    27A     -0.434583
      28A     -0.335007    29A     -0.285919

  @DF-RHF Final Energy:  -324.87012977997136

   => Energetics <=

    Nuclear Repulsion Energy =            343.5981160499407565
    One-Electron Energy =               -1119.8280675256153245
    Two-Electron Energy =                 451.3598216957032605
    Total Energy =                       -324.8701297799713643
  Basis Set: (AUG-CC-PVTZ AUX)
    Blend: AUG-CC-PVTZ-RI
    Molecular point group: c1

    Geometry (in Angstrom), charge = 0, multiplicity = 1:

       Center              X                  Y                   Z               Mass
    ------------   -----------------  -----------------  -----------------  -----------------
         N            2.801653346957    -0.000031518584    -0.067201079223    14.003074004430
         C           -1.440321653043     0.000030481416    -0.010306079223    12.000000000000
         C            1.395911346957    -0.000000518584     0.011223920777    12.000000000000
         C           -0.714861653043    -1.197468518584    -0.002040079223    12.000000000000
         C           -0.714840653043     1.197498481416    -0.002037079223    12.000000000000
         C            0.678631346957    -1.203933518584    -0.007667079223    12.000000000000
         C            0.678665346957     1.203936481416    -0.007666079223    12.000000000000
         C           -2.846394353043    -0.000015218584     0.031731520777    12.000000000000
         H           -1.247787653043    -2.147390518584    -0.012699079223     1.007825032230
         H           -1.247744653043     2.147430481416    -0.012684079223     1.007825032230
         H            1.217673346957    -2.150337518584    -0.011751079223     1.007825032230
         H            1.217725346957     2.150330481416    -0.011750079223     1.007825032230
         H           -3.354145653043     0.885798481416    -0.461000079223     1.007825032230
         H           -3.354237653043    -0.883730518584    -0.464681079223     1.007825032230
         H           -3.316677653043    -0.002165518584     1.066046920777     1.007825032230
         H            3.220258346957     0.829537481416     0.342275920777     1.007825032230
         H            3.220220346957    -0.829602518584     0.342322920777     1.007825032230

  Basis Set: AUG-CC-PVTZ
    Blend: AUG-CC-PVTZ
  Basis Set: (AUG-CC-PVTZ AUX)
    Blend: AUG-CC-PVTZ-JKFIT
	 Reference Energy          =    -324.8701297799713643 [Eh]
	 Singles Energy            =      -0.0000000000000000 [Eh]
	 Same-Spin Energy          =      -0.3608769038643548 [Eh]
	 Opposite-Spin Energy      =      -1.1526253076793258 [Eh]
	 Correlation Energy        =      -1.5135022115436807 [Eh]
	 Total Energy              =    -326.3836319915150170 [Eh]

	 ================> DF-SCS-MP2 Energies <==================
	-----------------------------------------------------------
	 SCS Same-Spin Scale       =       0.3333333333333333 [-]
	 SCS Opposite-Spin Scale   =       1.2000000000000000 [-]
	 SCS Same-Spin Energy      =      -0.1202923012881183 [Eh]
	 SCS Opposite-Spin Energy  =      -1.3831503692151910 [Eh]
	 SCS Correlation Energy    =      -1.5034426705033093 [Eh]
	 SCS Total Energy          =    -326.3735724504746827 [Eh]
	-----------------------------------------------------------

  Dipole Moment: [D]
     X:     0.6195      Y:    -0.0003      Z:     1.1226     Total:     1.2822

*** Psi4 exiting successfully. Buy a developer a beer!
