                               Psi4 1.3.2 release

  ==> Input File <==

--------------------------------------------------------------------------
#psi4
#
memory 32 gb

molecule  {
0 1
  N        2.8430941    -0.0245725    -0.0729410
  C       -1.3987330     0.0000320    -0.0172550
  C        1.4375000     0.0000010     0.0042750
  C       -0.6732730    -1.1974670    -0.0089890
  C       -0.6732520     1.1975000    -0.0089860
  C        0.7202200    -1.2039320    -0.0146160
  C        0.7202540     1.2039380    -0.0146150
  C       -2.9047610    -0.0000170     0.0277710
  H       -1.2061990    -2.1473890    -0.0196480
  H       -1.2061560     2.1474320    -0.0196330
  H        1.2592620    -2.1503360    -0.0187000
  H        1.2593140     2.1503320    -0.0186990
  H       -3.3125570     0.8858000    -0.4679490
  H       -3.3126490    -0.8837290    -0.4716300
  H       -3.2750890    -0.0021640     1.0590980
  H        3.2618470     0.8295390     0.3353270
  H        3.2618090    -0.8296010     0.3353740
units angstrom
no_reorient  #important for SAPT in psi4, default
symmetry c1  #important for SAPT in psi4, default
}

set PROPERTIES_ORIGIN ["COM"]
properties('MP2/aug-cc-pvtz', properties = ['dipole'])
--------------------------------------------------------------------------

    Molecular point group: c1
  Charge       = 0
  Multiplicity = 1
  Basis Set: AUG-CC-PVTZ
    Blend: AUG-CC-PVTZ
  Basis Set: (AUG-CC-PVTZ AUX)
    Blend: AUG-CC-PVTZ-JKFIT

    Orbital Energies [Eh]
    ---------------------

    Doubly Occupied:

       1A    -15.563579     2A    -11.272730     3A    -11.231198
       4A    -11.230785     5A    -11.227133     6A    -11.224768
       7A    -11.223796     8A    -11.218560     9A     -1.218276
      10A     -1.129653    11A     -1.019843    12A     -1.008003
      13A     -0.914813    14A     -0.830829    15A     -0.789316
      16A     -0.692634    17A     -0.680719    18A     -0.634043
      19A     -0.601591    20A     -0.584211    21A     -0.577836
      22A     -0.570130    23A     -0.530074    24A     -0.523685
      25A     -0.494779    26A     -0.480395    27A     -0.438377
      28A     -0.334261    29A     -0.287715

  @DF-RHF Final Energy:  -324.88175993416377

   => Energetics <=

    Nuclear Repulsion Energy =            341.9527974359911582
    One-Electron Energy =               -1116.6016516305264759
    Two-Electron Energy =                 449.7670942603714934
    Total Energy =                       -324.8817599341637674
  Basis Set: (AUG-CC-PVTZ AUX)
    Blend: AUG-CC-PVTZ-RI
    Molecular point group: c1

    Geometry (in Angstrom), charge = 0, multiplicity = 1:

       Center              X                  Y                   Z               Mass
    ------------   -----------------  -----------------  -----------------  -----------------
         N            2.812727034582    -0.021363980189    -0.066485109868    14.003074004430
         C           -1.429100065418     0.003240519811    -0.010799109868    12.000000000000
         C            1.407132934582     0.003209519811     0.010730890132    12.000000000000
         C           -0.703640065418    -1.194258480189    -0.002533109868    12.000000000000
         C           -0.703619065418     1.200708519811    -0.002530109868    12.000000000000
         C            0.689852934582    -1.200723480189    -0.008160109868    12.000000000000
         C            0.689886934582     1.207146519811    -0.008159109868    12.000000000000
         C           -2.935128065418     0.003191519811     0.034226890132    12.000000000000
         H           -1.236566065418    -2.144180480189    -0.013192109868     1.007825032230
         H           -1.236523065418     2.150640519811    -0.013177109868     1.007825032230
         H            1.228894934582    -2.147127480189    -0.012244109868     1.007825032230
         H            1.228946934582     2.153540519811    -0.012243109868     1.007825032230
         H           -3.342924065418     0.889008519811    -0.461493109868     1.007825032230
         H           -3.343016065418    -0.880520480189    -0.465174109868     1.007825032230
         H           -3.305456065418     0.001044519811     1.065553890132     1.007825032230
         H            3.231479934582     0.832747519811     0.341782890132     1.007825032230
         H            3.231441934582    -0.826392480189     0.341829890132     1.007825032230

  Basis Set: AUG-CC-PVTZ
    Blend: AUG-CC-PVTZ
  Basis Set: (AUG-CC-PVTZ AUX)
    Blend: AUG-CC-PVTZ-JKFIT
	 Reference Energy          =    -324.8817599341637674 [Eh]
	 Singles Energy            =      -0.0000000000000000 [Eh]
	 Same-Spin Energy          =      -0.3596238213645061 [Eh]
	 Opposite-Spin Energy      =      -1.1511513816435981 [Eh]
	 Correlation Energy        =      -1.5107752030081043 [Eh]
	 Total Energy              =    -326.3925351371718762 [Eh]

	 ================> DF-SCS-MP2 Energies <==================
	-----------------------------------------------------------
	 SCS Same-Spin Scale       =       0.3333333333333333 [-]
	 SCS Opposite-Spin Scale   =       1.2000000000000000 [-]
	 SCS Same-Spin Energy      =      -0.1198746071215020 [Eh]
	 SCS Opposite-Spin Energy  =      -1.3813816579723177 [Eh]
	 SCS Correlation Energy    =      -1.5012562650938197 [Eh]
	 SCS Total Energy          =    -326.3830161992576109 [Eh]
	-----------------------------------------------------------

  Dipole Moment: [D]
     X:     0.5802      Y:     0.0175      Z:     1.1215     Total:     1.2628

*** Psi4 exiting successfully. Buy a developer a beer!
