                               Psi4 1.3.2 release

  ==> Input File <==

--------------------------------------------------------------------------
#psi4
#
memory 32 gb

molecule  {
0 1
  N        2.8432420    -0.0000300    -0.0741500
  C       -1.3987330     0.0000320    -0.0172550
  C        1.4375000     0.0000010     0.0042750
  C       -0.6732730    -1.1974670    -0.0089890
  C       -0.6732520     1.1975000    -0.0089860
  C        0.7202200    -1.2039320    -0.0146160
  C        0.7202540     1.2039380    -0.0146150
  C       -2.9047610    -0.0000170     0.0277710
  H       -1.2061990    -2.1473890    -0.0196480
  H       -1.2061560     2.1474320    -0.0196330
  H        1.2592620    -2.1503360    -0.0187000
  H        1.2593140     2.1503320    -0.0186990
  H       -3.3125570     0.8858000    -0.4679490
  H       -3.3126490    -0.8837290    -0.4716300
  H       -3.2750890    -0.0021640     1.0590980
  H        3.2618470     0.8295390     0.3353270
  H        3.2618090    -0.8296010     0.3353740
units angstrom
no_reorient  #important for SAPT in psi4, default
symmetry c1  #important for SAPT in psi4, default
}

set PROPERTIES_ORIGIN ["COM"]
properties('MP2/aug-cc-pvtz', properties = ['dipole'])
--------------------------------------------------------------------------

    Molecular point group: c1
  Charge       = 0
  Multiplicity = 1
  Basis Set: AUG-CC-PVTZ
    Blend: AUG-CC-PVTZ
  Basis Set: (AUG-CC-PVTZ AUX)
    Blend: AUG-CC-PVTZ-JKFIT

    Orbital Energies [Eh]
    ---------------------

    Doubly Occupied:

       1A    -15.563695     2A    -11.272657     3A    -11.231075
       4A    -11.230900     5A    -11.227137     6A    -11.224287
       7A    -11.224265     8A    -11.218561     9A     -1.218118
      10A     -1.129596    11A     -1.019755    12A     -1.008013
      13A     -0.914717    14A     -0.830833    15A     -0.789151
      16A     -0.690833    17A     -0.682129    18A     -0.633966
      19A     -0.601353    20A     -0.584694    21A     -0.577833
      22A     -0.570130    23A     -0.530110    24A     -0.523678
      25A     -0.494777    26A     -0.480427    27A     -0.438406
      28A     -0.334255    29A     -0.287738

  @DF-RHF Final Energy:  -324.88254696212925

   => Energetics <=

    Nuclear Repulsion Energy =            341.9458325534853884
    One-Electron Energy =               -1116.5905792785090398
    Two-Electron Energy =                 449.7621997628943973
    Total Energy =                       -324.8825469621292541
  Basis Set: (AUG-CC-PVTZ AUX)
    Blend: AUG-CC-PVTZ-RI
    Molecular point group: c1

    Geometry (in Angstrom), charge = 0, multiplicity = 1:

       Center              X                  Y                   Z               Mass
    ------------   -----------------  -----------------  -----------------  -----------------
         N            2.812855592218    -0.000031148744    -0.067535996828    14.003074004430
         C           -1.429119407782     0.000030851256    -0.010640996828    12.000000000000
         C            1.407113592218    -0.000000148744     0.010889003172    12.000000000000
         C           -0.703659407782    -1.197468148744    -0.002374996828    12.000000000000
         C           -0.703638407782     1.197498851256    -0.002371996828    12.000000000000
         C            0.689833592218    -1.203933148744    -0.008001996828    12.000000000000
         C            0.689867592218     1.203936851256    -0.008000996828    12.000000000000
         C           -2.935147407782    -0.000018148744     0.034385003172    12.000000000000
         H           -1.236585407782    -2.147390148744    -0.013033996828     1.007825032230
         H           -1.236542407782     2.147430851256    -0.013018996828     1.007825032230
         H            1.228875592218    -2.150337148744    -0.012085996828     1.007825032230
         H            1.228927592218     2.150330851256    -0.012084996828     1.007825032230
         H           -3.342943407782     0.885798851256    -0.461334996828     1.007825032230
         H           -3.343035407782    -0.883730148744    -0.465015996828     1.007825032230
         H           -3.305475407782    -0.002165148744     1.065712003172     1.007825032230
         H            3.231460592218     0.829537851256     0.341941003172     1.007825032230
         H            3.231422592218    -0.829602148744     0.341988003172     1.007825032230

  Basis Set: AUG-CC-PVTZ
    Blend: AUG-CC-PVTZ
  Basis Set: (AUG-CC-PVTZ AUX)
    Blend: AUG-CC-PVTZ-JKFIT
	 Reference Energy          =    -324.8825469621292541 [Eh]
	 Singles Energy            =      -0.0000000000000000 [Eh]
	 Same-Spin Energy          =      -0.3596201841040018 [Eh]
	 Opposite-Spin Energy      =      -1.1511335411656438 [Eh]
	 Correlation Energy        =      -1.5107537252696457 [Eh]
	 Total Energy              =    -326.3933006873988916 [Eh]

	 ================> DF-SCS-MP2 Energies <==================
	-----------------------------------------------------------
	 SCS Same-Spin Scale       =       0.3333333333333333 [-]
	 SCS Opposite-Spin Scale   =       1.2000000000000000 [-]
	 SCS Same-Spin Energy      =      -0.1198733947013339 [Eh]
	 SCS Opposite-Spin Energy  =      -1.3813602493987724 [Eh]
	 SCS Correlation Energy    =      -1.5012336441001064 [Eh]
	 SCS Total Energy          =    -326.3837806062293794 [Eh]
	-----------------------------------------------------------

  Dipole Moment: [D]
     X:     0.5799      Y:    -0.0003      Z:     1.1236     Total:     1.2644

*** Psi4 exiting successfully. Buy a developer a beer!
