                               Psi4 1.3.2 release

  ==> Input File <==

--------------------------------------------------------------------------
#psi4
#
memory 32 gb

molecule  {
0 1
  N        2.8429617     0.0245125    -0.0753352
  C       -1.3987330     0.0000320    -0.0172550
  C        1.4375000     0.0000010     0.0042750
  C       -0.6732730    -1.1974670    -0.0089890
  C       -0.6732520     1.1975000    -0.0089860
  C        0.7202200    -1.2039320    -0.0146160
  C        0.7202540     1.2039380    -0.0146150
  C       -2.9047610    -0.0000170     0.0277710
  H       -1.2061990    -2.1473890    -0.0196480
  H       -1.2061560     2.1474320    -0.0196330
  H        1.2592620    -2.1503360    -0.0187000
  H        1.2593140     2.1503320    -0.0186990
  H       -3.3125570     0.8858000    -0.4679490
  H       -3.3126490    -0.8837290    -0.4716300
  H       -3.2750890    -0.0021640     1.0590980
  H        3.2618470     0.8295390     0.3353270
  H        3.2618090    -0.8296010     0.3353740
units angstrom
no_reorient  #important for SAPT in psi4, default
symmetry c1  #important for SAPT in psi4, default
}

set PROPERTIES_ORIGIN ["COM"]
properties('MP2/aug-cc-pvtz', properties = ['dipole'])
--------------------------------------------------------------------------

    Molecular point group: c1
  Charge       = 0
  Multiplicity = 1
  Basis Set: AUG-CC-PVTZ
    Blend: AUG-CC-PVTZ
  Basis Set: (AUG-CC-PVTZ AUX)
    Blend: AUG-CC-PVTZ-JKFIT

    Orbital Energies [Eh]
    ---------------------

    Doubly Occupied:

       1A    -15.563814     2A    -11.272684     3A    -11.231211
       4A    -11.230795     5A    -11.227178     6A    -11.224806
       7A    -11.223819     8A    -11.218584     9A     -1.218180
      10A     -1.129633    11A     -1.019814    12A     -1.008022
      13A     -0.914785    14A     -0.830819    15A     -0.789285
      16A     -0.692483    17A     -0.680373    18A     -0.634058
      19A     -0.601331    20A     -0.584217    21A     -0.577854
      22A     -0.570152    23A     -0.530059    24A     -0.523727
      25A     -0.494770    26A     -0.480400    27A     -0.438484
      28A     -0.334273    29A     -0.287808

  @DF-RHF Final Energy:  -324.88167983333619

   => Energetics <=

    Nuclear Repulsion Energy =            341.9464250022061833
    One-Electron Energy =               -1116.5893821190647941
    Two-Electron Energy =                 449.7612772835224177
    Total Energy =                       -324.8816798333361930
  Basis Set: (AUG-CC-PVTZ AUX)
    Blend: AUG-CC-PVTZ-RI
    Molecular point group: c1

    Geometry (in Angstrom), charge = 0, multiplicity = 1:

       Center              X                  Y                   Z               Mass
    ------------   -----------------  -----------------  -----------------  -----------------
         N            2.812611949856     0.021301682701    -0.068566196353    14.003074004430
         C           -1.429082750144    -0.003178817299    -0.010485996353    12.000000000000
         C            1.407150249856    -0.003209817299     0.011044003647    12.000000000000
         C           -0.703622750144    -1.200677817299    -0.002219996353    12.000000000000
         C           -0.703601750144     1.194289182701    -0.002216996353    12.000000000000
         C            0.689870249856    -1.207142817299    -0.007846996353    12.000000000000
         C            0.689904249856     1.200727182701    -0.007845996353    12.000000000000
         C           -2.935110750144    -0.003227817299     0.034540003647    12.000000000000
         H           -1.236548750144    -2.150599817299    -0.012878996353     1.007825032230
         H           -1.236505750144     2.144221182701    -0.012863996353     1.007825032230
         H            1.228912249856    -2.153546817299    -0.011930996353     1.007825032230
         H            1.228964249856     2.147121182701    -0.011929996353     1.007825032230
         H           -3.342906750144     0.882589182701    -0.461179996353     1.007825032230
         H           -3.342998750144    -0.886939817299    -0.464860996353     1.007825032230
         H           -3.305438750144    -0.005374817299     1.065867003647     1.007825032230
         H            3.231497249856     0.826328182701     0.342096003647     1.007825032230
         H            3.231459249856    -0.832811817299     0.342143003647     1.007825032230

  Basis Set: AUG-CC-PVTZ
    Blend: AUG-CC-PVTZ
  Basis Set: (AUG-CC-PVTZ AUX)
    Blend: AUG-CC-PVTZ-JKFIT
	 Reference Energy          =    -324.8816798333361930 [Eh]
	 Singles Energy            =      -0.0000000000000000 [Eh]
	 Same-Spin Energy          =      -0.3596354471085731 [Eh]
	 Opposite-Spin Energy      =      -1.1511928016121571 [Eh]
	 Correlation Energy        =      -1.5108282487207303 [Eh]
	 Total Energy              =    -326.3925080820569065 [Eh]

	 ================> DF-SCS-MP2 Energies <==================
	-----------------------------------------------------------
	 SCS Same-Spin Scale       =       0.3333333333333333 [-]
	 SCS Opposite-Spin Scale   =       1.2000000000000000 [-]
	 SCS Same-Spin Energy      =      -0.1198784823695244 [Eh]
	 SCS Opposite-Spin Energy  =      -1.3814313619345884 [Eh]
	 SCS Correlation Energy    =      -1.5013098443041129 [Eh]
	 SCS Total Energy          =    -326.3829896776402961 [Eh]
	-----------------------------------------------------------

  Dipole Moment: [D]
     X:     0.5759      Y:    -0.0180      Z:     1.1258     Total:     1.2646

*** Psi4 exiting successfully. Buy a developer a beer!
