                               Psi4 1.4a3.dev225

  ==> Input File <==

--------------------------------------------------------------------------
#psi4
#
memory 32 gb

molecule  {
0 1
  N        2.8432840     0.0000010    -0.0745030
  C       -1.3986540     0.0000000    -0.0170120
  C        1.4375310     0.0000000     0.0042070
  C       -0.6732940    -1.1975080    -0.0091010
  C       -0.6732940     1.1975090    -0.0091010
  C        0.7202880    -1.2039700    -0.0142280
  C        0.7202880     1.2039700    -0.0142290
  C       -2.9047420     0.0000000     0.0276170
  H       -1.2062760    -2.1473880    -0.0194750
  H       -1.2062760     2.1473880    -0.0194750
  H        1.2592860    -2.1503840    -0.0188250
  H        1.2592870     2.1503840    -0.0188280
  H       -3.2939897     0.8442407    -0.4474248
  H       -3.3126330    -0.8846640    -0.4701940
  H       -3.2755950    -0.0000100     1.0587510
  H        3.2615550     0.8294510     0.3354210
  H        3.2615550    -0.8294590     0.3354000
units angstrom
no_reorient  #important for SAPT in psi4, default
symmetry c1  #important for SAPT in psi4, default
}

set PROPERTIES_ORIGIN ["COM"]
properties('MP2/aug-cc-pvtz', properties = ['dipole'])
--------------------------------------------------------------------------

    Molecular point group: c1
  Charge       = 0
  Multiplicity = 1
  Basis Set: AUG-CC-PVTZ
    Blend: AUG-CC-PVTZ
  Basis Set: (AUG-CC-PVTZ AUX)
    Blend: AUG-CC-PVTZ-JKFIT

    Orbital Energies [Eh]
    ---------------------

    Doubly Occupied:

       1A    -15.563549     2A    -11.272469     3A    -11.230918
       4A    -11.230611     5A    -11.226742     6A    -11.224184
       7A    -11.224109     8A    -11.212386     9A     -1.217999
      10A     -1.129578    11A     -1.021244    12A     -1.007835
      13A     -0.917991    14A     -0.830752    15A     -0.789797
      16A     -0.690856    17A     -0.682243    18A     -0.634352
      19A     -0.602815    20A     -0.584802    21A     -0.577769
      22A     -0.571748    23A     -0.535214    24A     -0.523741
      25A     -0.494450    26A     -0.480656    27A     -0.438424
      28A     -0.334087    29A     -0.287635

  @DF-RHF Final Energy:  -324.88159515774083

   => Energetics <=

    Nuclear Repulsion Energy =            342.1595797707299198
    One-Electron Energy =               -1117.0044314185552139
    Two-Electron Energy =                 449.9632564900844613
    Total Energy =                       -324.8815951577408327
  Basis Set: (AUG-CC-PVTZ AUX)
    Blend: AUG-CC-PVTZ-RI
    Molecular point group: c1

    Geometry (in Angstrom), charge = 0, multiplicity = 1:

       Center              X                  Y                   Z               Mass
    ------------   -----------------  -----------------  -----------------  -----------------
         N            2.812710141100     0.000381409267    -0.068111776326    14.003074004430
         C           -1.429227858900     0.000380409267    -0.010620776326    12.000000000000
         C            1.406957141100     0.000380409267     0.010598223674    12.000000000000
         C           -0.703867858900    -1.197127590733    -0.002709776326    12.000000000000
         C           -0.703867858900     1.197889409267    -0.002709776326    12.000000000000
         C            0.689714141100    -1.203589590733    -0.007836776326    12.000000000000
         C            0.689714141100     1.204350409267    -0.007837776326    12.000000000000
         C           -2.935315858900     0.000380409267     0.034008223674    12.000000000000
         H           -1.236849858900    -2.147007590733    -0.013083776326     1.007825032230
         H           -1.236849858900     2.147768409267    -0.013083776326     1.007825032230
         H            1.228712141100    -2.150003590733    -0.012433776326     1.007825032230
         H            1.228713141100     2.150764409267    -0.012436776326     1.007825032230
         H           -3.324563558900     0.844621109267    -0.441033576326     1.007825032230
         H           -3.343206858900    -0.884283590733    -0.463802776326     1.007825032230
         H           -3.306168858900     0.000370409267     1.065142223674     1.007825032230
         H            3.230981141100     0.829831409267     0.341812223674     1.007825032230
         H            3.230981141100    -0.829078590733     0.341791223674     1.007825032230

  Basis Set: AUG-CC-PVTZ
    Blend: AUG-CC-PVTZ
  Basis Set: (AUG-CC-PVTZ AUX)
    Blend: AUG-CC-PVTZ-JKFIT
	 Reference Energy          =    -324.8815951577408327 [Eh]
	 Singles Energy            =      -0.0000000000000000 [Eh]
	 Same-Spin Energy          =      -0.3596215932643498 [Eh]
	 Opposite-Spin Energy      =      -1.1508505485318663 [Eh]
	 Correlation Energy        =      -1.5104721417962161 [Eh]
	 Total Energy              =    -326.3920672995370751 [Eh]

	 ================> DF-SCS-MP2 Energies <==================
	-----------------------------------------------------------
	 SCS Same-Spin Scale       =       0.3333333333333333 [-]
	 SCS Opposite-Spin Scale   =       1.2000000000000000 [-]
	 SCS Same-Spin Energy      =      -0.1198738644214499 [Eh]
	 SCS Opposite-Spin Energy  =      -1.3810206582382396 [Eh]
	 SCS Correlation Energy    =      -1.5008945226596895 [Eh]
	 SCS Total Energy          =    -326.3824896804005107 [Eh]
	-----------------------------------------------------------

  Dipole Moment: [D]
     X:     0.5548      Y:     0.0167      Z:     1.1152     Total:     1.2456

*** Psi4 exiting successfully. Buy a developer a beer!
