                               Psi4 1.3.2 release

  ==> Input File <==

--------------------------------------------------------------------------
#psi4
#
memory 32 gb

molecule  {
0 1
  N        2.8432420    -0.0000300    -0.0741500
  C       -1.3987330     0.0000320    -0.0172550
  C        1.4375000     0.0000010     0.0042750
  C       -0.6732730    -1.1974670    -0.0089890
  C       -0.6732520     1.1975000    -0.0089860
  C        0.7202200    -1.2039320    -0.0146160
  C        0.7202540     1.2039380    -0.0146150
  C       -2.9047610    -0.0000170     0.0277710
  H       -1.2061990    -2.1473890    -0.0196480
  H       -1.2061560     2.1474320    -0.0196330
  H        1.2592620    -2.1503360    -0.0187000
  H        1.2593140     2.1503320    -0.0186990
  H       -3.3125570     0.8858000    -0.4679490
  H       -3.3126490    -0.8837290    -0.4716300
  H       -3.2750890    -0.0021640     1.0590980
  H        3.2206224     0.7478422     0.2950013
  H        3.2618090    -0.8296010     0.3353740
units angstrom
no_reorient  #important for SAPT in psi4, default
symmetry c1  #important for SAPT in psi4, default
}

set PROPERTIES_ORIGIN ["COM"]
properties('MP2/aug-cc-pvtz', properties = ['dipole'])
--------------------------------------------------------------------------

    Molecular point group: c1
  Charge       = 0
  Multiplicity = 1
  Basis Set: AUG-CC-PVTZ
    Blend: AUG-CC-PVTZ
  Basis Set: (AUG-CC-PVTZ AUX)
    Blend: AUG-CC-PVTZ-JKFIT

    Orbital Energies [Eh]
    ---------------------

    Doubly Occupied:

       1A    -15.552747     2A    -11.272660     3A    -11.231234
       4A    -11.231021     5A    -11.227377     6A    -11.224625
       7A    -11.224302     8A    -11.218702     9A     -1.230657
      10A     -1.132823    11A     -1.022968    12A     -1.008228
      13A     -0.917413    14A     -0.832112    15A     -0.791684
      16A     -0.702772    17A     -0.688315    18A     -0.634400
      19A     -0.607957    20A     -0.585768    21A     -0.577993
      22A     -0.570292    23A     -0.530896    24A     -0.524429
      25A     -0.495019    26A     -0.480729    27A     -0.439498
      28A     -0.334394    29A     -0.288440

  @DF-RHF Final Energy:  -324.87592584731203

   => Energetics <=

    Nuclear Repulsion Energy =            342.5026174556293199
    One-Electron Energy =               -1117.5981766812019487
    Two-Electron Energy =                 450.2196333782605961
    Total Energy =                       -324.8759258473120326
  Basis Set: (AUG-CC-PVTZ AUX)
    Blend: AUG-CC-PVTZ-RI
    Molecular point group: c1

    Geometry (in Angstrom), charge = 0, multiplicity = 1:

       Center              X                  Y                   Z               Mass
    ------------   -----------------  -----------------  -----------------  -----------------
         N            2.813243617117     0.000737819120    -0.067156432789    14.003074004430
         C           -1.428731382883     0.000799819120    -0.010261432789    12.000000000000
         C            1.407501617117     0.000768819120     0.011268567211    12.000000000000
         C           -0.703271382883    -1.196699180880    -0.001995432789    12.000000000000
         C           -0.703250382883     1.198267819120    -0.001992432789    12.000000000000
         C            0.690221617117    -1.203164180880    -0.007622432789    12.000000000000
         C            0.690255617117     1.204705819120    -0.007621432789    12.000000000000
         C           -2.934759382883     0.000750819120     0.034764567211    12.000000000000
         H           -1.236197382883    -2.146621180880    -0.012654432789     1.007825032230
         H           -1.236154382883     2.148199819120    -0.012639432789     1.007825032230
         H            1.229263617117    -2.149568180880    -0.011706432789     1.007825032230
         H            1.229315617117     2.151099819120    -0.011705432789     1.007825032230
         H           -3.342555382883     0.886567819120    -0.460955432789     1.007825032230
         H           -3.342647382883    -0.882961180880    -0.464636432789     1.007825032230
         H           -3.305087382883    -0.001396180880     1.066091567211     1.007825032230
         H            3.190624017117     0.748610019120     0.301994867211     1.007825032230
         H            3.231810617117    -0.828833180880     0.342367567211     1.007825032230

  Basis Set: AUG-CC-PVTZ
    Blend: AUG-CC-PVTZ
  Basis Set: (AUG-CC-PVTZ AUX)
    Blend: AUG-CC-PVTZ-JKFIT
	 Reference Energy          =    -324.8759258473120326 [Eh]
	 Singles Energy            =      -0.0000000000000000 [Eh]
	 Same-Spin Energy          =      -0.3590628985541511 [Eh]
	 Opposite-Spin Energy      =      -1.1495848392687480 [Eh]
	 Correlation Energy        =      -1.5086477378228991 [Eh]
	 Total Energy              =    -326.3845735851349446 [Eh]

	 ================> DF-SCS-MP2 Energies <==================
	-----------------------------------------------------------
	 SCS Same-Spin Scale       =       0.3333333333333333 [-]
	 SCS Opposite-Spin Scale   =       1.2000000000000000 [-]
	 SCS Same-Spin Energy      =      -0.1196876328513837 [Eh]
	 SCS Opposite-Spin Energy  =      -1.3795018071224976 [Eh]
	 SCS Correlation Energy    =      -1.4991894399738812 [Eh]
	 SCS Total Energy          =    -326.3751152872858938 [Eh]
	-----------------------------------------------------------

  Dipole Moment: [D]
     X:     0.5536      Y:    -0.0448      Z:     1.1108     Total:     1.2419

*** Psi4 exiting successfully. Buy a developer a beer!
