                               Psi4 1.3.2 release

  ==> Input File <==

--------------------------------------------------------------------------
#psi4
#
memory 32 gb

molecule  {
0 1
  N        2.8432420    -0.0000300    -0.0741500
  C       -1.3987330     0.0000320    -0.0172550
  C        1.4434501    -0.0870988     0.0493927
  C       -0.6732730    -1.1974670    -0.0089890
  C       -0.6732520     1.1975000    -0.0089860
  C        0.7202200    -1.2039320    -0.0146160
  C        0.7202540     1.2039380    -0.0146150
  C       -2.9047610    -0.0000170     0.0277710
  H       -1.2061990    -2.1473890    -0.0196480
  H       -1.2061560     2.1474320    -0.0196330
  H        1.2592620    -2.1503360    -0.0187000
  H        1.2593140     2.1503320    -0.0186990
  H       -3.3125570     0.8858000    -0.4679490
  H       -3.3126490    -0.8837290    -0.4716300
  H       -3.2750890    -0.0021640     1.0590980
  H        3.2618470     0.8295390     0.3353270
  H        3.2618090    -0.8296010     0.3353740
units angstrom
no_reorient  #important for SAPT in psi4, default
symmetry c1  #important for SAPT in psi4, default
}

set PROPERTIES_ORIGIN ["COM"]
properties('MP2/aug-cc-pvtz', properties = ['dipole'])
--------------------------------------------------------------------------

    Molecular point group: c1
  Charge       = 0
  Multiplicity = 1
  Basis Set: AUG-CC-PVTZ
    Blend: AUG-CC-PVTZ
  Basis Set: (AUG-CC-PVTZ AUX)
    Blend: AUG-CC-PVTZ-JKFIT

    Orbital Energies [Eh]
    ---------------------

    Doubly Occupied:

       1A    -15.564482     2A    -11.271660     3A    -11.233100
       4A    -11.230699     5A    -11.230427     6A    -11.227887
       7A    -11.218840     8A    -11.215573     9A     -1.219023
      10A     -1.129921    11A     -1.025511    12A     -1.003420
      13A     -0.915728    14A     -0.829864    15A     -0.787468
      16A     -0.691688    17A     -0.680713    18A     -0.635038
      19A     -0.605736    20A     -0.585966    21A     -0.571159
      22A     -0.569883    23A     -0.529807    24A     -0.524365
      25A     -0.496769    26A     -0.473533    27A     -0.439385
      28A     -0.336166    29A     -0.287421

  @DF-RHF Final Energy:  -324.87171467026701

   => Energetics <=

    Nuclear Repulsion Energy =            341.8721479033656010
    One-Electron Energy =               -1116.4252586596676338
    Two-Electron Energy =                 449.6813960860349653
    Total Energy =                       -324.8717146702670107
  Basis Set: (AUG-CC-PVTZ AUX)
    Blend: AUG-CC-PVTZ-RI
    Molecular point group: c1

    Geometry (in Angstrom), charge = 0, multiplicity = 1:

       Center              X                  Y                   Z               Mass
    ------------   -----------------  -----------------  -----------------  -----------------
         N            2.812188749344     0.009730347862    -0.072592452474    14.003074004430
         C           -1.429786250656     0.009792347862    -0.015697452474    12.000000000000
         C            1.412396849344    -0.077338452138     0.050950247526    12.000000000000
         C           -0.704326250656    -1.187706652138    -0.007431452474    12.000000000000
         C           -0.704305250656     1.207260347862    -0.007428452474    12.000000000000
         C            0.689166749344    -1.194171652138    -0.013058452474    12.000000000000
         C            0.689200749344     1.213698347862    -0.013057452474    12.000000000000
         C           -2.935814250656     0.009743347862     0.029328547526    12.000000000000
         H           -1.237252250656    -2.137628652138    -0.018090452474     1.007825032230
         H           -1.237209250656     2.157192347862    -0.018075452474     1.007825032230
         H            1.228208749344    -2.140575652138    -0.017142452474     1.007825032230
         H            1.228260749344     2.160092347862    -0.017141452474     1.007825032230
         H           -3.343610250656     0.895560347862    -0.466391452474     1.007825032230
         H           -3.343702250656    -0.873968652138    -0.470072452474     1.007825032230
         H           -3.306142250656     0.007596347862     1.060655547526     1.007825032230
         H            3.230793749344     0.839299347862     0.336884547526     1.007825032230
         H            3.230755749344    -0.819840652138     0.336931547526     1.007825032230

  Basis Set: AUG-CC-PVTZ
    Blend: AUG-CC-PVTZ
  Basis Set: (AUG-CC-PVTZ AUX)
    Blend: AUG-CC-PVTZ-JKFIT
	 Reference Energy          =    -324.8717146702670107 [Eh]
	 Singles Energy            =      -0.0000000000000000 [Eh]
	 Same-Spin Energy          =      -0.3594858813784821 [Eh]
	 Opposite-Spin Energy      =      -1.1518909182117181 [Eh]
	 Correlation Energy        =      -1.5113767995902001 [Eh]
	 Total Energy              =    -326.3830914698572201 [Eh]

	 ================> DF-SCS-MP2 Energies <==================
	-----------------------------------------------------------
	 SCS Same-Spin Scale       =       0.3333333333333333 [-]
	 SCS Opposite-Spin Scale   =       1.2000000000000000 [-]
	 SCS Same-Spin Energy      =      -0.1198286271261607 [Eh]
	 SCS Opposite-Spin Energy  =      -1.3822691018540616 [Eh]
	 SCS Correlation Energy    =      -1.5020977289802222 [Eh]
	 SCS Total Energy          =    -326.3738123992472424 [Eh]
	-----------------------------------------------------------

  Dipole Moment: [D]
     X:     0.5795      Y:     0.0294      Z:     1.1232     Total:     1.2642

*** Psi4 exiting successfully. Buy a developer a beer!
