                               Psi4 1.4a3.dev225

  ==> Input File <==

--------------------------------------------------------------------------
#psi4
#
memory 32 gb

molecule  {
0 1
  N        2.8432840     0.0000010    -0.0745030
  C       -1.3986540     0.0000000    -0.0170120
  C        1.4375310     0.0000000     0.0042070
  C       -0.6732940    -1.1975080    -0.0091010
  C       -0.6732940     1.1975090    -0.0091010
  C        0.7202880    -1.2039700    -0.0142280
  C        0.7202880     1.2039700    -0.0142290
  C       -2.9047420     0.0000000     0.0276170
  H       -1.2062760    -2.1473880    -0.0194750
  H       -1.2062760     2.1473880    -0.0194750
  H        1.2592860    -2.1503840    -0.0188250
  H        1.2592870     2.1503840    -0.0188280
  H       -3.3051751     0.8685007    -0.4610755
  H       -3.3126330    -0.8846640    -0.4701940
  H       -3.2755950    -0.0000100     1.0587510
  H        3.2615550     0.8294510     0.3354210
  H        3.2615550    -0.8294590     0.3354000
units angstrom
no_reorient  #important for SAPT in psi4, default
symmetry c1  #important for SAPT in psi4, default
}

set PROPERTIES_ORIGIN ["COM"]
properties('MP2/aug-cc-pvtz', properties = ['dipole'])
--------------------------------------------------------------------------

    Molecular point group: c1
  Charge       = 0
  Multiplicity = 1
  Basis Set: AUG-CC-PVTZ
    Blend: AUG-CC-PVTZ
  Basis Set: (AUG-CC-PVTZ AUX)
    Blend: AUG-CC-PVTZ-JKFIT

    Orbital Energies [Eh]
    ---------------------

    Doubly Occupied:

       1A    -15.563630     2A    -11.272579     3A    -11.231004
       4A    -11.230803     5A    -11.226980     6A    -11.224253
       7A    -11.224216     8A    -11.216115     9A     -1.218085
      10A     -1.129583    11A     -1.020295    12A     -1.007935
      13A     -0.915962    14A     -0.830810    15A     -0.789391
      16A     -0.690824    17A     -0.682172    18A     -0.634104
      19A     -0.601863    20A     -0.584731    21A     -0.577805
      22A     -0.570736    23A     -0.532187    24A     -0.523755
      25A     -0.494635    26A     -0.480551    27A     -0.438429
      28A     -0.334179    29A     -0.287716

  @DF-RHF Final Energy:  -324.88258914003518

   => Energetics <=

    Nuclear Repulsion Energy =            342.0278175844043176
    One-Electron Energy =               -1116.7501584297278896
    Two-Electron Energy =                 449.8397517052883359
    Total Energy =                       -324.8825891400351793
  Basis Set: (AUG-CC-PVTZ AUX)
    Blend: AUG-CC-PVTZ-RI
    Molecular point group: c1

    Geometry (in Angstrom), charge = 0, multiplicity = 1:

       Center              X                  Y                   Z               Mass
    ------------   -----------------  -----------------  -----------------  -----------------
         N            2.812815423231     0.000153062987    -0.067983289658    14.003074004430
         C           -1.429122576769     0.000152062987    -0.010492289658    12.000000000000
         C            1.407062423231     0.000152062987     0.010726710342    12.000000000000
         C           -0.703762576769    -1.197355937013    -0.002581289658    12.000000000000
         C           -0.703762576769     1.197661062987    -0.002581289658    12.000000000000
         C            0.689819423231    -1.203817937013    -0.007708289658    12.000000000000
         C            0.689819423231     1.204122062987    -0.007709289658    12.000000000000
         C           -2.935210576769     0.000152062987     0.034136710342    12.000000000000
         H           -1.236744576769    -2.147235937013    -0.012955289658     1.007825032230
         H           -1.236744576769     2.147540062987    -0.012955289658     1.007825032230
         H            1.228817423231    -2.150231937013    -0.012305289658     1.007825032230
         H            1.228818423231     2.150536062987    -0.012308289658     1.007825032230
         H           -3.335643676769     0.868652762987    -0.454555789658     1.007825032230
         H           -3.343101576769    -0.884511937013    -0.463674289658     1.007825032230
         H           -3.306063576769     0.000142062987     1.065270710342     1.007825032230
         H            3.231086423231     0.829603062987     0.341940710342     1.007825032230
         H            3.231086423231    -0.829306937013     0.341919710342     1.007825032230

  Basis Set: AUG-CC-PVTZ
    Blend: AUG-CC-PVTZ
  Basis Set: (AUG-CC-PVTZ AUX)
    Blend: AUG-CC-PVTZ-JKFIT
	 Reference Energy          =    -324.8825891400351793 [Eh]
	 Singles Energy            =      -0.0000000000000000 [Eh]
	 Same-Spin Energy          =      -0.3596185629885573 [Eh]
	 Opposite-Spin Energy      =      -1.1510114684295842 [Eh]
	 Correlation Energy        =      -1.5106300314181416 [Eh]
	 Total Energy              =    -326.3932191714533246 [Eh]

	 ================> DF-SCS-MP2 Energies <==================
	-----------------------------------------------------------
	 SCS Same-Spin Scale       =       0.3333333333333333 [-]
	 SCS Opposite-Spin Scale   =       1.2000000000000000 [-]
	 SCS Same-Spin Energy      =      -0.1198728543295191 [Eh]
	 SCS Opposite-Spin Energy  =      -1.3812137621155010 [Eh]
	 SCS Correlation Energy    =      -1.5010866164450201 [Eh]
	 SCS Total Energy          =    -326.3836757564802156 [Eh]
	-----------------------------------------------------------

  Dipole Moment: [D]
     X:     0.5685      Y:     0.0070      Z:     1.1202     Total:     1.2562

*** Psi4 exiting successfully. Buy a developer a beer!
