                               Psi4 1.3.2 release

  ==> Input File <==

--------------------------------------------------------------------------
#psi4
#
memory 32 gb

molecule  {
0 1
  N        2.8432420    -0.0000300    -0.0741500
  C       -1.3987330     0.0000320    -0.0172550
  C        1.4383985     0.0871006    -0.0412248
  C       -0.6732730    -1.1974670    -0.0089890
  C       -0.6732520     1.1975000    -0.0089860
  C        0.7202200    -1.2039320    -0.0146160
  C        0.7202540     1.2039380    -0.0146150
  C       -2.9047610    -0.0000170     0.0277710
  H       -1.2061990    -2.1473890    -0.0196480
  H       -1.2061560     2.1474320    -0.0196330
  H        1.2592620    -2.1503360    -0.0187000
  H        1.2593140     2.1503320    -0.0186990
  H       -3.3125570     0.8858000    -0.4679490
  H       -3.3126490    -0.8837290    -0.4716300
  H       -3.2750890    -0.0021640     1.0590980
  H        3.2618470     0.8295390     0.3353270
  H        3.2618090    -0.8296010     0.3353740
units angstrom
no_reorient  #important for SAPT in psi4, default
symmetry c1  #important for SAPT in psi4, default
}

set PROPERTIES_ORIGIN ["COM"]
properties('MP2/aug-cc-pvtz', properties = ['dipole'])
--------------------------------------------------------------------------

    Molecular point group: c1
  Charge       = 0
  Multiplicity = 1
  Basis Set: AUG-CC-PVTZ
    Blend: AUG-CC-PVTZ
  Basis Set: (AUG-CC-PVTZ AUX)
    Blend: AUG-CC-PVTZ-JKFIT

    Orbital Energies [Eh]
    ---------------------

    Doubly Occupied:

       1A    -15.563013     2A    -11.272166     3A    -11.232699
       4A    -11.230871     5A    -11.230641     6A    -11.227511
       7A    -11.218721     8A    -11.214755     9A     -1.217373
      10A     -1.129853    11A     -1.025960    12A     -1.003732
      13A     -0.915981    14A     -0.830372    15A     -0.787991
      16A     -0.693597    17A     -0.680290    18A     -0.635501
      19A     -0.606190    20A     -0.586415    21A     -0.571321
      22A     -0.570261    23A     -0.529963    24A     -0.523902
      25A     -0.497160    26A     -0.474583    27A     -0.436834
      28A     -0.336554    29A     -0.287113

  @DF-RHF Final Energy:  -324.87290311742044

   => Energetics <=

    Nuclear Repulsion Energy =            341.9726750497902117
    One-Electron Energy =               -1116.6285104226803924
    Two-Electron Energy =                 449.7829322554696887
    Total Energy =                       -324.8729031174204351
  Basis Set: (AUG-CC-PVTZ AUX)
    Blend: AUG-CC-PVTZ-RI
    Molecular point group: c1

    Geometry (in Angstrom), charge = 0, multiplicity = 1:

       Center              X                  Y                   Z               Mass
    ------------   -----------------  -----------------  -----------------  -----------------
         N            2.812754895032    -0.009792622936    -0.062436718262    14.003074004430
         C           -1.429220104968    -0.009730622936    -0.005541718262    12.000000000000
         C            1.407911395032     0.077337977064    -0.029511518262    12.000000000000
         C           -0.703760104968    -1.207229622936     0.002724281738    12.000000000000
         C           -0.703739104968     1.187737377064     0.002727281738    12.000000000000
         C            0.689732895032    -1.213694622936    -0.002902718262    12.000000000000
         C            0.689766895032     1.194175377064    -0.002901718262    12.000000000000
         C           -2.935248104968    -0.009779622936     0.039484281738    12.000000000000
         H           -1.236686104968    -2.157151622936    -0.007934718262     1.007825032230
         H           -1.236643104968     2.137669377064    -0.007919718262     1.007825032230
         H            1.228774895032    -2.160098622936    -0.006986718262     1.007825032230
         H            1.228826895032     2.140569377064    -0.006985718262     1.007825032230
         H           -3.343044104968     0.876037377064    -0.456235718262     1.007825032230
         H           -3.343136104968    -0.893491622936    -0.459916718262     1.007825032230
         H           -3.305576104968    -0.011926622936     1.070811281738     1.007825032230
         H            3.231359895032     0.819776377064     0.347040281738     1.007825032230
         H            3.231321895032    -0.839363622936     0.347087281738     1.007825032230

  Basis Set: AUG-CC-PVTZ
    Blend: AUG-CC-PVTZ
  Basis Set: (AUG-CC-PVTZ AUX)
    Blend: AUG-CC-PVTZ-JKFIT
	 Reference Energy          =    -324.8729031174204351 [Eh]
	 Singles Energy            =      -0.0000000000000000 [Eh]
	 Same-Spin Energy          =      -0.3593438231640154 [Eh]
	 Opposite-Spin Energy      =      -1.1514258055681801 [Eh]
	 Correlation Energy        =      -1.5107696287321954 [Eh]
	 Total Energy              =    -326.3836727461526266 [Eh]

	 ================> DF-SCS-MP2 Energies <==================
	-----------------------------------------------------------
	 SCS Same-Spin Scale       =       0.3333333333333333 [-]
	 SCS Opposite-Spin Scale   =       1.2000000000000000 [-]
	 SCS Same-Spin Energy      =      -0.1197812743880051 [Eh]
	 SCS Opposite-Spin Energy  =      -1.3817109666818161 [Eh]
	 SCS Correlation Energy    =      -1.5014922410698213 [Eh]
	 SCS Total Energy          =    -326.3743953584902329 [Eh]
	-----------------------------------------------------------

  Dipole Moment: [D]
     X:     0.5639      Y:    -0.0312      Z:     1.1240     Total:     1.2580

*** Psi4 exiting successfully. Buy a developer a beer!
