                               Psi4 1.3.2 release

  ==> Input File <==

--------------------------------------------------------------------------
#psi4
#
memory 32 gb

molecule  {
0 1
  N        2.8432420    -0.0000300    -0.0741500
  C       -1.3987330     0.0000320    -0.0172550
  C        1.4375000     0.0000010     0.0042750
  C       -0.6732730    -1.1974670    -0.0089890
  C       -0.6732520     1.1975000    -0.0089860
  C        0.7202200    -1.2039320    -0.0146160
  C        0.7202540     1.2039380    -0.0146150
  C       -2.9047610    -0.0000170     0.0277710
  H       -1.2061990    -2.1473890    -0.0196480
  H       -1.2061560     2.1474320    -0.0196330
  H        1.2592620    -2.1503360    -0.0187000
  H        1.2593140     2.1503320    -0.0186990
  H       -3.3871124     1.0477496    -0.5585791
  H       -3.3126490    -0.8837290    -0.4716300
  H       -3.2750890    -0.0021640     1.0590980
  H        3.2618470     0.8295390     0.3353270
  H        3.2618090    -0.8296010     0.3353740
units angstrom
no_reorient  #important for SAPT in psi4, default
symmetry c1  #important for SAPT in psi4, default
}

set PROPERTIES_ORIGIN ["COM"]
properties('MP2/aug-cc-pvtz', properties = ['dipole'])
--------------------------------------------------------------------------

    Molecular point group: c1
  Charge       = 0
  Multiplicity = 1
  Basis Set: AUG-CC-PVTZ
    Blend: AUG-CC-PVTZ
  Basis Set: (AUG-CC-PVTZ AUX)
    Blend: AUG-CC-PVTZ-JKFIT

    Orbital Energies [Eh]
    ---------------------

    Doubly Occupied:

       1A    -15.564538     2A    -11.273806     3A    -11.241666
       4A    -11.233010     5A    -11.231794     6A    -11.229232
       7A    -11.225337     8A    -11.224983     9A     -1.219009
      10A     -1.130411    11A     -1.017109    12A     -1.008994
      13A     -0.906494    14A     -0.831593    15A     -0.787802
      16A     -0.691392    17A     -0.682283    18A     -0.634106
      19A     -0.599208    20A     -0.585615    21A     -0.578706
      22A     -0.567701    23A     -0.525951    24A     -0.504731
      25A     -0.494936    26A     -0.476721    27A     -0.438055
      28A     -0.335188    29A     -0.288649

  @DF-RHF Final Energy:  -324.86249448984631

   => Energetics <=

    Nuclear Repulsion Energy =            341.1953386150024699
    One-Electron Energy =               -1115.0576249417506460
    Two-Electron Energy =                 448.9997918369018635
    Total Energy =                       -324.8624944898463127
  Basis Set: (AUG-CC-PVTZ AUX)
    Blend: AUG-CC-PVTZ-RI
    Molecular point group: c1

    Geometry (in Angstrom), charge = 0, multiplicity = 1:

       Center              X                  Y                   Z               Mass
    ------------   -----------------  -----------------  -----------------  -----------------
         N            2.813557341940    -0.001555492881    -0.066682944635    14.003074004430
         C           -1.428417658060    -0.001493492881    -0.009787944635    12.000000000000
         C            1.407815341940    -0.001524492881     0.011742055365    12.000000000000
         C           -0.702957658060    -1.198992492881    -0.001521944635    12.000000000000
         C           -0.702936658060     1.195974507119    -0.001518944635    12.000000000000
         C            0.690535341940    -1.205457492881    -0.007148944635    12.000000000000
         C            0.690569341940     1.202412507119    -0.007147944635    12.000000000000
         C           -2.934445658060    -0.001542492881     0.035238055365    12.000000000000
         H           -1.235883658060    -2.148914492881    -0.012180944635     1.007825032230
         H           -1.235840658060     2.145906507119    -0.012165944635     1.007825032230
         H            1.229577341940    -2.151861492881    -0.011232944635     1.007825032230
         H            1.229629341940     2.148806507119    -0.011231944635     1.007825032230
         H           -3.416797058060     1.046224107119    -0.551112044635     1.007825032230
         H           -3.342333658060    -0.885254492881    -0.464162944635     1.007825032230
         H           -3.304773658060    -0.003689492881     1.066565055365     1.007825032230
         H            3.232162341940     0.828013507119     0.342794055365     1.007825032230
         H            3.232124341940    -0.831126492881     0.342841055365     1.007825032230

  Basis Set: AUG-CC-PVTZ
    Blend: AUG-CC-PVTZ
  Basis Set: (AUG-CC-PVTZ AUX)
    Blend: AUG-CC-PVTZ-JKFIT
	 Reference Energy          =    -324.8624944898463127 [Eh]
	 Singles Energy            =      -0.0000000000000000 [Eh]
	 Same-Spin Energy          =      -0.3596233601232810 [Eh]
	 Opposite-Spin Energy      =      -1.1527373560157277 [Eh]
	 Correlation Energy        =      -1.5123607161390087 [Eh]
	 Total Energy              =    -326.3748552059853409 [Eh]

	 ================> DF-SCS-MP2 Energies <==================
	-----------------------------------------------------------
	 SCS Same-Spin Scale       =       0.3333333333333333 [-]
	 SCS Opposite-Spin Scale   =       1.2000000000000000 [-]
	 SCS Same-Spin Energy      =      -0.1198744533744270 [Eh]
	 SCS Opposite-Spin Energy  =      -1.3832848272188731 [Eh]
	 SCS Correlation Energy    =      -1.5031592805933001 [Eh]
	 SCS Total Energy          =    -326.3656537704396214 [Eh]
	-----------------------------------------------------------

  Dipole Moment: [D]
     X:     0.7075      Y:    -0.0926      Z:     1.1730     Total:     1.3730

*** Psi4 exiting successfully. Buy a developer a beer!
