                               Psi4 1.3.2 release

  ==> Input File <==

--------------------------------------------------------------------------
#psi4
#
memory 32 gb

molecule  {
0 1
  N        2.8351444     0.1469634    -0.0808902
  C       -1.3987330     0.0000320    -0.0172550
  C        1.4375000     0.0000010     0.0042750
  C       -0.6732730    -1.1974670    -0.0089890
  C       -0.6732520     1.1975000    -0.0089860
  C        0.7202200    -1.2039320    -0.0146160
  C        0.7202540     1.2039380    -0.0146150
  C       -2.9047610    -0.0000170     0.0277710
  H       -1.2061990    -2.1473890    -0.0196480
  H       -1.2061560     2.1474320    -0.0196330
  H        1.2592620    -2.1503360    -0.0187000
  H        1.2593140     2.1503320    -0.0186990
  H       -3.3125570     0.8858000    -0.4679490
  H       -3.3126490    -0.8837290    -0.4716300
  H       -3.2750890    -0.0021640     1.0590980
  H        3.2618470     0.8295390     0.3353270
  H        3.2618090    -0.8296010     0.3353740
units angstrom
no_reorient  #important for SAPT in psi4, default
symmetry c1  #important for SAPT in psi4, default
}

set PROPERTIES_ORIGIN ["COM"]
properties('MP2/aug-cc-pvtz', properties = ['dipole'])
--------------------------------------------------------------------------

    Molecular point group: c1
  Charge       = 0
  Multiplicity = 1
  Basis Set: AUG-CC-PVTZ
    Blend: AUG-CC-PVTZ
  Basis Set: (AUG-CC-PVTZ AUX)
    Blend: AUG-CC-PVTZ-JKFIT

    Orbital Energies [Eh]
    ---------------------

    Doubly Occupied:

       1A    -15.564562     2A    -11.274272     3A    -11.232466
       4A    -11.230249     5A    -11.228061     6A    -11.227852
       7A    -11.222222     8A    -11.219011     9A     -1.221683
      10A     -1.131121    11A     -1.022110    12A     -1.008168
      13A     -0.917428    14A     -0.830557    15A     -0.794213
      16A     -0.711103    17A     -0.664951    18A     -0.636584
      19A     -0.602996    20A     -0.578368    21A     -0.571118
      22A     -0.570168    23A     -0.528141    24A     -0.524778
      25A     -0.494640    26A     -0.479107    27A     -0.439632
      28A     -0.334727    29A     -0.288865

  @DF-RHF Final Energy:  -324.85337639022146

   => Energetics <=

    Nuclear Repulsion Energy =            342.0591078272246364
    One-Electron Energy =               -1116.7266631419850000
    Two-Electron Energy =                 449.8141789245389646
    Total Energy =                       -324.8533763902214559
  Basis Set: (AUG-CC-PVTZ AUX)
    Blend: AUG-CC-PVTZ-RI
    Molecular point group: c1

    Geometry (in Angstrom), charge = 0, multiplicity = 1:

       Center              X                  Y                   Z               Mass
    ------------   -----------------  -----------------  -----------------  -----------------
         N            2.805816996479     0.127738451978    -0.073394713361    14.003074004430
         C           -1.428060403521    -0.019192948022    -0.009759513361    12.000000000000
         C            1.408172596479    -0.019223948022     0.011770486639    12.000000000000
         C           -0.702600403521    -1.216691948022    -0.001493513361    12.000000000000
         C           -0.702579403521     1.178275051978    -0.001490513361    12.000000000000
         C            0.690892596479    -1.223156948022    -0.007120513361    12.000000000000
         C            0.690926596479     1.184713051978    -0.007119513361    12.000000000000
         C           -2.934088403521    -0.019241948022     0.035266486639    12.000000000000
         H           -1.235526403521    -2.166613948022    -0.012152513361     1.007825032230
         H           -1.235483403521     2.128207051978    -0.012137513361     1.007825032230
         H            1.229934596479    -2.169560948022    -0.011204513361     1.007825032230
         H            1.229986596479     2.131107051978    -0.011203513361     1.007825032230
         H           -3.341884403521     0.866575051978    -0.460453513361     1.007825032230
         H           -3.341976403521    -0.902953948022    -0.464134513361     1.007825032230
         H           -3.304416403521    -0.021388948022     1.066593486639     1.007825032230
         H            3.232519596479     0.810314051978     0.342822486639     1.007825032230
         H            3.232481596479    -0.848825948022     0.342869486639     1.007825032230

  Basis Set: AUG-CC-PVTZ
    Blend: AUG-CC-PVTZ
  Basis Set: (AUG-CC-PVTZ AUX)
    Blend: AUG-CC-PVTZ-JKFIT
	 Reference Energy          =    -324.8533763902214559 [Eh]
	 Singles Energy            =      -0.0000000000000000 [Eh]
	 Same-Spin Energy          =      -0.3599907076071537 [Eh]
	 Opposite-Spin Energy      =      -1.1526187639581573 [Eh]
	 Correlation Energy        =      -1.5126094715653111 [Eh]
	 Total Energy              =    -326.3659858617867826 [Eh]

	 ================> DF-SCS-MP2 Energies <==================
	-----------------------------------------------------------
	 SCS Same-Spin Scale       =       0.3333333333333333 [-]
	 SCS Opposite-Spin Scale   =       1.2000000000000000 [-]
	 SCS Same-Spin Energy      =      -0.1199969025357179 [Eh]
	 SCS Opposite-Spin Energy  =      -1.3831425167497888 [Eh]
	 SCS Correlation Energy    =      -1.5031394192855068 [Eh]
	 SCS Total Energy          =    -326.3565158095069592 [Eh]
	-----------------------------------------------------------

  Dipole Moment: [D]
     X:     0.5039      Y:    -0.1028      Z:     1.1381     Total:     1.2489

*** Psi4 exiting successfully. Buy a developer a beer!
