                               Psi4 1.3.2 release

  ==> Input File <==

--------------------------------------------------------------------------
#psi4
#
memory 32 gb

molecule  {
0 1
  N        2.8432420    -0.0000300    -0.0741500
  C       -1.3987330     0.0000320    -0.0172550
  C        1.4375000     0.0000010     0.0042750
  C       -0.6732730    -1.1974670    -0.0089890
  C       -0.6732520     1.1975000    -0.0089860
  C        0.7202200    -1.2039320    -0.0146160
  C        0.7202540     1.2039380    -0.0146150
  C       -2.9047610    -0.0000170     0.0277710
  H       -1.2061990    -2.1473890    -0.0196480
  H       -1.2061560     2.1474320    -0.0196330
  H        1.2592620    -2.1503360    -0.0187000
  H        1.2593140     2.1503320    -0.0186990
  H       -3.3125570     0.8858000    -0.4679490
  H       -3.3126490    -0.8837290    -0.4716300
  H       -3.2750890    -0.0021640     1.0590980
  H        3.3021914     0.7866704     0.3747979
  H        3.2618090    -0.8296010     0.3353740
units angstrom
no_reorient  #important for SAPT in psi4, default
symmetry c1  #important for SAPT in psi4, default
}

set PROPERTIES_ORIGIN ["COM"]
properties('MP2/aug-cc-pvtz', properties = ['dipole'])
--------------------------------------------------------------------------

    Molecular point group: c1
  Charge       = 0
  Multiplicity = 1
  Basis Set: AUG-CC-PVTZ
    Blend: AUG-CC-PVTZ
  Basis Set: (AUG-CC-PVTZ AUX)
    Blend: AUG-CC-PVTZ-JKFIT

    Orbital Energies [Eh]
    ---------------------

    Doubly Occupied:

       1A    -15.563513     2A    -11.273042     3A    -11.231082
       4A    -11.230838     5A    -11.227503     6A    -11.224761
       7A    -11.224346     8A    -11.218724     9A     -1.217898
      10A     -1.129888    11A     -1.020310    12A     -1.008037
      13A     -0.915418    14A     -0.830316    15A     -0.790068
      16A     -0.693469    17A     -0.677199    18A     -0.634252
      19A     -0.598718    20A     -0.586130    21A     -0.577845
      22A     -0.570281    23A     -0.529967    24A     -0.523679
      25A     -0.495029    26A     -0.480346    27A     -0.438889
      28A     -0.334227    29A     -0.288502

  @DF-RHF Final Energy:  -324.88203582644957

   => Energetics <=

    Nuclear Repulsion Energy =            341.8788769674640093
    One-Electron Energy =               -1116.4532660194834079
    Two-Electron Energy =                 449.6923532255697751
    Total Energy =                       -324.8820358264495667
  Basis Set: (AUG-CC-PVTZ AUX)
    Blend: AUG-CC-PVTZ-RI
    Molecular point group: c1

    Geometry (in Angstrom), charge = 0, multiplicity = 1:

       Center              X                  Y                   Z               Mass
    ------------   -----------------  -----------------  -----------------  -----------------
         N            2.812475852165     0.000372350240    -0.067907515097    14.003074004430
         C           -1.429499147835     0.000434350240    -0.011012515097    12.000000000000
         C            1.406733852165     0.000403350240     0.010517484903    12.000000000000
         C           -0.704039147835    -1.197064649760    -0.002746515097    12.000000000000
         C           -0.704018147835     1.197902350240    -0.002743515097    12.000000000000
         C            0.689453852165    -1.203529649760    -0.008373515097    12.000000000000
         C            0.689487852165     1.204340350240    -0.008372515097    12.000000000000
         C           -2.935527147835     0.000385350240     0.034013484903    12.000000000000
         H           -1.236965147835    -2.146986649760    -0.013405515097     1.007825032230
         H           -1.236922147835     2.147834350240    -0.013390515097     1.007825032230
         H            1.228495852165    -2.149933649760    -0.012457515097     1.007825032230
         H            1.228547852165     2.150734350240    -0.012456515097     1.007825032230
         H           -3.343323147835     0.886202350240    -0.461706515097     1.007825032230
         H           -3.343415147835    -0.883326649760    -0.465387515097     1.007825032230
         H           -3.305855147835    -0.001761649760     1.065340484903     1.007825032230
         H            3.271425252165     0.787072750240     0.381040384903     1.007825032230
         H            3.231042852165    -0.829198649760     0.341616484903     1.007825032230

  Basis Set: AUG-CC-PVTZ
    Blend: AUG-CC-PVTZ
  Basis Set: (AUG-CC-PVTZ AUX)
    Blend: AUG-CC-PVTZ-JKFIT
	 Reference Energy          =    -324.8820358264495667 [Eh]
	 Singles Energy            =      -0.0000000000000000 [Eh]
	 Same-Spin Energy          =      -0.3595983596697996 [Eh]
	 Opposite-Spin Energy      =      -1.1511509667854654 [Eh]
	 Correlation Energy        =      -1.5107493264552649 [Eh]
	 Total Energy              =    -326.3927851529048212 [Eh]

	 ================> DF-SCS-MP2 Energies <==================
	-----------------------------------------------------------
	 SCS Same-Spin Scale       =       0.3333333333333333 [-]
	 SCS Opposite-Spin Scale   =       1.2000000000000000 [-]
	 SCS Same-Spin Energy      =      -0.1198661198899332 [Eh]
	 SCS Opposite-Spin Energy  =      -1.3813811601425583 [Eh]
	 SCS Correlation Energy    =      -1.5012472800324914 [Eh]
	 SCS Total Energy          =    -326.3832831064820539 [Eh]
	-----------------------------------------------------------

  Dipole Moment: [D]
     X:     0.5697      Y:    -0.0281      Z:     1.1679     Total:     1.2998

*** Psi4 exiting successfully. Buy a developer a beer!
