                               Psi4 1.3.2 release

  ==> Input File <==

--------------------------------------------------------------------------
#psi4
#
memory 32 gb

molecule  {
0 1
  N        2.8432420    -0.0000300    -0.0741500
  C       -1.3987330     0.0000320    -0.0172550
  C        1.4375000     0.0000010     0.0042750
  C       -0.7154825    -1.2220279    -0.0071127
  C       -0.6732520     1.1975000    -0.0089860
  C        0.7202200    -1.2039320    -0.0146160
  C        0.7202540     1.2039380    -0.0146150
  C       -2.9047610    -0.0000170     0.0277710
  H       -1.2061990    -2.1473890    -0.0196480
  H       -1.2061560     2.1474320    -0.0196330
  H        1.2592620    -2.1503360    -0.0187000
  H        1.2593140     2.1503320    -0.0186990
  H       -3.3125570     0.8858000    -0.4679490
  H       -3.3126490    -0.8837290    -0.4716300
  H       -3.2750890    -0.0021640     1.0590980
  H        3.2618470     0.8295390     0.3353270
  H        3.2618090    -0.8296010     0.3353740
units angstrom
no_reorient  #important for SAPT in psi4, default
symmetry c1  #important for SAPT in psi4, default
}

set PROPERTIES_ORIGIN ["COM"]
properties('MP2/aug-cc-pvtz', properties = ['dipole'])
--------------------------------------------------------------------------

    Molecular point group: c1
  Charge       = 0
  Multiplicity = 1
  Basis Set: AUG-CC-PVTZ
    Blend: AUG-CC-PVTZ
  Basis Set: (AUG-CC-PVTZ AUX)
    Blend: AUG-CC-PVTZ-JKFIT

    Orbital Energies [Eh]
    ---------------------

    Doubly Occupied:

       1A    -15.563294     2A    -11.272425     3A    -11.231896
       4A    -11.231689     5A    -11.228485     6A    -11.227934
       7A    -11.226328     8A    -11.217516     9A     -1.217392
      10A     -1.127057    11A     -1.019998    12A     -1.003847
      13A     -0.914299    14A     -0.834766    15A     -0.787002
      16A     -0.692610    17A     -0.680680    18A     -0.636620
      19A     -0.601730    20A     -0.588218    21A     -0.577614
      22A     -0.569678    23A     -0.529548    24A     -0.522187
      25A     -0.491575    26A     -0.484018    27A     -0.436707
      28A     -0.330030    29A     -0.289045

  @DF-RHF Final Energy:  -324.87888655845518

   => Energetics <=

    Nuclear Repulsion Energy =            341.3002943391973645
    One-Electron Energy =               -1115.2899849711595834
    Two-Electron Energy =                 449.1108040735070972
    Total Energy =                       -324.8788865584551786
  Basis Set: (AUG-CC-PVTZ AUX)
    Blend: AUG-CC-PVTZ-RI
    Molecular point group: c1

    Geometry (in Angstrom), charge = 0, multiplicity = 1:

       Center              X                  Y                   Z               Mass
    ------------   -----------------  -----------------  -----------------  -----------------
         N            2.817586118476     0.002721453925    -0.067746278552    14.003074004430
         C           -1.424388881524     0.002783453925    -0.010851278552    12.000000000000
         C            1.411844118476     0.002752453925     0.010678721448    12.000000000000
         C           -0.741138381524    -1.219276446075    -0.000708978552    12.000000000000
         C           -0.698907881524     1.200251453925    -0.002582278552    12.000000000000
         C            0.694564118476    -1.201180546075    -0.008212278552    12.000000000000
         C            0.694598118476     1.206689453925    -0.008211278552    12.000000000000
         C           -2.930416881524     0.002734453925     0.034174721448    12.000000000000
         H           -1.231854881524    -2.144637546075    -0.013244278552     1.007825032230
         H           -1.231811881524     2.150183453925    -0.013229278552     1.007825032230
         H            1.233606118476    -2.147584546075    -0.012296278552     1.007825032230
         H            1.233658118476     2.153083453925    -0.012295278552     1.007825032230
         H           -3.338212881524     0.888551453925    -0.461545278552     1.007825032230
         H           -3.338304881524    -0.880977546075    -0.465226278552     1.007825032230
         H           -3.300744881524     0.000587453925     1.065501721448     1.007825032230
         H            3.236191118476     0.832290453925     0.341730721448     1.007825032230
         H            3.236153118476    -0.826849546075     0.341777721448     1.007825032230

  Basis Set: AUG-CC-PVTZ
    Blend: AUG-CC-PVTZ
  Basis Set: (AUG-CC-PVTZ AUX)
    Blend: AUG-CC-PVTZ-JKFIT
	 Reference Energy          =    -324.8788865584551786 [Eh]
	 Singles Energy            =      -0.0000000000000000 [Eh]
	 Same-Spin Energy          =      -0.3596607516333179 [Eh]
	 Opposite-Spin Energy      =      -1.1516161021615892 [Eh]
	 Correlation Energy        =      -1.5112768537949071 [Eh]
	 Total Energy              =    -326.3901634122501036 [Eh]

	 ================> DF-SCS-MP2 Energies <==================
	-----------------------------------------------------------
	 SCS Same-Spin Scale       =       0.3333333333333333 [-]
	 SCS Opposite-Spin Scale   =       1.2000000000000000 [-]
	 SCS Same-Spin Energy      =      -0.1198869172111060 [Eh]
	 SCS Opposite-Spin Energy  =      -1.3819393225939069 [Eh]
	 SCS Correlation Energy    =      -1.5018262398050128 [Eh]
	 SCS Total Energy          =    -326.3807127982602196 [Eh]
	-----------------------------------------------------------

  Dipole Moment: [D]
     X:     0.5727      Y:     0.0062      Z:     1.1221     Total:     1.2598

*** Psi4 exiting successfully. Buy a developer a beer!
