                               Psi4 1.4a3.dev225

  ==> Input File <==

--------------------------------------------------------------------------
#psi4
#
memory 32 gb

molecule  {
0 1
  N        2.8432840     0.0000010    -0.0745030
  C       -1.3986540     0.0000000    -0.0170120
  C        1.4375310     0.0000000     0.0042070
  C       -0.6732940    -1.1975080    -0.0091010
  C       -0.6732940     1.1975090    -0.0091010
  C        0.7202880    -1.2039700    -0.0142280
  C        0.7202880     1.2039700    -0.0142290
  C       -2.9047420     0.0000000     0.0276170
  H       -1.2062760    -2.1473880    -0.0194750
  H       -1.2062760     2.1473880    -0.0194750
  H        1.2592860    -2.1503840    -0.0188250
  H        1.2592870     2.1503840    -0.0188280
  H       -3.3126320     0.8846740    -0.4701760
  H       -3.3126330    -0.8846640    -0.4701940
  H       -3.2755950    -0.0000100     1.0587510
  H        3.2821520     0.8702957     0.3556069
  H        3.2615550    -0.8294590     0.3354000
units angstrom
no_reorient  #important for SAPT in psi4, default
symmetry c1  #important for SAPT in psi4, default
}

set PROPERTIES_ORIGIN ["COM"]
properties('MP2/aug-cc-pvtz', properties = ['dipole'])
--------------------------------------------------------------------------

    Molecular point group: c1
  Charge       = 0
  Multiplicity = 1
  Basis Set: AUG-CC-PVTZ
    Blend: AUG-CC-PVTZ
  Basis Set: (AUG-CC-PVTZ AUX)
    Blend: AUG-CC-PVTZ-JKFIT

    Orbital Energies [Eh]
    ---------------------

    Doubly Occupied:

       1A    -15.568663     2A    -11.272700     3A    -11.231059
       4A    -11.230872     5A    -11.227088     6A    -11.224369
       7A    -11.224172     8A    -11.218539     9A     -1.213596
      10A     -1.128200    11A     -1.018435    12A     -1.007934
      13A     -0.913640    14A     -0.830363    15A     -0.788214
      16A     -0.689630    17A     -0.675389    18A     -0.633779
      19A     -0.597402    20A     -0.583715    21A     -0.577793
      22A     -0.570080    23A     -0.529591    24A     -0.523382
      25A     -0.494678    26A     -0.480325    27A     -0.437956
      28A     -0.334209    29A     -0.287496

  @DF-RHF Final Energy:  -324.87897805270751

   => Energetics <=

    Nuclear Repulsion Energy =            341.6938284852274705
    One-Electron Energy =               -1116.1190750309397117
    Two-Electron Energy =                 449.5462684930047885
    Total Energy =                       -324.8789780527075095
  Basis Set: (AUG-CC-PVTZ AUX)
    Blend: AUG-CC-PVTZ-RI
    Molecular point group: c1

    Geometry (in Angstrom), charge = 0, multiplicity = 1:

       Center              X                  Y                   Z               Mass
    ------------   -----------------  -----------------  -----------------  -----------------
         N            2.812691742565    -0.000383616659    -0.068087630542    14.003074004430
         C           -1.429246257435    -0.000384616659    -0.010596630542    12.000000000000
         C            1.406938742565    -0.000384616659     0.010622369458    12.000000000000
         C           -0.703886257435    -1.197892616659    -0.002685630542    12.000000000000
         C           -0.703886257435     1.197124383341    -0.002685630542    12.000000000000
         C            0.689695742565    -1.204354616659    -0.007812630542    12.000000000000
         C            0.689695742565     1.203585383341    -0.007813630542    12.000000000000
         C           -2.935334257435    -0.000384616659     0.034032369458    12.000000000000
         H           -1.236868257435    -2.147772616659    -0.013059630542     1.007825032230
         H           -1.236868257435     2.147003383341    -0.013059630542     1.007825032230
         H            1.228693742565    -2.150768616659    -0.012409630542     1.007825032230
         H            1.228694742565     2.149999383341    -0.012412630542     1.007825032230
         H           -3.343224257435     0.884289383341    -0.463760630542     1.007825032230
         H           -3.343225257435    -0.885048616659    -0.463778630542     1.007825032230
         H           -3.306187257435    -0.000394616659     1.065166369458     1.007825032230
         H            3.251559742565     0.869911083341     0.362022269458     1.007825032230
         H            3.230962742565    -0.829843616659     0.341815369458     1.007825032230

  Basis Set: AUG-CC-PVTZ
    Blend: AUG-CC-PVTZ
  Basis Set: (AUG-CC-PVTZ AUX)
    Blend: AUG-CC-PVTZ-JKFIT
	 Reference Energy          =    -324.8789780527075095 [Eh]
	 Singles Energy            =      -0.0000000000000000 [Eh]
	 Same-Spin Energy          =      -0.3599107134462018 [Eh]
	 Opposite-Spin Energy      =      -1.1520242437939077 [Eh]
	 Correlation Energy        =      -1.5119349572401095 [Eh]
	 Total Energy              =    -326.3909130099476101 [Eh]

	 ================> DF-SCS-MP2 Energies <==================
	-----------------------------------------------------------
	 SCS Same-Spin Scale       =       0.3333333333333333 [-]
	 SCS Opposite-Spin Scale   =       1.2000000000000000 [-]
	 SCS Same-Spin Energy      =      -0.1199702378154006 [Eh]
	 SCS Opposite-Spin Energy  =      -1.3824290925526892 [Eh]
	 SCS Correlation Energy    =      -1.5023993303680898 [Eh]
	 SCS Total Energy          =    -326.3813773830755736 [Eh]
	-----------------------------------------------------------

  Dipole Moment: [D]
     X:     0.5858      Y:     0.0205      Z:     1.1300     Total:     1.2730

*** Psi4 exiting successfully. Buy a developer a beer!
