                               Psi4 1.4a3.dev225

  ==> Input File <==

--------------------------------------------------------------------------
#psi4
#
memory 32 gb

molecule  {
0 1
  N        2.8432840     0.0000010    -0.0745030
  C       -1.3986540     0.0000000    -0.0170120
  C        1.4375310     0.0000000     0.0042070
  C       -0.6732940    -1.1975080    -0.0091010
  C       -0.6732940     1.1975090    -0.0091010
  C        0.7202880    -1.2039700    -0.0142280
  C        0.7202880     1.2039700    -0.0142290
  C       -2.9047420     0.0000000     0.0276170
  H       -1.2062760    -2.1473880    -0.0194750
  H       -1.2062760     2.1473880    -0.0194750
  H        1.2592860    -2.1503840    -0.0188250
  H        1.2592870     2.1503840    -0.0188280
  H       -3.3312743     0.9251073    -0.4929272
  H       -3.3126330    -0.8846640    -0.4701940
  H       -3.2755950    -0.0000100     1.0587510
  H        3.2615550     0.8294510     0.3354210
  H        3.2615550    -0.8294590     0.3354000
units angstrom
no_reorient  #important for SAPT in psi4, default
symmetry c1  #important for SAPT in psi4, default
}

set PROPERTIES_ORIGIN ["COM"]
properties('MP2/aug-cc-pvtz', properties = ['dipole'])
--------------------------------------------------------------------------

    Molecular point group: c1
  Charge       = 0
  Multiplicity = 1
  Basis Set: AUG-CC-PVTZ
    Blend: AUG-CC-PVTZ
  Basis Set: (AUG-CC-PVTZ AUX)
    Blend: AUG-CC-PVTZ-JKFIT

    Orbital Energies [Eh]
    ---------------------

    Doubly Occupied:

       1A    -15.563856     2A    -11.272887     3A    -11.231454
       4A    -11.231122     5A    -11.227628     6A    -11.224603
       7A    -11.224517     8A    -11.224436     9A     -1.218324
      10A     -1.129704    11A     -1.018646    12A     -1.008206
      13A     -0.911958    14A     -0.830992    15A     -0.788620
      16A     -0.690862    17A     -0.682087    18A     -0.633811
      19A     -0.600334    20A     -0.584786    21A     -0.577991
      22A     -0.568891    23A     -0.525943    24A     -0.521825
      25A     -0.495085    26A     -0.480134    27A     -0.438423
      28A     -0.334435    29A     -0.287952

  @DF-RHF Final Energy:  -324.88043875484794

   => Energetics <=

    Nuclear Repulsion Energy =            341.7389973543323549
    One-Electron Energy =               -1116.1798523095433211
    Two-Electron Energy =                 449.5604162003630222
    Total Energy =                       -324.8804387548479440
  Basis Set: (AUG-CC-PVTZ AUX)
    Blend: AUG-CC-PVTZ-RI
    Molecular point group: c1

    Geometry (in Angstrom), charge = 0, multiplicity = 1:

       Center              X                  Y                   Z               Mass
    ------------   -----------------  -----------------  -----------------  -----------------
         N            2.813061080907    -0.000379744373    -0.067683486805    14.003074004430
         C           -1.428876919093    -0.000380744373    -0.010192486805    12.000000000000
         C            1.407308080907    -0.000380744373     0.011026513195    12.000000000000
         C           -0.703516919093    -1.197888744373    -0.002281486805    12.000000000000
         C           -0.703516919093     1.197128255627    -0.002281486805    12.000000000000
         C            0.690065080907    -1.204350744373    -0.007408486805    12.000000000000
         C            0.690065080907     1.203589255627    -0.007409486805    12.000000000000
         C           -2.934964919093    -0.000380744373     0.034436513195    12.000000000000
         H           -1.236498919093    -2.147768744373    -0.012655486805     1.007825032230
         H           -1.236498919093     2.147007255627    -0.012655486805     1.007825032230
         H            1.229063080907    -2.150764744373    -0.012005486805     1.007825032230
         H            1.229064080907     2.150003255627    -0.012008486805     1.007825032230
         H           -3.361497219093     0.924726555627    -0.486107686805     1.007825032230
         H           -3.342855919093    -0.885044744373    -0.463374486805     1.007825032230
         H           -3.305817919093    -0.000390744373     1.065570513195     1.007825032230
         H            3.231332080907     0.829070255627     0.342240513195     1.007825032230
         H            3.231332080907    -0.829839744373     0.342219513195     1.007825032230

  Basis Set: AUG-CC-PVTZ
    Blend: AUG-CC-PVTZ
  Basis Set: (AUG-CC-PVTZ AUX)
    Blend: AUG-CC-PVTZ-JKFIT
	 Reference Energy          =    -324.8804387548479440 [Eh]
	 Singles Energy            =      -0.0000000000000000 [Eh]
	 Same-Spin Energy          =      -0.3596196491787369 [Eh]
	 Opposite-Spin Energy      =      -1.1514720796825726 [Eh]
	 Correlation Energy        =      -1.5110917288613095 [Eh]
	 Total Energy              =    -326.3915304837092322 [Eh]

	 ================> DF-SCS-MP2 Energies <==================
	-----------------------------------------------------------
	 SCS Same-Spin Scale       =       0.3333333333333333 [-]
	 SCS Opposite-Spin Scale   =       1.2000000000000000 [-]
	 SCS Same-Spin Energy      =      -0.1198732163929123 [Eh]
	 SCS Opposite-Spin Energy  =      -1.3817664956190872 [Eh]
	 SCS Correlation Energy    =      -1.5016397120119995 [Eh]
	 SCS Total Energy          =    -326.3820784668599231 [Eh]
	-----------------------------------------------------------

  Dipole Moment: [D]
     X:     0.6053      Y:    -0.0194      Z:     1.1340     Total:     1.2856

*** Psi4 exiting successfully. Buy a developer a beer!
