                               Psi4 1.3.2 release

  ==> Input File <==

--------------------------------------------------------------------------
#psi4
#
memory 32 gb

molecule  {
0 1
  N        2.8432420    -0.0000300    -0.0741500
  C       -1.4008369    -0.0911559     0.0350926
  C        1.4375000     0.0000010     0.0042750
  C       -0.6732730    -1.1974670    -0.0089890
  C       -0.6732520     1.1975000    -0.0089860
  C        0.7202200    -1.2039320    -0.0146160
  C        0.7202540     1.2039380    -0.0146150
  C       -2.9047610    -0.0000170     0.0277710
  H       -1.2061990    -2.1473890    -0.0196480
  H       -1.2061560     2.1474320    -0.0196330
  H        1.2592620    -2.1503360    -0.0187000
  H        1.2593140     2.1503320    -0.0186990
  H       -3.3125570     0.8858000    -0.4679490
  H       -3.3126490    -0.8837290    -0.4716300
  H       -3.2750890    -0.0021640     1.0590980
  H        3.2618470     0.8295390     0.3353270
  H        3.2618090    -0.8296010     0.3353740
units angstrom
no_reorient  #important for SAPT in psi4, default
symmetry c1  #important for SAPT in psi4, default
}

set PROPERTIES_ORIGIN ["COM"]
properties('MP2/aug-cc-pvtz', properties = ['dipole'])
--------------------------------------------------------------------------

    Molecular point group: c1
  Charge       = 0
  Multiplicity = 1
  Basis Set: AUG-CC-PVTZ
    Blend: AUG-CC-PVTZ
  Basis Set: (AUG-CC-PVTZ AUX)
    Blend: AUG-CC-PVTZ-JKFIT

    Orbital Energies [Eh]
    ---------------------

    Doubly Occupied:

       1A    -15.563752     2A    -11.272676     3A    -11.239687
       4A    -11.227064     5A    -11.226984     6A    -11.221190
       7A    -11.219803     8A    -11.219133     9A     -1.218078
      10A     -1.130660    11A     -1.022948    12A     -1.005359
      13A     -0.916054    14A     -0.831886    15A     -0.786715
      16A     -0.691222    17A     -0.681362    18A     -0.633773
      19A     -0.600799    20A     -0.587054    21A     -0.575991
      22A     -0.570788    23A     -0.533179    24A     -0.524114
      25A     -0.501379    26A     -0.466366    27A     -0.439143
      28A     -0.336575    29A     -0.286746

  @DF-RHF Final Energy:  -324.87215823036001

   => Energetics <=

    Nuclear Repulsion Energy =            341.9545709415053807
    One-Electron Energy =               -1116.5924938945186113
    Two-Electron Energy =                 449.7657647226532163
    Total Energy =                       -324.8721582303600144
  Basis Set: (AUG-CC-PVTZ AUX)
    Blend: AUG-CC-PVTZ-RI
    Molecular point group: c1

    Geometry (in Angstrom), charge = 0, multiplicity = 1:

       Center              X                  Y                   Z               Mass
    ------------   -----------------  -----------------  -----------------  -----------------
         N            2.813091381654     0.010188511650    -0.073402725796    14.003074004430
         C           -1.430987518346    -0.080937388350     0.035839874204    12.000000000000
         C            1.407349381654     0.010219511650     0.005022274204    12.000000000000
         C           -0.703423618346    -1.187248488350    -0.008241725796    12.000000000000
         C           -0.703402618346     1.207718511650    -0.008238725796    12.000000000000
         C            0.690069381654    -1.193713488350    -0.013868725796    12.000000000000
         C            0.690103381654     1.214156511650    -0.013867725796    12.000000000000
         C           -2.934911618346     0.010201511650     0.028518274204    12.000000000000
         H           -1.236349618346    -2.137170488350    -0.018900725796     1.007825032230
         H           -1.236306618346     2.157650511650    -0.018885725796     1.007825032230
         H            1.229111381654    -2.140117488350    -0.017952725796     1.007825032230
         H            1.229163381654     2.160550511650    -0.017951725796     1.007825032230
         H           -3.342707618346     0.896018511650    -0.467201725796     1.007825032230
         H           -3.342799618346    -0.873510488350    -0.470882725796     1.007825032230
         H           -3.305239618346     0.008054511650     1.059845274204     1.007825032230
         H            3.231696381654     0.839757511650     0.336074274204     1.007825032230
         H            3.231658381654    -0.819382488350     0.336121274204     1.007825032230

  Basis Set: AUG-CC-PVTZ
    Blend: AUG-CC-PVTZ
  Basis Set: (AUG-CC-PVTZ AUX)
    Blend: AUG-CC-PVTZ-JKFIT
	 Reference Energy          =    -324.8721582303600144 [Eh]
	 Singles Energy            =      -0.0000000000000000 [Eh]
	 Same-Spin Energy          =      -0.3593327263216526 [Eh]
	 Opposite-Spin Energy      =      -1.1515125522541290 [Eh]
	 Correlation Energy        =      -1.5108452785757815 [Eh]
	 Total Energy              =    -326.3830035089358148 [Eh]

	 ================> DF-SCS-MP2 Energies <==================
	-----------------------------------------------------------
	 SCS Same-Spin Scale       =       0.3333333333333333 [-]
	 SCS Opposite-Spin Scale   =       1.2000000000000000 [-]
	 SCS Same-Spin Energy      =      -0.1197775754405509 [Eh]
	 SCS Opposite-Spin Energy  =      -1.3818150627049548 [Eh]
	 SCS Correlation Energy    =      -1.5015926381455056 [Eh]
	 SCS Total Energy          =    -326.3737508685055104 [Eh]
	-----------------------------------------------------------

  Dipole Moment: [D]
     X:     0.5591      Y:     0.0797      Z:     1.0977     Total:     1.2344

*** Psi4 exiting successfully. Buy a developer a beer!
