                               Psi4 1.3.2 release

  ==> Input File <==

--------------------------------------------------------------------------
#psi4
#
memory 32 gb

molecule  {
0 1
  N        2.8432420    -0.0000300    -0.0741500
  C       -1.3985709    -0.0227823    -0.0041787
  C        1.4375000     0.0000010     0.0042750
  C       -0.6732730    -1.1974670    -0.0089890
  C       -0.6732520     1.1975000    -0.0089860
  C        0.7202200    -1.2039320    -0.0146160
  C        0.7202540     1.2039380    -0.0146150
  C       -2.9047610    -0.0000170     0.0277710
  H       -1.2061990    -2.1473890    -0.0196480
  H       -1.2061560     2.1474320    -0.0196330
  H        1.2592620    -2.1503360    -0.0187000
  H        1.2593140     2.1503320    -0.0186990
  H       -3.3125570     0.8858000    -0.4679490
  H       -3.3126490    -0.8837290    -0.4716300
  H       -3.2750890    -0.0021640     1.0590980
  H        3.2618470     0.8295390     0.3353270
  H        3.2618090    -0.8296010     0.3353740
units angstrom
no_reorient  #important for SAPT in psi4, default
symmetry c1  #important for SAPT in psi4, default
}

set PROPERTIES_ORIGIN ["COM"]
properties('MP2/aug-cc-pvtz', properties = ['dipole'])
--------------------------------------------------------------------------

    Molecular point group: c1
  Charge       = 0
  Multiplicity = 1
  Basis Set: AUG-CC-PVTZ
    Blend: AUG-CC-PVTZ
  Basis Set: (AUG-CC-PVTZ AUX)
    Blend: AUG-CC-PVTZ-JKFIT

    Orbital Energies [Eh]
    ---------------------

    Doubly Occupied:

       1A    -15.563651     2A    -11.272586     3A    -11.233293
       4A    -11.228638     5A    -11.226950     6A    -11.225043
       7A    -11.223421     8A    -11.218614     9A     -1.218074
      10A     -1.129693    11A     -1.020004    12A     -1.007795
      13A     -0.914825    14A     -0.830911    15A     -0.788984
      16A     -0.690841    17A     -0.682057    18A     -0.633958
      19A     -0.601298    20A     -0.584813    21A     -0.577691
      22A     -0.570220    23A     -0.530344    24A     -0.523956
      25A     -0.495391    26A     -0.479161    27A     -0.438496
      28A     -0.334399    29A     -0.287623

  @DF-RHF Final Energy:  -324.88198001688630

   => Energetics <=

    Nuclear Repulsion Energy =            341.9536873684809279
    One-Electron Energy =               -1116.6058724215911298
    Two-Electron Energy =                 449.7702050362238992
    Total Energy =                       -324.8819800168863026
  Basis Set: (AUG-CC-PVTZ AUX)
    Blend: AUG-CC-PVTZ-RI
    Molecular point group: c1

    Geometry (in Angstrom), charge = 0, multiplicity = 1:

       Center              X                  Y                   Z               Mass
    ------------   -----------------  -----------------  -----------------  -----------------
         N            2.812837425257     0.002525708011    -0.069001491101    14.003074004430
         C           -1.428975474743    -0.020226591989     0.000969808899    12.000000000000
         C            1.407095425257     0.002556708011     0.009423508899    12.000000000000
         C           -0.703677574743    -1.194911291989    -0.003840491101    12.000000000000
         C           -0.703656574743     1.200055708011    -0.003837491101    12.000000000000
         C            0.689815425257    -1.201376291989    -0.009467491101    12.000000000000
         C            0.689849425257     1.206493708011    -0.009466491101    12.000000000000
         C           -2.935165574743     0.002538708011     0.032919508899    12.000000000000
         H           -1.236603574743    -2.144833291989    -0.014499491101     1.007825032230
         H           -1.236560574743     2.149987708011    -0.014484491101     1.007825032230
         H            1.228857425257    -2.147780291989    -0.013551491101     1.007825032230
         H            1.228909425257     2.152887708011    -0.013550491101     1.007825032230
         H           -3.342961574743     0.888355708011    -0.462800491101     1.007825032230
         H           -3.343053574743    -0.881173291989    -0.466481491101     1.007825032230
         H           -3.305493574743     0.000391708011     1.064246508899     1.007825032230
         H            3.231442425257     0.832094708011     0.340475508899     1.007825032230
         H            3.231404425257    -0.827045291989     0.340522508899     1.007825032230

  Basis Set: AUG-CC-PVTZ
    Blend: AUG-CC-PVTZ
  Basis Set: (AUG-CC-PVTZ AUX)
    Blend: AUG-CC-PVTZ-JKFIT
	 Reference Energy          =    -324.8819800168863026 [Eh]
	 Singles Energy            =      -0.0000000000000000 [Eh]
	 Same-Spin Energy          =      -0.3595960120783732 [Eh]
	 Opposite-Spin Energy      =      -1.1511423460829902 [Eh]
	 Correlation Energy        =      -1.5107383581613634 [Eh]
	 Total Energy              =    -326.3927183750476502 [Eh]

	 ================> DF-SCS-MP2 Energies <==================
	-----------------------------------------------------------
	 SCS Same-Spin Scale       =       0.3333333333333333 [-]
	 SCS Opposite-Spin Scale   =       1.2000000000000000 [-]
	 SCS Same-Spin Energy      =      -0.1198653373594577 [Eh]
	 SCS Opposite-Spin Energy  =      -1.3813708152995881 [Eh]
	 SCS Correlation Energy    =      -1.5012361526590459 [Eh]
	 SCS Total Energy          =    -326.3832161695453351 [Eh]
	-----------------------------------------------------------

  Dipole Moment: [D]
     X:     0.5743      Y:     0.0197      Z:     1.1171     Total:     1.2562

*** Psi4 exiting successfully. Buy a developer a beer!
