                               Psi4 1.3.2 release

  ==> Input File <==

--------------------------------------------------------------------------
#psi4
#
memory 32 gb

molecule  {
0 1
  N        2.8432420    -0.0000300    -0.0741500
  C       -1.3987330     0.0000320    -0.0172550
  C        1.4375000     0.0000010     0.0042750
  C       -0.6732730    -1.1974670    -0.0089890
  C       -0.6732520     1.1975000    -0.0089860
  C        0.7202200    -1.2039320    -0.0146160
  C        0.7202540     1.2039380    -0.0146150
  C       -2.9047610    -0.0000170     0.0277710
  H       -1.2061990    -2.1473890    -0.0196480
  H       -1.2061560     2.1474320    -0.0196330
  H        1.2592620    -2.1503360    -0.0187000
  H        1.2593140     2.1503320    -0.0186990
  H       -3.3125570     0.8858000    -0.4679490
  H       -3.3126490    -0.8837290    -0.4716300
  H       -3.2750890    -0.0021640     1.0590980
  H        3.2194632     0.8683661     0.2938611
  H        3.2618090    -0.8296010     0.3353740
units angstrom
no_reorient  #important for SAPT in psi4, default
symmetry c1  #important for SAPT in psi4, default
}

set PROPERTIES_ORIGIN ["COM"]
properties('MP2/aug-cc-pvtz', properties = ['dipole'])
--------------------------------------------------------------------------

    Molecular point group: c1
  Charge       = 0
  Multiplicity = 1
  Basis Set: AUG-CC-PVTZ
    Blend: AUG-CC-PVTZ
  Basis Set: (AUG-CC-PVTZ AUX)
    Blend: AUG-CC-PVTZ-JKFIT

    Orbital Energies [Eh]
    ---------------------

    Doubly Occupied:

       1A    -15.563797     2A    -11.272289     3A    -11.231149
       4A    -11.230927     5A    -11.226808     6A    -11.224241
       7A    -11.223808     8A    -11.218422     9A     -1.218480
      10A     -1.129353    11A     -1.019243    12A     -1.008025
      13A     -0.914058    14A     -0.831446    15A     -0.788315
      16A     -0.689202    17A     -0.686226    18A     -0.633728
      19A     -0.603558    20A     -0.583036    21A     -0.577851
      22A     -0.570001    23A     -0.530224    24A     -0.523624
      25A     -0.494552    26A     -0.480511    27A     -0.437903
      28A     -0.334306    29A     -0.287014

  @DF-RHF Final Energy:  -324.88198952759478

   => Energetics <=

    Nuclear Repulsion Energy =            342.0197135229611831
    One-Electron Energy =               -1116.7392076812500363
    Two-Electron Energy =                 449.8375046306940703
    Total Energy =                       -324.8819895275947829
  Basis Set: (AUG-CC-PVTZ AUX)
    Blend: AUG-CC-PVTZ-RI
    Molecular point group: c1

    Geometry (in Angstrom), charge = 0, multiplicity = 1:

       Center              X                  Y                   Z               Mass
    ------------   -----------------  -----------------  -----------------  -----------------
         N            2.813254528041    -0.000396607271    -0.067145700702    14.003074004430
         C           -1.428720471959    -0.000334607271    -0.010250700702    12.000000000000
         C            1.407512528041    -0.000365607271     0.011279299298    12.000000000000
         C           -0.703260471959    -1.197833607271    -0.001984700702    12.000000000000
         C           -0.703239471959     1.197133392729    -0.001981700702    12.000000000000
         C            0.690232528041    -1.204298607271    -0.007611700702    12.000000000000
         C            0.690266528041     1.203571392729    -0.007610700702    12.000000000000
         C           -2.934748471959    -0.000383607271     0.034775299298    12.000000000000
         H           -1.236186471959    -2.147755607271    -0.012643700702     1.007825032230
         H           -1.236143471959     2.147065392729    -0.012628700702     1.007825032230
         H            1.229274528041    -2.150702607271    -0.011695700702     1.007825032230
         H            1.229326528041     2.149965392729    -0.011694700702     1.007825032230
         H           -3.342544471959     0.885433392729    -0.460944700702     1.007825032230
         H           -3.342636471959    -0.884095607271    -0.464625700702     1.007825032230
         H           -3.305076471959    -0.002530607271     1.066102299298     1.007825032230
         H            3.189475728041     0.867999492729     0.300865399298     1.007825032230
         H            3.231821528041    -0.829967607271     0.342378299298     1.007825032230

  Basis Set: AUG-CC-PVTZ
    Blend: AUG-CC-PVTZ
  Basis Set: (AUG-CC-PVTZ AUX)
    Blend: AUG-CC-PVTZ-JKFIT
	 Reference Energy          =    -324.8819895275947829 [Eh]
	 Singles Energy            =      -0.0000000000000000 [Eh]
	 Same-Spin Energy          =      -0.3596944839256261 [Eh]
	 Opposite-Spin Energy      =      -1.1511991364264105 [Eh]
	 Correlation Energy        =      -1.5108936203520367 [Eh]
	 Total Energy              =    -326.3928831479468045 [Eh]

	 ================> DF-SCS-MP2 Energies <==================
	-----------------------------------------------------------
	 SCS Same-Spin Scale       =       0.3333333333333333 [-]
	 SCS Opposite-Spin Scale   =       1.2000000000000000 [-]
	 SCS Same-Spin Energy      =      -0.1198981613085420 [Eh]
	 SCS Opposite-Spin Energy  =      -1.3814389637116926 [Eh]
	 SCS Correlation Energy    =      -1.5013371250202345 [Eh]
	 SCS Total Energy          =    -326.3833266526150396 [Eh]
	-----------------------------------------------------------

  Dipole Moment: [D]
     X:     0.5852      Y:     0.0221      Z:     1.0775     Total:     1.2264

*** Psi4 exiting successfully. Buy a developer a beer!
