                               Psi4 1.3.2 release

  ==> Input File <==

--------------------------------------------------------------------------
#psi4
#
memory 32 gb

molecule  {
0 1
  N        2.8432420    -0.0000300    -0.0741500
  C       -1.3987330     0.0000320    -0.0172550
  C        1.4375000     0.0000010     0.0042750
  C       -0.6732730    -1.1974670    -0.0089890
  C       -0.6732520     1.1975000    -0.0089860
  C        0.7202200    -1.2039320    -0.0146160
  C        0.7202540     1.2039380    -0.0146150
  C       -2.9047610    -0.0000170     0.0277710
  H       -1.2061990    -2.1473890    -0.0196480
  H       -1.2061560     2.1474320    -0.0196330
  H        1.2592620    -2.1503360    -0.0187000
  H        1.2593140     2.1503320    -0.0186990
  H       -3.3125570     0.8858000    -0.4679490
  H       -3.3126490    -0.8837290    -0.4716300
  H       -3.2750890    -0.0021640     1.0590980
  H        3.3442963     0.9929326     0.4159784
  H        3.2618090    -0.8296010     0.3353740
units angstrom
no_reorient  #important for SAPT in psi4, default
symmetry c1  #important for SAPT in psi4, default
}

set PROPERTIES_ORIGIN ["COM"]
properties('MP2/aug-cc-pvtz', properties = ['dipole'])
--------------------------------------------------------------------------

    Molecular point group: c1
  Charge       = 0
  Multiplicity = 1
  Basis Set: AUG-CC-PVTZ
    Blend: AUG-CC-PVTZ
  Basis Set: (AUG-CC-PVTZ AUX)
    Blend: AUG-CC-PVTZ-JKFIT

    Orbital Energies [Eh]
    ---------------------

    Doubly Occupied:

       1A    -15.581585     2A    -11.272996     3A    -11.231165
       4A    -11.230811     5A    -11.227173     6A    -11.224926
       7A    -11.224020     8A    -11.218577     9A     -1.204692
      10A     -1.125006    11A     -1.015632    12A     -1.007903
      13A     -0.911389    14A     -0.829364    15A     -0.786448
      16A     -0.688934    17A     -0.659138    18A     -0.633230
      19A     -0.589484    20A     -0.577967    21A     -0.572658
      22A     -0.570117    23A     -0.527473    24A     -0.522708
      25A     -0.494580    26A     -0.479912    27A     -0.436734
      28A     -0.334267    29A     -0.286917

  @DF-RHF Final Energy:  -324.85362158075537

   => Energetics <=

    Nuclear Repulsion Energy =            341.0405350509057598
    One-Electron Energy =               -1114.8567028427401056
    Two-Electron Energy =                 448.9625462110789726
    Total Energy =                       -324.8536215807553731
  Basis Set: (AUG-CC-PVTZ AUX)
    Blend: AUG-CC-PVTZ-RI
    Molecular point group: c1

    Geometry (in Angstrom), charge = 0, multiplicity = 1:

       Center              X                  Y                   Z               Mass
    ------------   -----------------  -----------------  -----------------  -----------------
         N            2.812079541477    -0.001569084473    -0.068295124907    14.003074004430
         C           -1.429895458523    -0.001507084473    -0.011400124907    12.000000000000
         C            1.406337541477    -0.001538084473     0.010129875093    12.000000000000
         C           -0.704435458523    -1.199006084473    -0.003134124907    12.000000000000
         C           -0.704414458523     1.195960915527    -0.003131124907    12.000000000000
         C            0.689057541477    -1.205471084473    -0.008761124907    12.000000000000
         C            0.689091541477     1.202398915527    -0.008760124907    12.000000000000
         C           -2.935923458523    -0.001556084473     0.033625875093    12.000000000000
         H           -1.237361458523    -2.148928084473    -0.013793124907     1.007825032230
         H           -1.237318458523     2.145892915527    -0.013778124907     1.007825032230
         H            1.228099541477    -2.151875084473    -0.012845124907     1.007825032230
         H            1.228151541477     2.148792915527    -0.012844124907     1.007825032230
         H           -3.343719458523     0.884260915527    -0.462094124907     1.007825032230
         H           -3.343811458523    -0.885268084473    -0.465775124907     1.007825032230
         H           -3.306251458523    -0.003703084473     1.064952875093     1.007825032230
         H            3.313133841477     0.991393515527     0.421833275093     1.007825032230
         H            3.230646541477    -0.831140084473     0.341228875093     1.007825032230

  Basis Set: AUG-CC-PVTZ
    Blend: AUG-CC-PVTZ
  Basis Set: (AUG-CC-PVTZ AUX)
    Blend: AUG-CC-PVTZ-JKFIT
	 Reference Energy          =    -324.8536215807553731 [Eh]
	 Singles Energy            =      -0.0000000000000000 [Eh]
	 Same-Spin Energy          =      -0.3607737588765783 [Eh]
	 Opposite-Spin Energy      =      -1.1550666619077998 [Eh]
	 Correlation Energy        =      -1.5158404207843781 [Eh]
	 Total Energy              =    -326.3694620015397732 [Eh]

	 ================> DF-SCS-MP2 Energies <==================
	-----------------------------------------------------------
	 SCS Same-Spin Scale       =       0.3333333333333333 [-]
	 SCS Opposite-Spin Scale   =       1.2000000000000000 [-]
	 SCS Same-Spin Energy      =      -0.1202579196255261 [Eh]
	 SCS Opposite-Spin Energy  =      -1.3860799942893598 [Eh]
	 SCS Correlation Energy    =      -1.5063379139148858 [Eh]
	 SCS Total Energy          =    -326.3599594946702496 [Eh]
	-----------------------------------------------------------

  Dipole Moment: [D]
     X:     0.5831      Y:     0.0715      Z:     1.1454     Total:     1.2873

*** Psi4 exiting successfully. Buy a developer a beer!
