                               Psi4 1.3.2 release

  ==> Input File <==

--------------------------------------------------------------------------
#psi4
#
memory 32 gb

molecule  {
0 1
  N        2.8359380    -0.1470231    -0.0665505
  C       -1.3987330     0.0000320    -0.0172550
  C        1.4375000     0.0000010     0.0042750
  C       -0.6732730    -1.1974670    -0.0089890
  C       -0.6732520     1.1975000    -0.0089860
  C        0.7202200    -1.2039320    -0.0146160
  C        0.7202540     1.2039380    -0.0146150
  C       -2.9047610    -0.0000170     0.0277710
  H       -1.2061990    -2.1473890    -0.0196480
  H       -1.2061560     2.1474320    -0.0196330
  H        1.2592620    -2.1503360    -0.0187000
  H        1.2593140     2.1503320    -0.0186990
  H       -3.3125570     0.8858000    -0.4679490
  H       -3.3126490    -0.8837290    -0.4716300
  H       -3.2750890    -0.0021640     1.0590980
  H        3.2618470     0.8295390     0.3353270
  H        3.2618090    -0.8296010     0.3353740
units angstrom
no_reorient  #important for SAPT in psi4, default
symmetry c1  #important for SAPT in psi4, default
}

set PROPERTIES_ORIGIN ["COM"]
properties('MP2/aug-cc-pvtz', properties = ['dipole'])
--------------------------------------------------------------------------

    Molecular point group: c1
  Charge       = 0
  Multiplicity = 1
  Basis Set: AUG-CC-PVTZ
    Blend: AUG-CC-PVTZ
  Basis Set: (AUG-CC-PVTZ AUX)
    Blend: AUG-CC-PVTZ-JKFIT

    Orbital Energies [Eh]
    ---------------------

    Doubly Occupied:

       1A    -15.563125     2A    -11.274596     3A    -11.232411
       4A    -11.230170     5A    -11.227884     6A    -11.227607
       7A    -11.222036     8A    -11.218871     9A     -1.222356
      10A     -1.131277    11A     -1.022354    12A     -1.008068
      13A     -0.917696    14A     -0.830588    15A     -0.794662
      16A     -0.712719    17A     -0.665830    18A     -0.636504
      19A     -0.603721    20A     -0.578273    21A     -0.571466
      22A     -0.570348    23A     -0.528336    24A     -0.524534
      25A     -0.494697    26A     -0.479151    27A     -0.438983
      28A     -0.334661    29A     -0.288306

  @DF-RHF Final Energy:  -324.85273352384468

   => Energetics <=

    Nuclear Repulsion Energy =            342.0999343089517879
    One-Electron Energy =               -1116.8028714876518279
    Two-Electron Energy =                 449.8502036548553633
    Total Energy =                       -324.8527335238446767
  Basis Set: (AUG-CC-PVTZ AUX)
    Blend: AUG-CC-PVTZ-RI
    Molecular point group: c1

    Geometry (in Angstrom), charge = 0, multiplicity = 1:

       Center              X                  Y                   Z               Mass
    ------------   -----------------  -----------------  -----------------  -----------------
         N            2.806506809458    -0.127800488701    -0.060930359564    14.003074004430
         C           -1.428164190542     0.019254611299    -0.011634859564    12.000000000000
         C            1.408068809458     0.019223611299     0.009895140436    12.000000000000
         C           -0.702704190542    -1.178244388701    -0.003368859564    12.000000000000
         C           -0.702683190542     1.216722611299    -0.003365859564    12.000000000000
         C            0.690788809458    -1.184709388701    -0.008995859564    12.000000000000
         C            0.690822809458     1.223160611299    -0.008994859564    12.000000000000
         C           -2.934192190542     0.019205611299     0.033391140436    12.000000000000
         H           -1.235630190542    -2.128166388701    -0.014027859564     1.007825032230
         H           -1.235587190542     2.166654611299    -0.014012859564     1.007825032230
         H            1.229830809458    -2.131113388701    -0.013079859564     1.007825032230
         H            1.229882809458     2.169554611299    -0.013078859564     1.007825032230
         H           -3.341988190542     0.905022611299    -0.462328859564     1.007825032230
         H           -3.342080190542    -0.864506388701    -0.466009859564     1.007825032230
         H           -3.304520190542     0.017058611299     1.064718140436     1.007825032230
         H            3.232415809458     0.848761611299     0.340947140436     1.007825032230
         H            3.232377809458    -0.810378388701     0.340994140436     1.007825032230

  Basis Set: AUG-CC-PVTZ
    Blend: AUG-CC-PVTZ
  Basis Set: (AUG-CC-PVTZ AUX)
    Blend: AUG-CC-PVTZ-JKFIT
	 Reference Energy          =    -324.8527335238446767 [Eh]
	 Singles Energy            =      -0.0000000000000000 [Eh]
	 Same-Spin Energy          =      -0.3599289462140436 [Eh]
	 Opposite-Spin Energy      =      -1.1523873735399595 [Eh]
	 Correlation Energy        =      -1.5123163197540030 [Eh]
	 Total Energy              =    -326.3650498435986833 [Eh]

	 ================> DF-SCS-MP2 Energies <==================
	-----------------------------------------------------------
	 SCS Same-Spin Scale       =       0.3333333333333333 [-]
	 SCS Opposite-Spin Scale   =       1.2000000000000000 [-]
	 SCS Same-Spin Energy      =      -0.1199763154046812 [Eh]
	 SCS Opposite-Spin Energy  =      -1.3828648482479513 [Eh]
	 SCS Correlation Energy    =      -1.5028411636526324 [Eh]
	 SCS Total Energy          =    -326.3555746874973238 [Eh]
	-----------------------------------------------------------

  Dipole Moment: [D]
     X:     0.5286      Y:     0.1051      Z:     1.1126     Total:     1.2363

*** Psi4 exiting successfully. Buy a developer a beer!
