                               Psi4 1.3.2 release

  ==> Input File <==

--------------------------------------------------------------------------
#psi4
#
memory 32 gb

molecule  {
0 1
  N        2.8432420    -0.0000300    -0.0741500
  C       -1.3987330     0.0000320    -0.0172550
  C        1.4375000     0.0000010     0.0042750
  C       -0.6732730    -1.1974670    -0.0089890
  C       -0.6732520     1.1975000    -0.0089860
  C        0.7202200    -1.2039320    -0.0146160
  C        0.7202540     1.2039380    -0.0146150
  C       -2.9047610    -0.0000170     0.0277710
  H       -1.2061990    -2.1473890    -0.0196480
  H       -1.2061560     2.1474320    -0.0196330
  H        1.2592620    -2.1503360    -0.0187000
  H        1.2593140     2.1503320    -0.0186990
  H       -3.3125570     0.8858000    -0.4679490
  H       -3.3126490    -0.8837290    -0.4716300
  H       -3.2750890    -0.0021640     1.0590980
  H        3.3030716     0.9112358     0.3756527
  H        3.2618090    -0.8296010     0.3353740
units angstrom
no_reorient  #important for SAPT in psi4, default
symmetry c1  #important for SAPT in psi4, default
}

set PROPERTIES_ORIGIN ["COM"]
properties('MP2/aug-cc-pvtz', properties = ['dipole'])
--------------------------------------------------------------------------

    Molecular point group: c1
  Charge       = 0
  Multiplicity = 1
  Basis Set: AUG-CC-PVTZ
    Blend: AUG-CC-PVTZ
  Basis Set: (AUG-CC-PVTZ AUX)
    Blend: AUG-CC-PVTZ-JKFIT

    Orbital Energies [Eh]
    ---------------------

    Doubly Occupied:

       1A    -15.573298     2A    -11.272768     3A    -11.231047
       4A    -11.230822     5A    -11.227057     6A    -11.224479
       7A    -11.224059     8A    -11.218512     9A     -1.209914
      10A     -1.126956    11A     -1.017324    12A     -1.007894
      13A     -0.912734    14A     -0.829934    15A     -0.787473
      16A     -0.689196    17A     -0.668986    18A     -0.633569
      19A     -0.593649    20A     -0.581781    21A     -0.577733
      22A     -0.570064    23A     -0.529063    24A     -0.523128
      25A     -0.494630    26A     -0.480164    27A     -0.437500
      28A     -0.334205    29A     -0.287226

  @DF-RHF Final Energy:  -324.87241824091024

   => Energetics <=

    Nuclear Repulsion Energy =            341.4643244744430035
    One-Electron Energy =               -1115.6831523970322451
    Two-Electron Energy =                 449.3464096816790629
    Total Energy =                       -324.8724182409102355
  Basis Set: (AUG-CC-PVTZ AUX)
    Blend: AUG-CC-PVTZ-RI
    Molecular point group: c1

    Geometry (in Angstrom), charge = 0, multiplicity = 1:

       Center              X                  Y                   Z               Mass
    ------------   -----------------  -----------------  -----------------  -----------------
         N            2.812467567318    -0.000800116609    -0.067915560868    14.003074004430
         C           -1.429507432682    -0.000738116609    -0.011020560868    12.000000000000
         C            1.406725567318    -0.000769116609     0.010509439132    12.000000000000
         C           -0.704047432682    -1.198237116609    -0.002754560868    12.000000000000
         C           -0.704026432682     1.196729883391    -0.002751560868    12.000000000000
         C            0.689445567318    -1.204702116609    -0.008381560868    12.000000000000
         C            0.689479567318     1.203167883391    -0.008380560868    12.000000000000
         C           -2.935535432682    -0.000787116609     0.034005439132    12.000000000000
         H           -1.236973432682    -2.148159116609    -0.013413560868     1.007825032230
         H           -1.236930432682     2.146661883391    -0.013398560868     1.007825032230
         H            1.228487567318    -2.151106116609    -0.012465560868     1.007825032230
         H            1.228539567318     2.149561883391    -0.012464560868     1.007825032230
         H           -3.343331432682     0.885029883391    -0.461714560868     1.007825032230
         H           -3.343423432682    -0.884499116609    -0.465395560868     1.007825032230
         H           -3.305863432682    -0.002934116609     1.065332439132     1.007825032230
         H            3.272297167318     0.910465683391     0.381887139132     1.007825032230
         H            3.231034567318    -0.830371116609     0.341608439132     1.007825032230

  Basis Set: AUG-CC-PVTZ
    Blend: AUG-CC-PVTZ
  Basis Set: (AUG-CC-PVTZ AUX)
    Blend: AUG-CC-PVTZ-JKFIT
	 Reference Energy          =    -324.8724182409102355 [Eh]
	 Singles Energy            =      -0.0000000000000000 [Eh]
	 Same-Spin Energy          =      -0.3602053017833365 [Eh]
	 Opposite-Spin Energy      =      -1.1529830374869734 [Eh]
	 Correlation Energy        =      -1.5131883392703098 [Eh]
	 Total Energy              =    -326.3856065801805357 [Eh]

	 ================> DF-SCS-MP2 Energies <==================
	-----------------------------------------------------------
	 SCS Same-Spin Scale       =       0.3333333333333333 [-]
	 SCS Opposite-Spin Scale   =       1.2000000000000000 [-]
	 SCS Same-Spin Energy      =      -0.1200684339277788 [Eh]
	 SCS Opposite-Spin Energy  =      -1.3835796449843680 [Eh]
	 SCS Correlation Energy    =      -1.5036480789121469 [Eh]
	 SCS Total Energy          =    -326.3760663198223710 [Eh]
	-----------------------------------------------------------

  Dipole Moment: [D]
     X:     0.5907      Y:     0.0392      Z:     1.1356     Total:     1.2807

*** Psi4 exiting successfully. Buy a developer a beer!
