                               Psi4 1.4a3.dev225

  ==> Input File <==

--------------------------------------------------------------------------
#psi4
#
memory 32 gb

molecule  {
0 1
  N        2.8432840     0.0000010    -0.0745030
  C       -1.3986540     0.0000000    -0.0170120
  C        1.4375310     0.0000000     0.0042070
  C       -0.6732940    -1.1975080    -0.0091010
  C       -0.6732940     1.1975090    -0.0091010
  C        0.7202880    -1.2039700    -0.0142280
  C        0.7202880     1.2039700    -0.0142290
  C       -2.9047420     0.0000000     0.0276170
  H       -1.2062760    -2.1473880    -0.0194750
  H       -1.2062760     2.1473880    -0.0194750
  H        1.2592860    -2.1503840    -0.0188250
  H        1.2592870     2.1503840    -0.0188280
  H       -3.3126320     0.8846740    -0.4701760
  H       -3.3126330    -0.8846640    -0.4701940
  H       -3.2755950    -0.0000100     1.0587510
  H        3.2697938     0.8457889     0.3434954
  H        3.2615550    -0.8294590     0.3354000
units angstrom
no_reorient  #important for SAPT in psi4, default
symmetry c1  #important for SAPT in psi4, default
}

set PROPERTIES_ORIGIN ["COM"]
properties('MP2/aug-cc-pvtz', properties = ['dipole'])
--------------------------------------------------------------------------

    Molecular point group: c1
  Charge       = 0
  Multiplicity = 1
  Basis Set: AUG-CC-PVTZ
    Blend: AUG-CC-PVTZ
  Basis Set: (AUG-CC-PVTZ AUX)
    Blend: AUG-CC-PVTZ-JKFIT

    Orbital Energies [Eh]
    ---------------------

    Doubly Occupied:

       1A    -15.565720     2A    -11.272672     3A    -11.231074
       4A    -11.230898     5A    -11.227120     6A    -11.224321
       7A    -11.224242     8A    -11.218558     9A     -1.216208
      10A     -1.129022    11A     -1.019199    12A     -1.007974
      13A     -0.914264    14A     -0.830648    15A     -0.788749
      16A     -0.690174    17A     -0.679488    18A     -0.633900
      19A     -0.599788    20A     -0.584384    21A     -0.577822
      22A     -0.570104    23A     -0.529886    24A     -0.523556
      25A     -0.494727    26A     -0.480405    27A     -0.438235
      28A     -0.334229    29A     -0.287659

  @DF-RHF Final Energy:  -324.88154455170024

   => Energetics <=

    Nuclear Repulsion Energy =            341.8410807239461633
    One-Electron Energy =               -1116.3951976938292319
    Two-Electron Energy =                 449.6725724181828809
    Total Energy =                       -324.8815445517002445
  Basis Set: (AUG-CC-PVTZ AUX)
    Blend: AUG-CC-PVTZ-RI
    Molecular point group: c1

    Geometry (in Angstrom), charge = 0, multiplicity = 1:

       Center              X                  Y                   Z               Mass
    ------------   -----------------  -----------------  -----------------  -----------------
         N            2.812808063628    -0.000152947384    -0.067973631533    14.003074004430
         C           -1.429129936372    -0.000153947384    -0.010482631533    12.000000000000
         C            1.407055063628    -0.000153947384     0.010736368467    12.000000000000
         C           -0.703769936372    -1.197661947384    -0.002571631533    12.000000000000
         C           -0.703769936372     1.197355052616    -0.002571631533    12.000000000000
         C            0.689812063628    -1.204123947384    -0.007698631533    12.000000000000
         C            0.689812063628     1.203816052616    -0.007699631533    12.000000000000
         C           -2.935217936372    -0.000153947384     0.034146368467    12.000000000000
         H           -1.236751936372    -2.147541947384    -0.012945631533     1.007825032230
         H           -1.236751936372     2.147234052616    -0.012945631533     1.007825032230
         H            1.228810063628    -2.150537947384    -0.012295631533     1.007825032230
         H            1.228811063628     2.150230052616    -0.012298631533     1.007825032230
         H           -3.343107936372     0.884520052616    -0.463646631533     1.007825032230
         H           -3.343108936372    -0.884817947384    -0.463664631533     1.007825032230
         H           -3.306070936372    -0.000163947384     1.065280368467     1.007825032230
         H            3.239317863628     0.845634952616     0.350024768467     1.007825032230
         H            3.231079063628    -0.829612947384     0.341929368467     1.007825032230

  Basis Set: AUG-CC-PVTZ
    Blend: AUG-CC-PVTZ
  Basis Set: (AUG-CC-PVTZ AUX)
    Blend: AUG-CC-PVTZ-JKFIT
	 Reference Energy          =    -324.8815445517002445 [Eh]
	 Singles Energy            =      -0.0000000000000000 [Eh]
	 Same-Spin Energy          =      -0.3597347576862333 [Eh]
	 Opposite-Spin Energy      =      -1.1514805144223437 [Eh]
	 Correlation Energy        =      -1.5112152721085770 [Eh]
	 Total Energy              =    -326.3927598238088308 [Eh]

	 ================> DF-SCS-MP2 Energies <==================
	-----------------------------------------------------------
	 SCS Same-Spin Scale       =       0.3333333333333333 [-]
	 SCS Opposite-Spin Scale   =       1.2000000000000000 [-]
	 SCS Same-Spin Energy      =      -0.1199115858954111 [Eh]
	 SCS Opposite-Spin Energy  =      -1.3817766173068124 [Eh]
	 SCS Correlation Energy    =      -1.5016882032022236 [Eh]
	 SCS Total Energy          =    -326.3832327549024512 [Eh]
	-----------------------------------------------------------

  Dipole Moment: [D]
     X:     0.5818      Y:     0.0083      Z:     1.1263     Total:     1.2678

*** Psi4 exiting successfully. Buy a developer a beer!
