                               Psi4 1.4a3.dev225

  ==> Input File <==

--------------------------------------------------------------------------
#psi4
#
memory 32 gb

molecule  {
0 1
  N        2.8432840     0.0000010    -0.0745030
  C       -1.3986540     0.0000000    -0.0170120
  C        1.4375310     0.0000000     0.0042070
  C       -0.6732940    -1.1975080    -0.0091010
  C       -0.6732940     1.1975090    -0.0091010
  C        0.7202880    -1.2039700    -0.0142280
  C        0.7202880     1.2039700    -0.0142290
  C       -2.9047420     0.0000000     0.0276170
  H       -1.2062760    -2.1473880    -0.0194750
  H       -1.2062760     2.1473880    -0.0194750
  H        1.2592860    -2.1503840    -0.0188250
  H        1.2592870     2.1503840    -0.0188280
  H       -3.3200889     0.9008473    -0.4792765
  H       -3.3126330    -0.8846640    -0.4701940
  H       -3.2755950    -0.0000100     1.0587510
  H        3.2615550     0.8294510     0.3354210
  H        3.2615550    -0.8294590     0.3354000
units angstrom
no_reorient  #important for SAPT in psi4, default
symmetry c1  #important for SAPT in psi4, default
}

set PROPERTIES_ORIGIN ["COM"]
properties('MP2/aug-cc-pvtz', properties = ['dipole'])
--------------------------------------------------------------------------

    Molecular point group: c1
  Charge       = 0
  Multiplicity = 1
  Basis Set: AUG-CC-PVTZ
    Blend: AUG-CC-PVTZ
  Basis Set: (AUG-CC-PVTZ AUX)
    Blend: AUG-CC-PVTZ-JKFIT

    Orbital Energies [Eh]
    ---------------------

    Doubly Occupied:

       1A    -15.563752     2A    -11.272746     3A    -11.231217
       4A    -11.231008     5A    -11.227330     6A    -11.224385
       7A    -11.224348     8A    -11.221011     9A     -1.218214
      10A     -1.129634    11A     -1.019263    12A     -1.008083
      13A     -0.913551    14A     -0.830906    15A     -0.788920
      16A     -0.690828    17A     -0.682109    18A     -0.633893
      19A     -0.600884    20A     -0.584729    21A     -0.577896
      22A     -0.569579    23A     -0.528022    24A     -0.523407
      25A     -0.494894    26A     -0.480350    27A     -0.438430
      28A     -0.334318    29A     -0.287842

  @DF-RHF Final Energy:  -324.88202914196586

   => Energetics <=

    Nuclear Repulsion Energy =            341.8597695839015387
    One-Electron Energy =               -1116.4204955076761507
    Two-Electron Energy =                 449.6786967818087533
    Total Energy =                       -324.8820291419658588
  Basis Set: (AUG-CC-PVTZ AUX)
    Blend: AUG-CC-PVTZ-RI
    Molecular point group: c1

    Geometry (in Angstrom), charge = 0, multiplicity = 1:

       Center              X                  Y                   Z               Mass
    ------------   -----------------  -----------------  -----------------  -----------------
         N            2.812955798777    -0.000151398093    -0.067811973473    14.003074004430
         C           -1.428982201223    -0.000152398093    -0.010320973473    12.000000000000
         C            1.407202798777    -0.000152398093     0.010898026527    12.000000000000
         C           -0.703622201223    -1.197660398093    -0.002409973473    12.000000000000
         C           -0.703622201223     1.197356601907    -0.002409973473    12.000000000000
         C            0.689959798777    -1.204122398093    -0.007536973473    12.000000000000
         C            0.689959798777     1.203817601907    -0.007537973473    12.000000000000
         C           -2.935070201223    -0.000152398093     0.034308026527    12.000000000000
         H           -1.236604201223    -2.147540398093    -0.012783973473     1.007825032230
         H           -1.236604201223     2.147235601907    -0.012783973473     1.007825032230
         H            1.228957798777    -2.150536398093    -0.012133973473     1.007825032230
         H            1.228958798777     2.150231601907    -0.012136973473     1.007825032230
         H           -3.350417101223     0.900694901907    -0.472585473473     1.007825032230
         H           -3.342961201223    -0.884816398093    -0.463502973473     1.007825032230
         H           -3.305923201223    -0.000162398093     1.065442026527     1.007825032230
         H            3.231226798777     0.829298601907     0.342112026527     1.007825032230
         H            3.231226798777    -0.829611398093     0.342091026527     1.007825032230

  Basis Set: AUG-CC-PVTZ
    Blend: AUG-CC-PVTZ
  Basis Set: (AUG-CC-PVTZ AUX)
    Blend: AUG-CC-PVTZ-JKFIT
	 Reference Energy          =    -324.8820291419658588 [Eh]
	 Singles Energy            =      -0.0000000000000000 [Eh]
	 Same-Spin Energy          =      -0.3596182950205132 [Eh]
	 Opposite-Spin Energy      =      -1.1512616966599110 [Eh]
	 Correlation Energy        =      -1.5108799916804241 [Eh]
	 Total Energy              =    -326.3929091336462989 [Eh]

	 ================> DF-SCS-MP2 Energies <==================
	-----------------------------------------------------------
	 SCS Same-Spin Scale       =       0.3333333333333333 [-]
	 SCS Opposite-Spin Scale   =       1.2000000000000000 [-]
	 SCS Same-Spin Energy      =      -0.1198727650068377 [Eh]
	 SCS Opposite-Spin Energy  =      -1.3815140359918932 [Eh]
	 SCS Correlation Energy    =      -1.5013868009987308 [Eh]
	 SCS Total Energy          =    -326.3834159429645752 [Eh]
	-----------------------------------------------------------

  Dipole Moment: [D]
     X:     0.5887      Y:    -0.0074      Z:     1.1277     Total:     1.2722

*** Psi4 exiting successfully. Buy a developer a beer!
