                               Psi4 1.3.2 release

  ==> Input File <==

--------------------------------------------------------------------------
#psi4
#
memory 32 gb

molecule  {
0 1
  N        2.8432420    -0.0000300    -0.0741500
  C       -1.3987330     0.0000320    -0.0172550
  C        1.4375000     0.0000010     0.0042750
  C       -0.6732730    -1.1974670    -0.0089890
  C       -0.6732520     1.1975000    -0.0089860
  C        0.7202200    -1.2039320    -0.0146160
  C        0.7202540     1.2039380    -0.0146150
  C       -2.7048503    -0.0000105     0.0217942
  H       -1.2061990    -2.1473890    -0.0196480
  H       -1.2061560     2.1474320    -0.0196330
  H        1.2592620    -2.1503360    -0.0187000
  H        1.2593140     2.1503320    -0.0186990
  H       -3.3125570     0.8858000    -0.4679490
  H       -3.3126490    -0.8837290    -0.4716300
  H       -3.2750890    -0.0021640     1.0590980
  H        3.2618470     0.8295390     0.3353270
  H        3.2618090    -0.8296010     0.3353740
units angstrom
no_reorient  #important for SAPT in psi4, default
symmetry c1  #important for SAPT in psi4, default
}

set PROPERTIES_ORIGIN ["COM"]
properties('MP2/aug-cc-pvtz', properties = ['dipole'])
--------------------------------------------------------------------------

    Molecular point group: c1
  Charge       = 0
  Multiplicity = 1
  Basis Set: AUG-CC-PVTZ
    Blend: AUG-CC-PVTZ
  Basis Set: (AUG-CC-PVTZ AUX)
    Blend: AUG-CC-PVTZ-JKFIT

    Orbital Energies [Eh]
    ---------------------

    Doubly Occupied:

       1A    -15.565500     2A    -11.274907     3A    -11.232621
       4A    -11.232591     5A    -11.229227     6A    -11.225767
       7A    -11.225745     8A    -11.214843     9A     -1.220180
      10A     -1.146653    11A     -1.045058    12A     -1.010431
      13A     -0.906848    14A     -0.835965    15A     -0.786260
      16A     -0.693876    17A     -0.686817    18A     -0.657483
      19A     -0.605039    20A     -0.595179    21A     -0.578995
      22A     -0.560437    23A     -0.532584    24A     -0.510564
      25A     -0.503956    26A     -0.461012    27A     -0.428657
      28A     -0.336171    29A     -0.282735

  @DF-RHF Final Energy:  -324.83019180722755

   => Energetics <=

    Nuclear Repulsion Energy =            345.4147801521462497
    One-Electron Energy =               -1123.3177380252604962
    Two-Electron Energy =                 453.0727660658866967
    Total Energy =                       -324.8301918072275498
  Basis Set: (AUG-CC-PVTZ AUX)
    Blend: AUG-CC-PVTZ-RI
    Molecular point group: c1

    Geometry (in Angstrom), charge = 0, multiplicity = 1:

       Center              X                  Y                   Z               Mass
    ------------   -----------------  -----------------  -----------------  -----------------
         N            2.790451090489    -0.000031877216    -0.066866161617    14.003074004430
         C           -1.451523909511     0.000030122784    -0.009971161617    12.000000000000
         C            1.384709090489    -0.000000877216     0.011558838383    12.000000000000
         C           -0.726063909511    -1.197468877216    -0.001705161617    12.000000000000
         C           -0.726042909511     1.197498122784    -0.001702161617    12.000000000000
         C            0.667429090489    -1.203933877216    -0.007332161617    12.000000000000
         C            0.667463090489     1.203936122784    -0.007331161617    12.000000000000
         C           -2.757641209511    -0.000012377216     0.029078038383    12.000000000000
         H           -1.258989909511    -2.147390877216    -0.012364161617     1.007825032230
         H           -1.258946909511     2.147430122784    -0.012349161617     1.007825032230
         H            1.206471090489    -2.150337877216    -0.011416161617     1.007825032230
         H            1.206523090489     2.150330122784    -0.011415161617     1.007825032230
         H           -3.365347909511     0.885798122784    -0.460665161617     1.007825032230
         H           -3.365439909511    -0.883730877216    -0.464346161617     1.007825032230
         H           -3.327879909511    -0.002165877216     1.066381838383     1.007825032230
         H            3.209056090489     0.829537122784     0.342610838383     1.007825032230
         H            3.209018090489    -0.829602877216     0.342657838383     1.007825032230

  Basis Set: AUG-CC-PVTZ
    Blend: AUG-CC-PVTZ
  Basis Set: (AUG-CC-PVTZ AUX)
    Blend: AUG-CC-PVTZ-JKFIT
	 Reference Energy          =    -324.8301918072275498 [Eh]
	 Singles Energy            =      -0.0000000000000000 [Eh]
	 Same-Spin Energy          =      -0.3630961255273857 [Eh]
	 Opposite-Spin Energy      =      -1.1557566728124125 [Eh]
	 Correlation Energy        =      -1.5188527983397981 [Eh]
	 Total Energy              =    -326.3490446055673715 [Eh]

	 ================> DF-SCS-MP2 Energies <==================
	-----------------------------------------------------------
	 SCS Same-Spin Scale       =       0.3333333333333333 [-]
	 SCS Opposite-Spin Scale   =       1.2000000000000000 [-]
	 SCS Same-Spin Energy      =      -0.1210320418424619 [Eh]
	 SCS Opposite-Spin Energy  =      -1.3869080073748949 [Eh]
	 SCS Correlation Energy    =      -1.5079400492173569 [Eh]
	 SCS Total Energy          =    -326.3381318564449316 [Eh]
	-----------------------------------------------------------

  Dipole Moment: [D]
     X:     0.7170      Y:    -0.0003      Z:     1.1207     Total:     1.3304

*** Psi4 exiting successfully. Buy a developer a beer!
