                               Psi4 1.3.2 release

  ==> Input File <==

--------------------------------------------------------------------------
#psi4
#
memory 32 gb

molecule  {
0 1
  N        2.8432420    -0.0000300    -0.0741500
  C       -1.3987330     0.0000320    -0.0172550
  C        1.4375000     0.0000010     0.0042750
  C       -0.6732730    -1.1974670    -0.0089890
  C       -0.6732520     1.1975000    -0.0089860
  C        0.7202200    -1.2039320    -0.0146160
  C        0.7202540     1.2039380    -0.0146150
  C       -2.9047610    -0.0000170     0.0277710
  H       -1.2061990    -2.1473890    -0.0196480
  H       -1.2061560     2.1474320    -0.0196330
  H        1.2592620    -2.1503360    -0.0187000
  H        1.2593140     2.1503320    -0.0186990
  H       -3.3125570     0.8858000    -0.4679490
  H       -3.3126490    -0.8837290    -0.4716300
  H       -3.2750890    -0.0021640     1.0590980
  H        3.1975706     0.8862041     0.2724429
  H        3.2618090    -0.8296010     0.3353740
units angstrom
no_reorient  #important for SAPT in psi4, default
symmetry c1  #important for SAPT in psi4, default
}

set PROPERTIES_ORIGIN ["COM"]
properties('MP2/aug-cc-pvtz', properties = ['dipole'])
--------------------------------------------------------------------------

    Molecular point group: c1
  Charge       = 0
  Multiplicity = 1
  Basis Set: AUG-CC-PVTZ
    Blend: AUG-CC-PVTZ
  Basis Set: (AUG-CC-PVTZ AUX)
    Blend: AUG-CC-PVTZ-JKFIT

    Orbital Energies [Eh]
    ---------------------

    Doubly Occupied:

       1A    -15.563815     2A    -11.272114     3A    -11.231215
       4A    -11.230930     5A    -11.226660     6A    -11.224243
       7A    -11.223578     8A    -11.218362     9A     -1.218713
      10A     -1.129249    11A     -1.019002    12A     -1.008046
      13A     -0.913746    14A     -0.831792    15A     -0.787929
      16A     -0.690762    17A     -0.685932    18A     -0.633630
      19A     -0.604507    20A     -0.582136    21A     -0.577873
      22A     -0.569947    23A     -0.530277    24A     -0.523576
      25A     -0.494450    26A     -0.480556    27A     -0.437644
      28A     -0.334342    29A     -0.286669

  @DF-RHF Final Energy:  -324.88131333358740

   => Energetics <=

    Nuclear Repulsion Energy =            342.0592415410901594
    One-Electron Energy =               -1116.8177206363689038
    Two-Electron Energy =                 449.8771657616913444
    Total Energy =                       -324.8813133335873999
  Basis Set: (AUG-CC-PVTZ AUX)
    Blend: AUG-CC-PVTZ-RI
    Molecular point group: c1

    Geometry (in Angstrom), charge = 0, multiplicity = 1:

       Center              X                  Y                   Z               Mass
    ------------   -----------------  -----------------  -----------------  -----------------
         N            2.813460591263    -0.000564506733    -0.066944102751    14.003074004430
         C           -1.428514408737    -0.000502506733    -0.010049102751    12.000000000000
         C            1.407718591263    -0.000533506733     0.011480897249    12.000000000000
         C           -0.703054408737    -1.198001506733    -0.001783102751    12.000000000000
         C           -0.703033408737     1.196965493267    -0.001780102751    12.000000000000
         C            0.690438591263    -1.204466506733    -0.007410102751    12.000000000000
         C            0.690472591263     1.203403493267    -0.007409102751    12.000000000000
         C           -2.934542408737    -0.000551506733     0.034976897249    12.000000000000
         H           -1.235980408737    -2.147923506733    -0.012442102751     1.007825032230
         H           -1.235937408737     2.146897493267    -0.012427102751     1.007825032230
         H            1.229480591263    -2.150870506733    -0.011494102751     1.007825032230
         H            1.229532591263     2.149797493267    -0.011493102751     1.007825032230
         H           -3.342338408737     0.885265493267    -0.460743102751     1.007825032230
         H           -3.342430408737    -0.884263506733    -0.464424102751     1.007825032230
         H           -3.304870408737    -0.002698506733     1.066303897249     1.007825032230
         H            3.167789191263     0.885669593267     0.279648797249     1.007825032230
         H            3.232027591263    -0.830135506733     0.342579897249     1.007825032230

  Basis Set: AUG-CC-PVTZ
    Blend: AUG-CC-PVTZ
  Basis Set: (AUG-CC-PVTZ AUX)
    Blend: AUG-CC-PVTZ-JKFIT
	 Reference Energy          =    -324.8813133335873999 [Eh]
	 Singles Energy            =      -0.0000000000000000 [Eh]
	 Same-Spin Energy          =      -0.3597513944952149 [Eh]
	 Opposite-Spin Energy      =      -1.1512625568827026 [Eh]
	 Correlation Energy        =      -1.5110139513779175 [Eh]
	 Total Energy              =    -326.3923272849652903 [Eh]

	 ================> DF-SCS-MP2 Energies <==================
	-----------------------------------------------------------
	 SCS Same-Spin Scale       =       0.3333333333333333 [-]
	 SCS Opposite-Spin Scale   =       1.2000000000000000 [-]
	 SCS Same-Spin Energy      =      -0.1199171314984050 [Eh]
	 SCS Opposite-Spin Energy  =      -1.3815150682592432 [Eh]
	 SCS Correlation Energy    =      -1.5014321997576481 [Eh]
	 SCS Total Energy          =    -326.3827455333450303 [Eh]
	-----------------------------------------------------------

  Dipole Moment: [D]
     X:     0.5860      Y:     0.0313      Z:     1.0539     Total:     1.2062

*** Psi4 exiting successfully. Buy a developer a beer!
