                               Psi4 1.3.2 release

  ==> Input File <==

--------------------------------------------------------------------------
#psi4
#
memory 32 gb

molecule  {
0 1
  N        2.8432420    -0.0000300    -0.0741500
  C       -1.3988676    -0.0455897     0.0089073
  C        1.4375000     0.0000010     0.0042750
  C       -0.6732730    -1.1974670    -0.0089890
  C       -0.6732520     1.1975000    -0.0089860
  C        0.7202200    -1.2039320    -0.0146160
  C        0.7202540     1.2039380    -0.0146150
  C       -2.9047610    -0.0000170     0.0277710
  H       -1.2061990    -2.1473890    -0.0196480
  H       -1.2061560     2.1474320    -0.0196330
  H        1.2592620    -2.1503360    -0.0187000
  H        1.2593140     2.1503320    -0.0186990
  H       -3.3125570     0.8858000    -0.4679490
  H       -3.3126490    -0.8837290    -0.4716300
  H       -3.2750890    -0.0021640     1.0590980
  H        3.2618470     0.8295390     0.3353270
  H        3.2618090    -0.8296010     0.3353740
units angstrom
no_reorient  #important for SAPT in psi4, default
symmetry c1  #important for SAPT in psi4, default
}

set PROPERTIES_ORIGIN ["COM"]
properties('MP2/aug-cc-pvtz', properties = ['dipole'])
--------------------------------------------------------------------------

    Molecular point group: c1
  Charge       = 0
  Multiplicity = 1
  Basis Set: AUG-CC-PVTZ
    Blend: AUG-CC-PVTZ
  Basis Set: (AUG-CC-PVTZ AUX)
    Blend: AUG-CC-PVTZ-JKFIT

    Orbital Energies [Eh]
    ---------------------

    Doubly Occupied:

       1A    -15.563646     2A    -11.272565     3A    -11.235536
       4A    -11.227476     5A    -11.225768     6A    -11.225450
       7A    -11.222510     8A    -11.218727     9A     -1.218052
      10A     -1.129903    11A     -1.020695    12A     -1.007206
      13A     -0.915087    14A     -0.831126    15A     -0.788505
      16A     -0.690913    17A     -0.681899    18A     -0.633921
      19A     -0.601186    20A     -0.585307    21A     -0.577278
      22A     -0.570361    23A     -0.530950    24A     -0.524111
      25A     -0.497232    26A     -0.475849    27A     -0.438647
      28A     -0.334848    29A     -0.287412

  @DF-RHF Final Energy:  -324.88005496136896

   => Energetics <=

    Nuclear Repulsion Energy =            341.9578504898241249
    One-Electron Energy =               -1116.6114795318715096
    Two-Electron Energy =                 449.7735740806784861
    Total Energy =                       -324.8800549613689554
  Basis Set: (AUG-CC-PVTZ AUX)
    Blend: AUG-CC-PVTZ-RI
    Molecular point group: c1

    Geometry (in Angstrom), charge = 0, multiplicity = 1:

       Center              X                  Y                   Z               Mass
    ------------   -----------------  -----------------  -----------------  -----------------
         N            2.812870677183     0.005081791466    -0.070468072478    14.003074004430
         C           -1.429238922817    -0.040477908534     0.012589227522    12.000000000000
         C            1.407128677183     0.005112791466     0.007956927522    12.000000000000
         C           -0.703644322817    -1.192355208534    -0.005307072478    12.000000000000
         C           -0.703623322817     1.202611791466    -0.005304072478    12.000000000000
         C            0.689848677183    -1.198820208534    -0.010934072478    12.000000000000
         C            0.689882677183     1.209049791466    -0.010933072478    12.000000000000
         C           -2.935132322817     0.005094791466     0.031452927522    12.000000000000
         H           -1.236570322817    -2.142277208534    -0.015966072478     1.007825032230
         H           -1.236527322817     2.152543791466    -0.015951072478     1.007825032230
         H            1.228890677183    -2.145224208534    -0.015018072478     1.007825032230
         H            1.228942677183     2.155443791466    -0.015017072478     1.007825032230
         H           -3.342928322817     0.890911791466    -0.464267072478     1.007825032230
         H           -3.343020322817    -0.878617208534    -0.467948072478     1.007825032230
         H           -3.305460322817     0.002947791466     1.062779927522     1.007825032230
         H            3.231475677183     0.834650791466     0.339008927522     1.007825032230
         H            3.231437677183    -0.824489208534     0.339055927522     1.007825032230

  Basis Set: AUG-CC-PVTZ
    Blend: AUG-CC-PVTZ
  Basis Set: (AUG-CC-PVTZ AUX)
    Blend: AUG-CC-PVTZ-JKFIT
	 Reference Energy          =    -324.8800549613689554 [Eh]
	 Singles Energy            =      -0.0000000000000000 [Eh]
	 Same-Spin Energy          =      -0.3595371625506170 [Eh]
	 Opposite-Spin Energy      =      -1.1512093042950906 [Eh]
	 Correlation Energy        =      -1.5107464668457076 [Eh]
	 Total Energy              =    -326.3908014282146723 [Eh]

	 ================> DF-SCS-MP2 Energies <==================
	-----------------------------------------------------------
	 SCS Same-Spin Scale       =       0.3333333333333333 [-]
	 SCS Opposite-Spin Scale   =       1.2000000000000000 [-]
	 SCS Same-Spin Energy      =      -0.1198457208502057 [Eh]
	 SCS Opposite-Spin Energy  =      -1.3814511651541086 [Eh]
	 SCS Correlation Energy    =      -1.5012968860043143 [Eh]
	 SCS Total Energy          =    -326.3813518473732529 [Eh]
	-----------------------------------------------------------

  Dipole Moment: [D]
     X:     0.5690      Y:     0.0398      Z:     1.1106     Total:     1.2485

*** Psi4 exiting successfully. Buy a developer a beer!
