                               Psi4 1.3.2 release

  ==> Input File <==

--------------------------------------------------------------------------
#psi4
#
memory 32 gb

molecule  {
-1 1
  S       -1.3434220    -0.1276070     0.0000000
  O        0.9008660     1.3391190     0.0000000
  C        1.2796100    -1.0089470     0.0000000
  C        0.1565690     0.1794798    -0.0000009
  H        1.0855710    -1.6283600     0.8805770
  H        2.3240130    -0.6783680    -0.0000170
  H        1.0855470    -1.6283820    -0.8805570
units angstrom
no_reorient  #important for SAPT in psi4, default
symmetry c1  #important for SAPT in psi4, default
}

set PROPERTIES_ORIGIN ["COM"]
properties('MP2/aug-cc-pvtz', properties = ['dipole'])
--------------------------------------------------------------------------

    Molecular point group: c1
  Charge       = -1
  Multiplicity = 1
  Basis Set: AUG-CC-PVTZ
    Blend: AUG-CC-PVTZ
  Basis Set: (AUG-CC-PVTZ AUX)
    Blend: AUG-CC-PVTZ-JKFIT

    Orbital Energies [Eh]
    ---------------------

    Doubly Occupied:

       1A    -91.715304     2A    -20.306796     3A    -11.153639
       4A    -11.063258     5A     -8.725003     6A     -6.407293
       7A     -6.404803     8A     -6.404041     9A     -1.074650
      10A     -0.858987    11A     -0.767855    12A     -0.492531
      13A     -0.406755    14A     -0.406578    15A     -0.375632
      16A     -0.337619    17A     -0.285874    18A     -0.192399
      19A     -0.157970    20A     -0.143311

  @DF-RHF Final Energy:  -549.92853559982404

   => Energetics <=

    Nuclear Repulsion Energy =            143.7846320201584547
    One-Electron Energy =               -1052.0657419003789528
    Two-Electron Energy =                 358.3525742803963681
    Total Energy =                       -549.9285355998240448
  Basis Set: (AUG-CC-PVTZ AUX)
    Blend: AUG-CC-PVTZ-RI
    Molecular point group: c1

    Geometry (in Angstrom), charge = -1, multiplicity = 1:

       Center              X                  Y                   Z               Mass
    ------------   -----------------  -----------------  -----------------  -----------------
         S           -1.253033763655    -0.173209136337     0.000000103700    31.972071174400
         O            0.991254236345     1.293516863663     0.000000103700    15.994914619570
         C            1.369998236345    -1.054549136337     0.000000103700    12.000000000000
         C            0.246957236345     0.133877663663    -0.000000796300    12.000000000000
         H            1.175959236345    -1.673962136337     0.880577103700     1.007825032230
         H            2.414401236345    -0.723970136337    -0.000016896300     1.007825032230
         H            1.175935236345    -1.673984136337    -0.880556896300     1.007825032230

  Basis Set: AUG-CC-PVTZ
    Blend: AUG-CC-PVTZ
  Basis Set: (AUG-CC-PVTZ AUX)
    Blend: AUG-CC-PVTZ-JKFIT
	 Reference Energy          =    -549.9285355998240448 [Eh]
	 Singles Energy            =      -0.0000000000000000 [Eh]
	 Same-Spin Energy          =      -0.2166178823123457 [Eh]
	 Opposite-Spin Energy      =      -0.6533066199710579 [Eh]
	 Correlation Energy        =      -0.8699245022834036 [Eh]
	 Total Energy              =    -550.7984601021074695 [Eh]

	 ================> DF-SCS-MP2 Energies <==================
	-----------------------------------------------------------
	 SCS Same-Spin Scale       =       0.3333333333333333 [-]
	 SCS Opposite-Spin Scale   =       1.2000000000000000 [-]
	 SCS Same-Spin Energy      =      -0.0722059607707819 [Eh]
	 SCS Opposite-Spin Energy  =      -0.7839679439652695 [Eh]
	 SCS Correlation Energy    =      -0.8561739047360514 [Eh]
	 SCS Total Energy          =    -550.7847095045600554 [Eh]
	-----------------------------------------------------------

  Dipole Moment: [D]
     X:     0.3398      Y:    -2.6304      Z:     0.0000     Total:     2.6523

*** Psi4 exiting successfully. Buy a developer a beer!
