                               Psi4 1.3.2 release

  ==> Input File <==

--------------------------------------------------------------------------
#psi4
#
memory 32 gb

molecule  {
-1 1
  S       -1.3434220    -0.1276070     0.0000000
  O        0.9008660     1.3391190     0.0000000
  C        1.2796100    -1.0089470     0.0000000
  C        0.3101943     0.1864891    -0.0000001
  H        1.0855710    -1.6283600     0.8805770
  H        2.3240130    -0.6783680    -0.0000170
  H        1.0855470    -1.6283820    -0.8805570
units angstrom
no_reorient  #important for SAPT in psi4, default
symmetry c1  #important for SAPT in psi4, default
}

set PROPERTIES_ORIGIN ["COM"]
properties('MP2/aug-cc-pvtz', properties = ['dipole'])
--------------------------------------------------------------------------

    Molecular point group: c1
  Charge       = -1
  Multiplicity = 1
  Basis Set: AUG-CC-PVTZ
    Blend: AUG-CC-PVTZ
  Basis Set: (AUG-CC-PVTZ AUX)
    Blend: AUG-CC-PVTZ-JKFIT

    Orbital Energies [Eh]
    ---------------------

    Doubly Occupied:

       1A    -91.703054     2A    -20.333671     3A    -11.160258
       4A    -11.069382     5A     -8.706776     6A     -6.388461
       7A     -6.386833     8A     -6.386325     9A     -1.135042
      10A     -0.843639    11A     -0.746174    12A     -0.517764
      13A     -0.423579    14A     -0.423030    15A     -0.405763
      16A     -0.336393    17A     -0.300211    18A     -0.209170
      19A     -0.142243    20A     -0.133122

  @DF-RHF Final Energy:  -549.97773897668333

   => Energetics <=

    Nuclear Repulsion Energy =            142.8500700383797835
    One-Electron Energy =               -1050.1538389960069253
    Two-Electron Energy =                 357.3260299809438720
    Total Energy =                       -549.9777389766833267
  Basis Set: (AUG-CC-PVTZ AUX)
    Blend: AUG-CC-PVTZ-RI
    Molecular point group: c1

    Geometry (in Angstrom), charge = -1, multiplicity = 1:

       Center              X                  Y                   Z               Mass
    ------------   -----------------  -----------------  -----------------  -----------------
         S           -1.277616938343    -0.174330766995    -0.000000024316    31.972071174400
         O            0.966671061657     1.292395233005    -0.000000024316    15.994914619570
         C            1.345415061657    -1.055670766995    -0.000000024316    12.000000000000
         C            0.375999361657     0.139765333005    -0.000000124316    12.000000000000
         H            1.151376061657    -1.675083766995     0.880576975684     1.007825032230
         H            2.389818061657    -0.725091766995    -0.000017024316     1.007825032230
         H            1.151352061657    -1.675105766995    -0.880557024316     1.007825032230

  Basis Set: AUG-CC-PVTZ
    Blend: AUG-CC-PVTZ
  Basis Set: (AUG-CC-PVTZ AUX)
    Blend: AUG-CC-PVTZ-JKFIT
	 Reference Energy          =    -549.9777389766833267 [Eh]
	 Singles Energy            =      -0.0000000000000000 [Eh]
	 Same-Spin Energy          =      -0.2127494349061184 [Eh]
	 Opposite-Spin Energy      =      -0.6467867166081871 [Eh]
	 Correlation Energy        =      -0.8595361515143055 [Eh]
	 Total Energy              =    -550.8372751281976889 [Eh]

	 ================> DF-SCS-MP2 Energies <==================
	-----------------------------------------------------------
	 SCS Same-Spin Scale       =       0.3333333333333333 [-]
	 SCS Opposite-Spin Scale   =       1.2000000000000000 [-]
	 SCS Same-Spin Energy      =      -0.0709164783020395 [Eh]
	 SCS Opposite-Spin Energy  =      -0.7761440599298245 [Eh]
	 SCS Correlation Energy    =      -0.8470605382318640 [Eh]
	 SCS Total Energy          =    -550.8247995149151848 [Eh]
	-----------------------------------------------------------

  Dipole Moment: [D]
     X:     1.9653      Y:    -2.2823      Z:     0.0000     Total:     3.0119

*** Psi4 exiting successfully. Buy a developer a beer!
