                               Psi4 1.3.2 release

  ==> Input File <==

--------------------------------------------------------------------------
#psi4
#
memory 32 gb

molecule  {
-1 1
  S       -1.3434220    -0.1276070     0.0000000
  O        0.8812441     1.3485187    -0.0000000
  C        1.2796100    -1.0089470     0.0000000
  C        0.3525050     0.2195930    -0.0000010
  H        1.0855710    -1.6283600     0.8805770
  H        2.3240130    -0.6783680    -0.0000170
  H        1.0855470    -1.6283820    -0.8805570
units angstrom
no_reorient  #important for SAPT in psi4, default
symmetry c1  #important for SAPT in psi4, default
}

set PROPERTIES_ORIGIN ["COM"]
properties('MP2/aug-cc-pvtz', properties = ['dipole'])
--------------------------------------------------------------------------

    Molecular point group: c1
  Charge       = -1
  Multiplicity = 1
  Basis Set: AUG-CC-PVTZ
    Blend: AUG-CC-PVTZ
  Basis Set: (AUG-CC-PVTZ AUX)
    Blend: AUG-CC-PVTZ-JKFIT

    Orbital Energies [Eh]
    ---------------------

    Doubly Occupied:

       1A    -91.696823     2A    -20.345008     3A    -11.160265
       4A    -11.070935     5A     -8.699437     6A     -6.381000
       7A     -6.379481     8A     -6.379060     9A     -1.170841
      10A     -0.841833    11A     -0.731259    12A     -0.524917
      13A     -0.426255    14A     -0.425692    15A     -0.423803
      16A     -0.343878    17A     -0.317966    18A     -0.205795
      19A     -0.135595    20A     -0.126742

  @DF-RHF Final Energy:  -549.98590376541119

   => Energetics <=

    Nuclear Repulsion Energy =            142.8058176334582186
    One-Electron Energy =               -1050.0102736598919364
    Two-Electron Energy =                 357.2185522610225235
    Total Energy =                       -549.9859037654111944
  Basis Set: (AUG-CC-PVTZ AUX)
    Blend: AUG-CC-PVTZ-RI
    Molecular point group: c1

    Geometry (in Angstrom), charge = -1, multiplicity = 1:

       Center              X                  Y                   Z               Mass
    ------------   -----------------  -----------------  -----------------  -----------------
         S           -1.280202304301    -0.181632951732     0.000000119702    31.972071174400
         O            0.944463795699     1.294492748268     0.000000119702    15.994914619570
         C            1.342829695699    -1.062972951732     0.000000119702    12.000000000000
         C            0.415724695699     0.165567048268    -0.000000880298    12.000000000000
         H            1.148790695699    -1.682385951732     0.880577119702     1.007825032230
         H            2.387232695699    -0.732393951732    -0.000016880298     1.007825032230
         H            1.148766695699    -1.682407951732    -0.880556880298     1.007825032230

  Basis Set: AUG-CC-PVTZ
    Blend: AUG-CC-PVTZ
  Basis Set: (AUG-CC-PVTZ AUX)
    Blend: AUG-CC-PVTZ-JKFIT
	 Reference Energy          =    -549.9859037654111944 [Eh]
	 Singles Energy            =      -0.0000000000000000 [Eh]
	 Same-Spin Energy          =      -0.2111031960671230 [Eh]
	 Opposite-Spin Energy      =      -0.6439013104352731 [Eh]
	 Correlation Energy        =      -0.8550045065023961 [Eh]
	 Total Energy              =    -550.8409082719135768 [Eh]

	 ================> DF-SCS-MP2 Energies <==================
	-----------------------------------------------------------
	 SCS Same-Spin Scale       =       0.3333333333333333 [-]
	 SCS Opposite-Spin Scale   =       1.2000000000000000 [-]
	 SCS Same-Spin Energy      =      -0.0703677320223743 [Eh]
	 SCS Opposite-Spin Energy  =      -0.7726815725223277 [Eh]
	 SCS Correlation Energy    =      -0.8430493045447021 [Eh]
	 SCS Total Energy          =    -550.8289530699559009 [Eh]
	-----------------------------------------------------------

  Dipole Moment: [D]
     X:     2.5534      Y:    -2.0200      Z:     0.0000     Total:     3.2558

*** Psi4 exiting successfully. Buy a developer a beer!
