                               Psi4 1.3.2 release

  ==> Input File <==

--------------------------------------------------------------------------
#psi4
#
memory 32 gb

molecule  {
-1 1
  S       -1.3434220    -0.1276070     0.0000000
  O        0.9008660     1.3391190     0.0000000
  C        1.2796100    -1.0089470     0.0000000
  C        0.2291664     0.1159541     0.0000017
  H        1.0855710    -1.6283600     0.8805770
  H        2.3240130    -0.6783680    -0.0000170
  H        1.0855470    -1.6283820    -0.8805570
units angstrom
no_reorient  #important for SAPT in psi4, default
symmetry c1  #important for SAPT in psi4, default
}

set PROPERTIES_ORIGIN ["COM"]
properties('MP2/aug-cc-pvtz', properties = ['dipole'])
--------------------------------------------------------------------------

    Molecular point group: c1
  Charge       = -1
  Multiplicity = 1
  Basis Set: AUG-CC-PVTZ
    Blend: AUG-CC-PVTZ
  Basis Set: (AUG-CC-PVTZ AUX)
    Blend: AUG-CC-PVTZ-JKFIT

    Orbital Energies [Eh]
    ---------------------

    Doubly Occupied:

       1A    -91.713534     2A    -20.309970     3A    -11.157085
       4A    -11.069280     5A     -8.720208     6A     -6.402166
       7A     -6.400213     8A     -6.399509     9A     -1.070714
      10A     -0.853909    11A     -0.770848    12A     -0.507477
      13A     -0.420095    14A     -0.419736    15A     -0.378886
      16A     -0.324982    17A     -0.274376    18A     -0.202063
      19A     -0.150879    20A     -0.141941

  @DF-RHF Final Energy:  -549.94408657240569

   => Energetics <=

    Nuclear Repulsion Energy =            143.1890334820892292
    One-Electron Energy =               -1050.8904914337811078
    Two-Electron Energy =                 357.7573713792860985
    Total Energy =                       -549.9440865724056948
  Basis Set: (AUG-CC-PVTZ AUX)
    Blend: AUG-CC-PVTZ-RI
    Molecular point group: c1

    Geometry (in Angstrom), charge = -1, multiplicity = 1:

       Center              X                  Y                   Z               Mass
    ------------   -----------------  -----------------  -----------------  -----------------
         S           -1.264650825207    -0.163043731418    -0.000000312353    31.972071174400
         O            0.979637174793     1.303682268582    -0.000000312353    15.994914619570
         C            1.358381174793    -1.044383731418    -0.000000312353    12.000000000000
         C            0.307937574793     0.080517368582     0.000001387647    12.000000000000
         H            1.164342174793    -1.663796731418     0.880576687647     1.007825032230
         H            2.402784174793    -0.713804731418    -0.000017312353     1.007825032230
         H            1.164318174793    -1.663818731418    -0.880557312353     1.007825032230

  Basis Set: AUG-CC-PVTZ
    Blend: AUG-CC-PVTZ
  Basis Set: (AUG-CC-PVTZ AUX)
    Blend: AUG-CC-PVTZ-JKFIT
	 Reference Energy          =    -549.9440865724056948 [Eh]
	 Singles Energy            =      -0.0000000000000000 [Eh]
	 Same-Spin Energy          =      -0.2161670109088394 [Eh]
	 Opposite-Spin Energy      =      -0.6528065299232246 [Eh]
	 Correlation Energy        =      -0.8689735408320640 [Eh]
	 Total Energy              =    -550.8130601132377251 [Eh]

	 ================> DF-SCS-MP2 Energies <==================
	-----------------------------------------------------------
	 SCS Same-Spin Scale       =       0.3333333333333333 [-]
	 SCS Opposite-Spin Scale   =       1.2000000000000000 [-]
	 SCS Same-Spin Energy      =      -0.0720556703029464 [Eh]
	 SCS Opposite-Spin Energy  =      -0.7833678359078695 [Eh]
	 SCS Correlation Energy    =      -0.8554235062108160 [Eh]
	 SCS Total Energy          =    -550.7995100786165494 [Eh]
	-----------------------------------------------------------

  Dipole Moment: [D]
     X:     0.9503      Y:    -2.8108      Z:    -0.0000     Total:     2.9671

*** Psi4 exiting successfully. Buy a developer a beer!
