                               Psi4 1.3.2 release

  ==> Input File <==

--------------------------------------------------------------------------
#psi4
#
memory 32 gb

molecule  {
-1 1
  S       -1.3704238     0.0515676     0.0000003
  O        0.9008660     1.3391190     0.0000000
  C        1.2796100    -1.0089470     0.0000000
  C        0.3525050     0.2195930    -0.0000010
  H        1.0855710    -1.6283600     0.8805770
  H        2.3240130    -0.6783680    -0.0000170
  H        1.0855470    -1.6283820    -0.8805570
units angstrom
no_reorient  #important for SAPT in psi4, default
symmetry c1  #important for SAPT in psi4, default
}

set PROPERTIES_ORIGIN ["COM"]
properties('MP2/aug-cc-pvtz', properties = ['dipole'])
--------------------------------------------------------------------------

    Molecular point group: c1
  Charge       = -1
  Multiplicity = 1
  Basis Set: AUG-CC-PVTZ
    Blend: AUG-CC-PVTZ
  Basis Set: (AUG-CC-PVTZ AUX)
    Blend: AUG-CC-PVTZ-JKFIT

    Orbital Energies [Eh]
    ---------------------

    Doubly Occupied:

       1A    -91.695780     2A    -20.340531     3A    -11.158929
       4A    -11.075704     5A     -8.698242     6A     -6.379805
       7A     -6.378262     8A     -6.377855     9A     -1.169500
      10A     -0.839806    11A     -0.732902    12A     -0.525463
      13A     -0.428829    14A     -0.428424    15A     -0.423531
      16A     -0.341299    17A     -0.316947    18A     -0.206485
      19A     -0.132680    20A     -0.124643

  @DF-RHF Final Energy:  -549.98432427866305

   => Energetics <=

    Nuclear Repulsion Energy =            142.6507259084608279
    One-Electron Energy =               -1049.7188674930323486
    Two-Electron Energy =                 357.0838173059084397
    Total Energy =                       -549.9843242786630526
  Basis Set: (AUG-CC-PVTZ AUX)
    Blend: AUG-CC-PVTZ-RI
    Molecular point group: c1

    Geometry (in Angstrom), charge = -1, multiplicity = 1:

       Center              X                  Y                   Z               Mass
    ------------   -----------------  -----------------  -----------------  -----------------
         S           -1.299877134314    -0.076844288272     0.000000291798    31.972071174400
         O            0.971412665686     1.210707111728    -0.000000008202    15.994914619570
         C            1.350156665686    -1.137358888272    -0.000000008202    12.000000000000
         C            0.423051665686     0.091181111728    -0.000001008202    12.000000000000
         H            1.156117665686    -1.756771888272     0.880576991798     1.007825032230
         H            2.394559665686    -0.806779888272    -0.000017008202     1.007825032230
         H            1.156093665686    -1.756793888272    -0.880557008202     1.007825032230

  Basis Set: AUG-CC-PVTZ
    Blend: AUG-CC-PVTZ
  Basis Set: (AUG-CC-PVTZ AUX)
    Blend: AUG-CC-PVTZ-JKFIT
	 Reference Energy          =    -549.9843242786630526 [Eh]
	 Singles Energy            =      -0.0000000000000000 [Eh]
	 Same-Spin Energy          =      -0.2108504513409317 [Eh]
	 Opposite-Spin Energy      =      -0.6435657478374398 [Eh]
	 Correlation Energy        =      -0.8544161991783714 [Eh]
	 Total Energy              =    -550.8387404778413838 [Eh]

	 ================> DF-SCS-MP2 Energies <==================
	-----------------------------------------------------------
	 SCS Same-Spin Scale       =       0.3333333333333333 [-]
	 SCS Opposite-Spin Scale   =       1.2000000000000000 [-]
	 SCS Same-Spin Energy      =      -0.0702834837803105 [Eh]
	 SCS Opposite-Spin Energy  =      -0.7722788974049277 [Eh]
	 SCS Correlation Energy    =      -0.8425623811852383 [Eh]
	 SCS Total Energy          =    -550.8268866598482418 [Eh]
	-----------------------------------------------------------

  Dipole Moment: [D]
     X:     2.6548      Y:    -2.1435      Z:     0.0000     Total:     3.4121

*** Psi4 exiting successfully. Buy a developer a beer!
