                               Psi4 1.3.2 release

  ==> Input File <==

--------------------------------------------------------------------------
#psi4
#
memory 32 gb

molecule  {
-1 1
  S       -1.3492232    -0.0979561    -0.0000000
  O        0.9008660     1.3391190     0.0000000
  C        1.2796100    -1.0089470     0.0000000
  C        0.3525050     0.2195930    -0.0000010
  H        1.0855710    -1.6283600     0.8805770
  H        2.3240130    -0.6783680    -0.0000170
  H        1.0855470    -1.6283820    -0.8805570
units angstrom
no_reorient  #important for SAPT in psi4, default
symmetry c1  #important for SAPT in psi4, default
}

set PROPERTIES_ORIGIN ["COM"]
properties('MP2/aug-cc-pvtz', properties = ['dipole'])
--------------------------------------------------------------------------

    Molecular point group: c1
  Charge       = -1
  Multiplicity = 1
  Basis Set: AUG-CC-PVTZ
    Blend: AUG-CC-PVTZ
  Basis Set: (AUG-CC-PVTZ AUX)
    Blend: AUG-CC-PVTZ-JKFIT

    Orbital Energies [Eh]
    ---------------------

    Doubly Occupied:

       1A    -91.697476     2A    -20.344242     3A    -11.160002
       4A    -11.070743     5A     -8.700026     6A     -6.381590
       7A     -6.380066     8A     -6.379646     9A     -1.170737
      10A     -0.840715    11A     -0.732043    12A     -0.524878
      13A     -0.426152    14A     -0.425434    15A     -0.423709
      16A     -0.343267    17A     -0.317546    18A     -0.205995
      19A     -0.135849    20A     -0.127243

  @DF-RHF Final Energy:  -549.98601185597124

   => Energetics <=

    Nuclear Repulsion Energy =            142.7407726401224011
    One-Electron Energy =               -1049.8788515644007475
    Two-Electron Energy =                 357.1520670683071899
    Total Energy =                       -549.9860118559711282
  Basis Set: (AUG-CC-PVTZ AUX)
    Blend: AUG-CC-PVTZ-RI
    Molecular point group: c1

    Geometry (in Angstrom), charge = -1, multiplicity = 1:

       Center              X                  Y                   Z               Mass
    ------------   -----------------  -----------------  -----------------  -----------------
         S           -1.287715378510    -0.162618781748     0.000000119702    31.972071174400
         O            0.962373821490     1.274456318252     0.000000119702    15.994914619570
         C            1.341117821490    -1.073609681748     0.000000119702    12.000000000000
         C            0.414012821490     0.154930318252    -0.000000880298    12.000000000000
         H            1.147078821490    -1.693022681748     0.880577119702     1.007825032230
         H            2.385520821490    -0.743030681748    -0.000016880298     1.007825032230
         H            1.147054821490    -1.693044681748    -0.880556880298     1.007825032230

  Basis Set: AUG-CC-PVTZ
    Blend: AUG-CC-PVTZ
  Basis Set: (AUG-CC-PVTZ AUX)
    Blend: AUG-CC-PVTZ-JKFIT
	 Reference Energy          =    -549.9860118559712419 [Eh]
	 Singles Energy            =      -0.0000000000000000 [Eh]
	 Same-Spin Energy          =      -0.2110463261513408 [Eh]
	 Opposite-Spin Energy      =      -0.6438331016503338 [Eh]
	 Correlation Energy        =      -0.8548794278016746 [Eh]
	 Total Energy              =    -550.8408912837728622 [Eh]

	 ================> DF-SCS-MP2 Energies <==================
	-----------------------------------------------------------
	 SCS Same-Spin Scale       =       0.3333333333333333 [-]
	 SCS Opposite-Spin Scale   =       1.2000000000000000 [-]
	 SCS Same-Spin Energy      =      -0.0703487753837803 [Eh]
	 SCS Opposite-Spin Energy  =      -0.7725997219804005 [Eh]
	 SCS Correlation Energy    =      -0.8429484973641808 [Eh]
	 SCS Total Energy          =    -550.8289603533354466 [Eh]
	-----------------------------------------------------------

  Dipole Moment: [D]
     X:     2.5280      Y:    -2.0358      Z:     0.0000     Total:     3.2458

*** Psi4 exiting successfully. Buy a developer a beer!
