                               Psi4 1.3.2 release

  ==> Input File <==

--------------------------------------------------------------------------
#psi4
#
memory 32 gb

molecule  {
-1 1
  S       -1.3434220    -0.1276070     0.0000000
  O        0.9008660     1.3391190     0.0000000
  C        1.2796100    -1.0089470     0.0000000
  C        0.5484410     0.2597062    -0.0000011
  H        1.0855710    -1.6283600     0.8805770
  H        2.3240130    -0.6783680    -0.0000170
  H        1.0855470    -1.6283820    -0.8805570
units angstrom
no_reorient  #important for SAPT in psi4, default
symmetry c1  #important for SAPT in psi4, default
}

set PROPERTIES_ORIGIN ["COM"]
properties('MP2/aug-cc-pvtz', properties = ['dipole'])
--------------------------------------------------------------------------

    Molecular point group: c1
  Charge       = -1
  Multiplicity = 1
  Basis Set: AUG-CC-PVTZ
    Blend: AUG-CC-PVTZ
  Basis Set: (AUG-CC-PVTZ AUX)
    Blend: AUG-CC-PVTZ-JKFIT

    Orbital Energies [Eh]
    ---------------------

    Doubly Occupied:

       1A    -91.677732     2A    -20.380841     3A    -11.164249
       4A    -11.081041     5A     -8.677427     6A     -6.358582
       7A     -6.357369     8A     -6.357168     9A     -1.272367
      10A     -0.866931    11A     -0.676277    12A     -0.558572
      13A     -0.484487    14A     -0.454568    15A     -0.440773
      16A     -0.377436    17A     -0.368216    18A     -0.168878
      19A     -0.111025    20A     -0.105219

  @DF-RHF Final Energy:  -549.96002002956868

   => Energetics <=

    Nuclear Repulsion Energy =            142.5112557238290094
    One-Electron Energy =               -1049.0642394469823557
    Two-Electron Energy =                 356.5929636935847498
    Total Energy =                       -549.9600200295685681
  Basis Set: (AUG-CC-PVTZ AUX)
    Blend: AUG-CC-PVTZ-RI
    Molecular point group: c1

    Geometry (in Angstrom), charge = -1, multiplicity = 1:

       Center              X                  Y                   Z               Mass
    ------------   -----------------  -----------------  -----------------  -----------------
         S           -1.315741259303    -0.186046993160     0.000000135704    31.972071174400
         O            0.928546740697     1.280679006840     0.000000135704    15.994914619570
         C            1.307290740697    -1.067386993160     0.000000135704    12.000000000000
         C            0.576121740697     0.201266206840    -0.000000964296    12.000000000000
         H            1.113251740697    -1.686799993160     0.880577135704     1.007825032230
         H            2.351693740697    -0.736807993160    -0.000016864296     1.007825032230
         H            1.113227740697    -1.686821993160    -0.880556864296     1.007825032230

  Basis Set: AUG-CC-PVTZ
    Blend: AUG-CC-PVTZ
  Basis Set: (AUG-CC-PVTZ AUX)
    Blend: AUG-CC-PVTZ-JKFIT
	 Reference Energy          =    -549.9600200295686818 [Eh]
	 Singles Energy            =      -0.0000000000000000 [Eh]
	 Same-Spin Energy          =      -0.2085429124432976 [Eh]
	 Opposite-Spin Energy      =      -0.6395523268845833 [Eh]
	 Correlation Energy        =      -0.8480952393278809 [Eh]
	 Total Energy              =    -550.8081152688965858 [Eh]

	 ================> DF-SCS-MP2 Energies <==================
	-----------------------------------------------------------
	 SCS Same-Spin Scale       =       0.3333333333333333 [-]
	 SCS Opposite-Spin Scale   =       1.2000000000000000 [-]
	 SCS Same-Spin Energy      =      -0.0695143041477659 [Eh]
	 SCS Opposite-Spin Energy  =      -0.7674627922614999 [Eh]
	 SCS Correlation Energy    =      -0.8369770964092658 [Eh]
	 SCS Total Energy          =    -550.7969971259778958 [Eh]
	-----------------------------------------------------------

  Dipole Moment: [D]
     X:     4.7340      Y:    -1.4153      Z:     0.0000     Total:     4.9410

*** Psi4 exiting successfully. Buy a developer a beer!
