                               Psi4 1.4a3.dev225

  ==> Input File <==

--------------------------------------------------------------------------
#psi4
#
memory 32 gb

molecule  {
-1 1
  S       -1.3434220    -0.1276070     0.0000000
  O        0.9008660     1.3391190     0.0000000
  C        1.2796100    -1.0089470     0.0000000
  C        0.3744991     0.2644958    -0.0000010
  H        1.0855710    -1.6283600     0.8805770
  H        2.3240130    -0.6783680    -0.0000170
  H        1.0855470    -1.6283820    -0.8805570
units angstrom
no_reorient  #important for SAPT in psi4, default
symmetry c1  #important for SAPT in psi4, default
}

set PROPERTIES_ORIGIN ["COM"]
properties('MP2/aug-cc-pvtz', properties = ['dipole'])
--------------------------------------------------------------------------

    Molecular point group: c1
  Charge       = -1
  Multiplicity = 1
  Basis Set: AUG-CC-PVTZ
    Blend: AUG-CC-PVTZ
  Basis Set: (AUG-CC-PVTZ AUX)
    Blend: AUG-CC-PVTZ-JKFIT

    Orbital Energies [Eh]
    ---------------------

    Doubly Occupied:

       1A    -91.693541     2A    -20.354587     3A    -11.158976
       4A    -11.068485     5A     -8.695563     6A     -6.377061
       7A     -6.375573     8A     -6.375212     9A     -1.209809
      10A     -0.833747    11A     -0.721898    12A     -0.530474
      13A     -0.440302    14A     -0.426198    15A     -0.422175
      16A     -0.354028    17A     -0.337941    18A     -0.198112
      19A     -0.132528    20A     -0.123162

  @DF-RHF Final Energy:  -549.98703071895272

   => Energetics <=

    Nuclear Repulsion Energy =            142.8879321278852217
    One-Electron Energy =               -1050.0911866626579467
    Two-Electron Energy =                 357.2162238158200012
    Total Energy =                       -549.9870307189526102
  Basis Set: (AUG-CC-PVTZ AUX)
    Blend: AUG-CC-PVTZ-RI
    Molecular point group: c1

    Geometry (in Angstrom), charge = -1, multiplicity = 1:

       Center              X                  Y                   Z               Mass
    ------------   -----------------  -----------------  -----------------  -----------------
         S           -1.287907015118    -0.186813426641     0.000000119702    31.972071174400
         O            0.956380984882     1.279912573359     0.000000119702    15.994914619570
         C            1.335124984882    -1.068153426641     0.000000119702    12.000000000000
         C            0.430014084882     0.205289373359    -0.000000880298    12.000000000000
         H            1.141085984882    -1.687566426641     0.880577119702     1.007825032230
         H            2.379527984882    -0.737574426641    -0.000016880298     1.007825032230
         H            1.141061984882    -1.687588426641    -0.880556880298     1.007825032230

  Basis Set: AUG-CC-PVTZ
    Blend: AUG-CC-PVTZ
  Basis Set: (AUG-CC-PVTZ AUX)
    Blend: AUG-CC-PVTZ-JKFIT
	 Reference Energy          =    -549.9870307189527239 [Eh]
	 Singles Energy            =      -0.0000000000000000 [Eh]
	 Same-Spin Energy          =      -0.2096654794548587 [Eh]
	 Opposite-Spin Energy      =      -0.6413011422107402 [Eh]
	 Correlation Energy        =      -0.8509666216655989 [Eh]
	 Total Energy              =    -550.8379973406183581 [Eh]

	 ================> DF-SCS-MP2 Energies <==================
	-----------------------------------------------------------
	 SCS Same-Spin Scale       =       0.3333333333333333 [-]
	 SCS Opposite-Spin Scale   =       1.2000000000000000 [-]
	 SCS Same-Spin Energy      =      -0.0698884931516196 [Eh]
	 SCS Opposite-Spin Energy  =      -0.7695613706528882 [Eh]
	 SCS Correlation Energy    =      -0.8394498638045078 [Eh]
	 SCS Total Energy          =    -550.8264805827571990 [Eh]
	-----------------------------------------------------------

  Dipole Moment: [D]
     X:     2.8739      Y:    -1.6929      Z:     0.0000     Total:     3.3354

*** Psi4 exiting successfully. Buy a developer a beer!
