                               Psi4 1.3.2 release

  ==> Input File <==

--------------------------------------------------------------------------
#psi4
#
memory 32 gb

molecule  {
-1 1
  S       -1.3434220    -0.1276070     0.0000000
  O        1.0148844     1.2756668     0.0000001
  C        1.2796100    -1.0089470     0.0000000
  C        0.3525050     0.2195930    -0.0000010
  H        1.0855710    -1.6283600     0.8805770
  H        2.3240130    -0.6783680    -0.0000170
  H        1.0855470    -1.6283820    -0.8805570
units angstrom
no_reorient  #important for SAPT in psi4, default
symmetry c1  #important for SAPT in psi4, default
}

set PROPERTIES_ORIGIN ["COM"]
properties('MP2/aug-cc-pvtz', properties = ['dipole'])
--------------------------------------------------------------------------

    Molecular point group: c1
  Charge       = -1
  Multiplicity = 1
  Basis Set: AUG-CC-PVTZ
    Blend: AUG-CC-PVTZ
  Basis Set: (AUG-CC-PVTZ AUX)
    Blend: AUG-CC-PVTZ-JKFIT

    Orbital Energies [Eh]
    ---------------------

    Doubly Occupied:

       1A    -91.703486     2A    -20.344605     3A    -11.159909
       4A    -11.062463     5A     -8.705799     6A     -6.387372
       7A     -6.385812     8A     -6.385383     9A     -1.172616
      10A     -0.835852    11A     -0.734233    12A     -0.524327
      13A     -0.424312    14A     -0.422048    15A     -0.418736
      16A     -0.342026    17A     -0.315764    18A     -0.205505
      19A     -0.141295    20A     -0.131673

  @DF-RHF Final Energy:  -549.98234904693766

   => Energetics <=

    Nuclear Repulsion Energy =            142.7046458829166511
    One-Electron Energy =               -1049.7675527991675608
    Two-Electron Energy =                 357.0805578693131679
    Total Energy =                       -549.9823490469377703
  Basis Set: (AUG-CC-PVTZ AUX)
    Blend: AUG-CC-PVTZ-RI
    Molecular point group: c1

    Geometry (in Angstrom), charge = -1, multiplicity = 1:

       Center              X                  Y                   Z               Mass
    ------------   -----------------  -----------------  -----------------  -----------------
         S           -1.308706798911    -0.166094176446     0.000000098373    31.972071174400
         O            1.049599601089     1.237179623554     0.000000198373    15.994914619570
         C            1.314325201089    -1.047434176446     0.000000098373    12.000000000000
         C            0.387220201089     0.181105823554    -0.000000901627    12.000000000000
         H            1.120286201089    -1.666847176446     0.880577098373     1.007825032230
         H            2.358728201089    -0.716855176446    -0.000016901627     1.007825032230
         H            1.120262201089    -1.666869176446    -0.880556901627     1.007825032230

  Basis Set: AUG-CC-PVTZ
    Blend: AUG-CC-PVTZ
  Basis Set: (AUG-CC-PVTZ AUX)
    Blend: AUG-CC-PVTZ-JKFIT
	 Reference Energy          =    -549.9823490469376566 [Eh]
	 Singles Energy            =      -0.0000000000000000 [Eh]
	 Same-Spin Energy          =      -0.2112181345666964 [Eh]
	 Opposite-Spin Energy      =      -0.6442875917115404 [Eh]
	 Correlation Energy        =      -0.8555057262782368 [Eh]
	 Total Energy              =    -550.8378547732158950 [Eh]

	 ================> DF-SCS-MP2 Energies <==================
	-----------------------------------------------------------
	 SCS Same-Spin Scale       =       0.3333333333333333 [-]
	 SCS Opposite-Spin Scale   =       1.2000000000000000 [-]
	 SCS Same-Spin Energy      =      -0.0704060448555655 [Eh]
	 SCS Opposite-Spin Energy  =      -0.7731451100538484 [Eh]
	 SCS Correlation Energy    =      -0.8435511549094139 [Eh]
	 SCS Total Energy          =    -550.8259002018470483 [Eh]
	-----------------------------------------------------------

  Dipole Moment: [D]
     X:     2.2196      Y:    -1.9579      Z:     0.0000     Total:     2.9597

*** Psi4 exiting successfully. Buy a developer a beer!
