                               Psi4 1.3.2 release

  ==> Input File <==

--------------------------------------------------------------------------
#psi4
#
memory 32 gb

molecule  {
-1 1
  S       -1.3434220    -0.1276070     0.0000000
  O        0.9008660     1.3391190     0.0000000
  C        1.2796100    -1.0089470     0.0000000
  C        0.3085168     0.1297874    -0.0000011
  H        1.0855710    -1.6283600     0.8805770
  H        2.3240130    -0.6783680    -0.0000170
  H        1.0855470    -1.6283820    -0.8805570
units angstrom
no_reorient  #important for SAPT in psi4, default
symmetry c1  #important for SAPT in psi4, default
}

set PROPERTIES_ORIGIN ["COM"]
properties('MP2/aug-cc-pvtz', properties = ['dipole'])
--------------------------------------------------------------------------

    Molecular point group: c1
  Charge       = -1
  Multiplicity = 1
  Basis Set: AUG-CC-PVTZ
    Blend: AUG-CC-PVTZ
  Basis Set: (AUG-CC-PVTZ AUX)
    Blend: AUG-CC-PVTZ-JKFIT

    Orbital Energies [Eh]
    ---------------------

    Doubly Occupied:

       1A    -91.706747     2A    -20.325439     3A    -11.161038
       4A    -11.071401     5A     -8.710589     6A     -6.392275
       7A     -6.390665     8A     -6.390106     9A     -1.103600
      10A     -0.854674    11A     -0.751655    12A     -0.519809
      13A     -0.428439    14A     -0.428068    15A     -0.394108
      16A     -0.325870    17A     -0.282998    18A     -0.212129
      19A     -0.143166    20A     -0.135030

  @DF-RHF Final Energy:  -549.96570593263448

   => Energetics <=

    Nuclear Repulsion Energy =            142.7351973132375633
    One-Electron Energy =               -1049.9461926273593235
    Two-Electron Energy =                 357.2452893814872823
    Total Energy =                       -549.9657059326344779
  Basis Set: (AUG-CC-PVTZ AUX)
    Blend: AUG-CC-PVTZ-RI
    Molecular point group: c1

    Geometry (in Angstrom), charge = -1, multiplicity = 1:

       Center              X                  Y                   Z               Mass
    ------------   -----------------  -----------------  -----------------  -----------------
         S           -1.277348504201    -0.165257340963     0.000000135704    31.972071174400
         O            0.966939495799     1.301468659037     0.000000135704    15.994914619570
         C            1.345683495799    -1.046597340963     0.000000135704    12.000000000000
         C            0.374590295799     0.092137059037    -0.000000964296    12.000000000000
         H            1.151644495799    -1.666010340963     0.880577135704     1.007825032230
         H            2.390086495799    -0.716018340963    -0.000016864296     1.007825032230
         H            1.151620495799    -1.666032340963    -0.880556864296     1.007825032230

  Basis Set: AUG-CC-PVTZ
    Blend: AUG-CC-PVTZ
  Basis Set: (AUG-CC-PVTZ AUX)
    Blend: AUG-CC-PVTZ-JKFIT
	 Reference Energy          =    -549.9657059326344779 [Eh]
	 Singles Energy            =      -0.0000000000000000 [Eh]
	 Same-Spin Energy          =      -0.2142651375716822 [Eh]
	 Opposite-Spin Energy      =      -0.6496013254320165 [Eh]
	 Correlation Energy        =      -0.8638664630036987 [Eh]
	 Total Energy              =    -550.8295723956381380 [Eh]

	 ================> DF-SCS-MP2 Energies <==================
	-----------------------------------------------------------
	 SCS Same-Spin Scale       =       0.3333333333333333 [-]
	 SCS Opposite-Spin Scale   =       1.2000000000000000 [-]
	 SCS Same-Spin Energy      =      -0.0714217125238941 [Eh]
	 SCS Opposite-Spin Energy  =      -0.7795215905184198 [Eh]
	 SCS Correlation Energy    =      -0.8509433030423139 [Eh]
	 SCS Total Energy          =    -550.8166492356767776 [Eh]
	-----------------------------------------------------------

  Dipole Moment: [D]
     X:     1.7912      Y:    -2.5797      Z:     0.0000     Total:     3.1406

*** Psi4 exiting successfully. Buy a developer a beer!
