                               Psi4 1.3.2 release

  ==> Input File <==

--------------------------------------------------------------------------
#psi4
#
memory 32 gb

molecule  {
-1 1
  S       -1.3434220    -0.1276070     0.0000000
  O        0.9008660     1.3391190     0.0000000
  C        1.2796100    -1.0089470     0.0000000
  C        0.2690648     0.1519288     0.0000008
  H        1.0855710    -1.6283600     0.8805770
  H        2.3240130    -0.6783680    -0.0000170
  H        1.0855470    -1.6283820    -0.8805570
units angstrom
no_reorient  #important for SAPT in psi4, default
symmetry c1  #important for SAPT in psi4, default
}

set PROPERTIES_ORIGIN ["COM"]
properties('MP2/aug-cc-pvtz', properties = ['dipole'])
--------------------------------------------------------------------------

    Molecular point group: c1
  Charge       = -1
  Multiplicity = 1
  Basis Set: AUG-CC-PVTZ
    Blend: AUG-CC-PVTZ
  Basis Set: (AUG-CC-PVTZ AUX)
    Blend: AUG-CC-PVTZ-JKFIT

    Orbital Energies [Eh]
    ---------------------

    Doubly Occupied:

       1A    -91.708301     2A    -20.321933     3A    -11.159296
       4A    -11.069248     5A     -8.713391     6A     -6.395206
       7A     -6.393440     8A     -6.392837     9A     -1.101435
      10A     -0.847867    11A     -0.759472    12A     -0.511997
      13A     -0.421903    14A     -0.421281    15A     -0.390053
      16A     -0.330864    17A     -0.285485    18A     -0.207662
      19A     -0.147224    20A     -0.138096

  @DF-RHF Final Energy:  -549.96352658961473

   => Energetics <=

    Nuclear Repulsion Energy =            142.9884315599320530
    One-Electron Energy =               -1050.4699324048006019
    Two-Electron Energy =                 357.5179742552538755
    Total Energy =                       -549.9635265896147303
  Basis Set: (AUG-CC-PVTZ AUX)
    Blend: AUG-CC-PVTZ-RI
    Molecular point group: c1

    Geometry (in Angstrom), charge = -1, multiplicity = 1:

       Center              X                  Y                   Z               Mass
    ------------   -----------------  -----------------  -----------------  -----------------
         S           -1.271035381247    -0.168800415600    -0.000000168334    31.972071174400
         O            0.973252618753     1.297925584400    -0.000000168334    15.994914619570
         C            1.351996618753    -1.050140415600    -0.000000168334    12.000000000000
         C            0.341451418753     0.110735384400     0.000000631666    12.000000000000
         H            1.157957618753    -1.669553415600     0.880576831666     1.007825032230
         H            2.396399618753    -0.719561415600    -0.000017168334     1.007825032230
         H            1.157933618753    -1.669575415600    -0.880557168334     1.007825032230

  Basis Set: AUG-CC-PVTZ
    Blend: AUG-CC-PVTZ
  Basis Set: (AUG-CC-PVTZ AUX)
    Blend: AUG-CC-PVTZ-JKFIT
	 Reference Energy          =    -549.9635265896147303 [Eh]
	 Singles Energy            =      -0.0000000000000000 [Eh]
	 Same-Spin Energy          =      -0.2144752707596067 [Eh]
	 Opposite-Spin Energy      =      -0.6498019059957335 [Eh]
	 Correlation Energy        =      -0.8642771767553402 [Eh]
	 Total Energy              =    -550.8278037663700388 [Eh]

	 ================> DF-SCS-MP2 Energies <==================
	-----------------------------------------------------------
	 SCS Same-Spin Scale       =       0.3333333333333333 [-]
	 SCS Opposite-Spin Scale   =       1.2000000000000000 [-]
	 SCS Same-Spin Energy      =      -0.0714917569198689 [Eh]
	 SCS Opposite-Spin Energy  =      -0.7797622871948802 [Eh]
	 SCS Correlation Energy    =      -0.8512540441147490 [Eh]
	 SCS Total Energy          =    -550.8147806337294696 [Eh]
	-----------------------------------------------------------

  Dipole Moment: [D]
     X:     1.4486      Y:    -2.5454      Z:    -0.0000     Total:     2.9287

*** Psi4 exiting successfully. Buy a developer a beer!
