                               Psi4 1.3.2 release

  ==> Input File <==

--------------------------------------------------------------------------
#psi4
#
memory 32 gb

molecule  {
-1 1
  S       -1.3434220    -0.1276070     0.0000000
  O        0.8214360     1.3746436    -0.0000001
  C        1.2796100    -1.0089470     0.0000000
  C        0.3525050     0.2195930    -0.0000010
  H        1.0855710    -1.6283600     0.8805770
  H        2.3240130    -0.6783680    -0.0000170
  H        1.0855470    -1.6283820    -0.8805570
units angstrom
no_reorient  #important for SAPT in psi4, default
symmetry c1  #important for SAPT in psi4, default
}

set PROPERTIES_ORIGIN ["COM"]
properties('MP2/aug-cc-pvtz', properties = ['dipole'])
--------------------------------------------------------------------------

    Molecular point group: c1
  Charge       = -1
  Multiplicity = 1
  Basis Set: AUG-CC-PVTZ
    Blend: AUG-CC-PVTZ
  Basis Set: (AUG-CC-PVTZ AUX)
    Blend: AUG-CC-PVTZ-JKFIT

    Orbital Energies [Eh]
    ---------------------

    Doubly Occupied:

       1A    -91.693890     2A    -20.345024     3A    -11.160452
       4A    -11.074500     5A     -8.696637     6A     -6.378192
       7A     -6.376685     8A     -6.376269     9A     -1.170438
      10A     -0.844276    11A     -0.729745    12A     -0.525295
      13A     -0.428203    14A     -0.428125    15A     -0.424161
      16A     -0.344520    17A     -0.318833    18A     -0.205108
      19A     -0.133003    20A     -0.124086

  @DF-RHF Final Energy:  -549.98487758802776

   => Energetics <=

    Nuclear Repulsion Energy =            142.9189001389417513
    One-Electron Energy =               -1050.2526744929198230
    Two-Electron Energy =                 357.3488967659502009
    Total Energy =                       -549.9848775880277572
  Basis Set: (AUG-CC-PVTZ AUX)
    Blend: AUG-CC-PVTZ-RI
    Molecular point group: c1

    Geometry (in Angstrom), charge = -1, multiplicity = 1:

       Center              X                  Y                   Z               Mass
    ------------   -----------------  -----------------  -----------------  -----------------
         S           -1.267445675769    -0.187205201056     0.000000141031    31.972071174400
         O            0.897412324231     1.315045398944     0.000000041031    15.994914619570
         C            1.355586324231    -1.068545201056     0.000000141031    12.000000000000
         C            0.428481324231     0.159994798944    -0.000000858969    12.000000000000
         H            1.161547324231    -1.687958201056     0.880577141031     1.007825032230
         H            2.399989324231    -0.737966201056    -0.000016858969     1.007825032230
         H            1.161523324231    -1.687980201056    -0.880556858969     1.007825032230

  Basis Set: AUG-CC-PVTZ
    Blend: AUG-CC-PVTZ
  Basis Set: (AUG-CC-PVTZ AUX)
    Blend: AUG-CC-PVTZ-JKFIT
	 Reference Energy          =    -549.9848775880277572 [Eh]
	 Singles Energy            =      -0.0000000000000000 [Eh]
	 Same-Spin Energy          =      -0.2111438956004755 [Eh]
	 Opposite-Spin Energy      =      -0.6439204271153072 [Eh]
	 Correlation Energy        =      -0.8550643227157827 [Eh]
	 Total Energy              =    -550.8399419107435051 [Eh]

	 ================> DF-SCS-MP2 Energies <==================
	-----------------------------------------------------------
	 SCS Same-Spin Scale       =       0.3333333333333333 [-]
	 SCS Opposite-Spin Scale   =       1.2000000000000000 [-]
	 SCS Same-Spin Energy      =      -0.0703812985334918 [Eh]
	 SCS Opposite-Spin Energy  =      -0.7727045125383686 [Eh]
	 SCS Correlation Energy    =      -0.8430858110718604 [Eh]
	 SCS Total Energy          =    -550.8279633990996444 [Eh]
	-----------------------------------------------------------

  Dipole Moment: [D]
     X:     2.7039      Y:    -2.0288      Z:     0.0000     Total:     3.3804

*** Psi4 exiting successfully. Buy a developer a beer!
