                               Psi4 1.3.2 release

  ==> Input File <==

--------------------------------------------------------------------------
#psi4
#
memory 32 gb

molecule  {
-1 1
  S       -1.3434220    -0.1276070     0.0000000
  O        0.9396028     1.3192995     0.0000000
  C        1.2796100    -1.0089470     0.0000000
  C        0.3525050     0.2195930    -0.0000010
  H        1.0855710    -1.6283600     0.8805770
  H        2.3240130    -0.6783680    -0.0000170
  H        1.0855470    -1.6283820    -0.8805570
units angstrom
no_reorient  #important for SAPT in psi4, default
symmetry c1  #important for SAPT in psi4, default
}

set PROPERTIES_ORIGIN ["COM"]
properties('MP2/aug-cc-pvtz', properties = ['dipole'])
--------------------------------------------------------------------------

    Molecular point group: c1
  Charge       = -1
  Multiplicity = 1
  Basis Set: AUG-CC-PVTZ
    Blend: AUG-CC-PVTZ
  Basis Set: (AUG-CC-PVTZ AUX)
    Blend: AUG-CC-PVTZ-JKFIT

    Orbital Energies [Eh]
    ---------------------

    Doubly Occupied:

       1A    -91.699712     2A    -20.344902     3A    -11.160101
       4A    -11.067326     5A     -8.702196     6A     -6.383764
       7A     -6.382229     8A     -6.381805     9A     -1.171455
      10A     -0.839316    11A     -0.732632    12A     -0.524614
      13A     -0.424417    14A     -0.424063    15A     -0.422615
      16A     -0.343132    17A     -0.317062    18A     -0.206034
      19A     -0.138097    20A     -0.129067

  @DF-RHF Final Energy:  -549.98542118456373

   => Energetics <=

    Nuclear Repulsion Energy =            142.7346299382198254
    One-Electron Energy =               -1049.8510303380051027
    Two-Electron Energy =                 357.1309792152215437
    Total Energy =                       -549.9854211845638474
  Basis Set: (AUG-CC-PVTZ AUX)
    Blend: AUG-CC-PVTZ-RI
    Molecular point group: c1

    Geometry (in Angstrom), charge = -1, multiplicity = 1:

       Center              X                  Y                   Z               Mass
    ------------   -----------------  -----------------  -----------------  -----------------
         S           -1.292649786457    -0.175400710942     0.000000119702    31.972071174400
         O            0.990375013543     1.271505789058     0.000000119702    15.994914619570
         C            1.330382213543    -1.056740710942     0.000000119702    12.000000000000
         C            0.403277213543     0.171799289058    -0.000000880298    12.000000000000
         H            1.136343213543    -1.676153710942     0.880577119702     1.007825032230
         H            2.374785213543    -0.726161710942    -0.000016880298     1.007825032230
         H            1.136319213543    -1.676175710942    -0.880556880298     1.007825032230

  Basis Set: AUG-CC-PVTZ
    Blend: AUG-CC-PVTZ
  Basis Set: (AUG-CC-PVTZ AUX)
    Blend: AUG-CC-PVTZ-JKFIT
	 Reference Energy          =    -549.9854211845637337 [Eh]
	 Singles Energy            =      -0.0000000000000000 [Eh]
	 Same-Spin Energy          =      -0.2111152590296620 [Eh]
	 Opposite-Spin Energy      =      -0.6439939673506961 [Eh]
	 Correlation Energy        =      -0.8551092263803581 [Eh]
	 Total Energy              =    -550.8405304109440976 [Eh]

	 ================> DF-SCS-MP2 Energies <==================
	-----------------------------------------------------------
	 SCS Same-Spin Scale       =       0.3333333333333333 [-]
	 SCS Opposite-Spin Scale   =       1.2000000000000000 [-]
	 SCS Same-Spin Energy      =      -0.0703717530098873 [Eh]
	 SCS Opposite-Spin Energy  =      -0.7727927608208354 [Eh]
	 SCS Correlation Energy    =      -0.8431645138307227 [Eh]
	 SCS Total Energy          =    -550.8285856983944768 [Eh]
	-----------------------------------------------------------

  Dipole Moment: [D]
     X:     2.4072      Y:    -2.0004      Z:     0.0000     Total:     3.1299

*** Psi4 exiting successfully. Buy a developer a beer!
