                               Psi4 1.3.2 release

  ==> Input File <==

--------------------------------------------------------------------------
#psi4
#
memory 32 gb

molecule  {
-1 1
  S       -1.3635103    -0.0084594     0.0000002
  O        0.9008660     1.3391190     0.0000000
  C        1.2796100    -1.0089470     0.0000000
  C        0.3525050     0.2195930    -0.0000010
  H        1.0855710    -1.6283600     0.8805770
  H        2.3240130    -0.6783680    -0.0000170
  H        1.0855470    -1.6283820    -0.8805570
units angstrom
no_reorient  #important for SAPT in psi4, default
symmetry c1  #important for SAPT in psi4, default
}

set PROPERTIES_ORIGIN ["COM"]
properties('MP2/aug-cc-pvtz', properties = ['dipole'])
--------------------------------------------------------------------------

    Molecular point group: c1
  Charge       = -1
  Multiplicity = 1
  Basis Set: AUG-CC-PVTZ
    Blend: AUG-CC-PVTZ
  Basis Set: (AUG-CC-PVTZ AUX)
    Blend: AUG-CC-PVTZ-JKFIT

    Orbital Energies [Eh]
    ---------------------

    Doubly Occupied:

       1A    -91.696480     2A    -20.342016     3A    -11.159365
       4A    -11.073735     5A     -8.698975     6A     -6.380539
       7A     -6.379007     8A     -6.378593     9A     -1.169954
      10A     -0.840069    11A     -0.732694    12A     -0.525181
      13A     -0.427740    14A     -0.427221    15A     -0.423641
      16A     -0.342110    17A     -0.317179    18A     -0.206254
      19A     -0.133991    20A     -0.125892

  @DF-RHF Final Energy:  -549.98543333003238

   => Energetics <=

    Nuclear Repulsion Energy =            142.6681547110029555
    One-Electron Energy =               -1049.7459028126725116
    Two-Electron Energy =                 357.0923147716372341
    Total Energy =                       -549.9854333300323788
  Basis Set: (AUG-CC-PVTZ AUX)
    Blend: AUG-CC-PVTZ-RI
    Molecular point group: c1

    Geometry (in Angstrom), charge = -1, multiplicity = 1:

       Center              X                  Y                   Z               Mass
    ------------   -----------------  -----------------  -----------------  -----------------
         S           -1.295911194730    -0.111278866335     0.000000234433    31.972071174400
         O            0.968465105270     1.236299533665     0.000000034433    15.994914619570
         C            1.347209105270    -1.111766466335     0.000000034433    12.000000000000
         C            0.420104105270     0.116773533665    -0.000000965567    12.000000000000
         H            1.153170105270    -1.731179466335     0.880577034433     1.007825032230
         H            2.391612105270    -0.781187466335    -0.000016965567     1.007825032230
         H            1.153146105270    -1.731201466335    -0.880556965567     1.007825032230

  Basis Set: AUG-CC-PVTZ
    Blend: AUG-CC-PVTZ
  Basis Set: (AUG-CC-PVTZ AUX)
    Blend: AUG-CC-PVTZ-JKFIT
	 Reference Energy          =    -549.9854333300323788 [Eh]
	 Singles Energy            =      -0.0000000000000000 [Eh]
	 Same-Spin Energy          =      -0.2109135198804036 [Eh]
	 Opposite-Spin Energy      =      -0.6436397072365481 [Eh]
	 Correlation Energy        =      -0.8545532271169517 [Eh]
	 Total Energy              =    -550.8399865571493592 [Eh]

	 ================> DF-SCS-MP2 Energies <==================
	-----------------------------------------------------------
	 SCS Same-Spin Scale       =       0.3333333333333333 [-]
	 SCS Opposite-Spin Scale   =       1.2000000000000000 [-]
	 SCS Same-Spin Energy      =      -0.0703045066268012 [Eh]
	 SCS Opposite-Spin Energy  =      -0.7723676486838577 [Eh]
	 SCS Correlation Energy    =      -0.8426721553106589 [Eh]
	 SCS Total Energy          =    -550.8281054853430305 [Eh]
	-----------------------------------------------------------

  Dipole Moment: [D]
     X:     2.6025      Y:    -2.1001      Z:     0.0000     Total:     3.3441

*** Psi4 exiting successfully. Buy a developer a beer!
