                               Psi4 1.3.2 release

  ==> Input File <==

--------------------------------------------------------------------------
#psi4
#
memory 32 gb

molecule  {
-1 1
  S       -1.3434220    -0.1276070     0.0000000
  O        0.9008660     1.3391190     0.0000000
  C        1.2796100    -1.0089470     0.0000000
  C        0.3959452     0.2512001    -0.0000019
  H        1.0855710    -1.6283600     0.8805770
  H        2.3240130    -0.6783680    -0.0000170
  H        1.0855470    -1.6283820    -0.8805570
units angstrom
no_reorient  #important for SAPT in psi4, default
symmetry c1  #important for SAPT in psi4, default
}

set PROPERTIES_ORIGIN ["COM"]
properties('MP2/aug-cc-pvtz', properties = ['dipole'])
--------------------------------------------------------------------------

    Molecular point group: c1
  Charge       = -1
  Multiplicity = 1
  Basis Set: AUG-CC-PVTZ
    Blend: AUG-CC-PVTZ
  Basis Set: (AUG-CC-PVTZ AUX)
    Blend: AUG-CC-PVTZ-JKFIT

    Orbital Energies [Eh]
    ---------------------

    Doubly Occupied:

       1A    -91.692416     2A    -20.355893     3A    -11.159557
       4A    -11.070445     5A     -8.694045     6A     -6.375496
       7A     -6.374056     8A     -6.373710     9A     -1.208975
      10A     -0.839695    11A     -0.716902    12A     -0.533156
      13A     -0.442647    14A     -0.429701    15A     -0.425742
      16A     -0.353310    17A     -0.336853    18A     -0.198180
      19A     -0.130155    20A     -0.121680

  @DF-RHF Final Energy:  -549.98704046549869

   => Energetics <=

    Nuclear Repulsion Energy =            142.7720533586596616
    One-Electron Energy =               -1049.8529643589934039
    Two-Electron Energy =                 357.0938705348351050
    Total Energy =                       -549.9870404654986942
  Basis Set: (AUG-CC-PVTZ AUX)
    Blend: AUG-CC-PVTZ-RI
    Molecular point group: c1

    Geometry (in Angstrom), charge = -1, multiplicity = 1:

       Center              X                  Y                   Z               Mass
    ------------   -----------------  -----------------  -----------------  -----------------
         S           -1.291338827604    -0.184685844038     0.000000263721    31.972071174400
         O            0.952949172396     1.282040155962     0.000000263721    15.994914619570
         C            1.331693172396    -1.066025844038     0.000000263721    12.000000000000
         C            0.448028372396     0.194121255962    -0.000001636279    12.000000000000
         H            1.137654172396    -1.685438844038     0.880577263721     1.007825032230
         H            2.376096172396    -0.735446844038    -0.000016736279     1.007825032230
         H            1.137630172396    -1.685460844038    -0.880556736279     1.007825032230

  Basis Set: AUG-CC-PVTZ
    Blend: AUG-CC-PVTZ
  Basis Set: (AUG-CC-PVTZ AUX)
    Blend: AUG-CC-PVTZ-JKFIT
	 Reference Energy          =    -549.9870404654986942 [Eh]
	 Singles Energy            =      -0.0000000000000000 [Eh]
	 Same-Spin Energy          =      -0.2096356590034211 [Eh]
	 Opposite-Spin Energy      =      -0.6413482540668853 [Eh]
	 Correlation Energy        =      -0.8509839130703064 [Eh]
	 Total Energy              =    -550.8380243785690027 [Eh]

	 ================> DF-SCS-MP2 Energies <==================
	-----------------------------------------------------------
	 SCS Same-Spin Scale       =       0.3333333333333333 [-]
	 SCS Opposite-Spin Scale   =       1.2000000000000000 [-]
	 SCS Same-Spin Energy      =      -0.0698785530011403 [Eh]
	 SCS Opposite-Spin Energy  =      -0.7696179048802624 [Eh]
	 SCS Correlation Energy    =      -0.8394964578814027 [Eh]
	 SCS Total Energy          =    -550.8265369233801039 [Eh]
	-----------------------------------------------------------

  Dipole Moment: [D]
     X:     3.0644      Y:    -1.7403      Z:     0.0000     Total:     3.5241

*** Psi4 exiting successfully. Buy a developer a beer!
