                               Psi4 1.3.2 release

  ==> Input File <==

--------------------------------------------------------------------------
#psi4
#
memory 32 gb

molecule  {
-1 1
  S       -1.3434220    -0.1276070     0.0000000
  O        0.9008660     1.3391190     0.0000000
  C        1.2796100    -1.0089470     0.0000000
  C        0.2645287     0.0399818    -0.0000012
  H        1.0855710    -1.6283600     0.8805770
  H        2.3240130    -0.6783680    -0.0000170
  H        1.0855470    -1.6283820    -0.8805570
units angstrom
no_reorient  #important for SAPT in psi4, default
symmetry c1  #important for SAPT in psi4, default
}

set PROPERTIES_ORIGIN ["COM"]
properties('MP2/aug-cc-pvtz', properties = ['dipole'])
--------------------------------------------------------------------------

    Molecular point group: c1
  Charge       = -1
  Multiplicity = 1
  Basis Set: AUG-CC-PVTZ
    Blend: AUG-CC-PVTZ
  Basis Set: (AUG-CC-PVTZ AUX)
    Blend: AUG-CC-PVTZ-JKFIT

    Orbital Energies [Eh]
    ---------------------

    Doubly Occupied:

       1A    -91.716338     2A    -20.305685     3A    -11.159060
       4A    -11.072496     5A     -8.721616     6A     -6.403415
       7A     -6.401684     8A     -6.400968     9A     -1.050082
      10A     -0.865972    11A     -0.771407    12A     -0.520177
      13A     -0.432091    14A     -0.429822    15A     -0.376956
      16A     -0.308369    17A     -0.259428    18A     -0.205344
      19A     -0.147364    20A     -0.139100

  @DF-RHF Final Energy:  -549.92999434785281

   => Energetics <=

    Nuclear Repulsion Energy =            142.8674026926356078
    One-Electron Energy =               -1050.2200463330411822
    Two-Electron Energy =                 357.4226492925528191
    Total Energy =                       -549.9299943478528121
  Basis Set: (AUG-CC-PVTZ AUX)
    Blend: AUG-CC-PVTZ-RI
    Molecular point group: c1

    Geometry (in Angstrom), charge = -1, multiplicity = 1:

       Center              X                  Y                   Z               Mass
    ------------   -----------------  -----------------  -----------------  -----------------
         S           -1.270309512925    -0.150886617178     0.000000151706    31.972071174400
         O            0.973978487075     1.315839382822     0.000000151706    15.994914619570
         C            1.352722487075    -1.032226617178     0.000000151706    12.000000000000
         C            0.337641187075     0.016702182822    -0.000001048294    12.000000000000
         H            1.158683487075    -1.651639617178     0.880577151706     1.007825032230
         H            2.397125487075    -0.701647617178    -0.000016848294     1.007825032230
         H            1.158659487075    -1.651661617178    -0.880556848294     1.007825032230

  Basis Set: AUG-CC-PVTZ
    Blend: AUG-CC-PVTZ
  Basis Set: (AUG-CC-PVTZ AUX)
    Blend: AUG-CC-PVTZ-JKFIT
	 Reference Energy          =    -549.9299943478528121 [Eh]
	 Singles Energy            =      -0.0000000000000000 [Eh]
	 Same-Spin Energy          =      -0.2173821098085749 [Eh]
	 Opposite-Spin Energy      =      -0.6552529562882167 [Eh]
	 Correlation Energy        =      -0.8726350660967916 [Eh]
	 Total Energy              =    -550.8026294139496031 [Eh]

	 ================> DF-SCS-MP2 Energies <==================
	-----------------------------------------------------------
	 SCS Same-Spin Scale       =       0.3333333333333333 [-]
	 SCS Opposite-Spin Scale   =       1.2000000000000000 [-]
	 SCS Same-Spin Energy      =      -0.0724607032695250 [Eh]
	 SCS Opposite-Spin Energy  =      -0.7863035475458600 [Eh]
	 SCS Correlation Energy    =      -0.8587642508153850 [Eh]
	 SCS Total Energy          =    -550.7887585986682097 [Eh]
	-----------------------------------------------------------

  Dipole Moment: [D]
     X:     1.1039      Y:    -3.0957      Z:     0.0000     Total:     3.2867

*** Psi4 exiting successfully. Buy a developer a beer!
