                               Psi4 1.3.2 release

  ==> Input File <==

--------------------------------------------------------------------------
#psi4
#
memory 32 gb

molecule  {
-1 1
  S       -1.3434220    -0.1276070     0.0000000
  O        0.9203209     1.3293783     0.0000000
  C        1.2796100    -1.0089470     0.0000000
  C        0.3525050     0.2195930    -0.0000010
  H        1.0855710    -1.6283600     0.8805770
  H        2.3240130    -0.6783680    -0.0000170
  H        1.0855470    -1.6283820    -0.8805570
units angstrom
no_reorient  #important for SAPT in psi4, default
symmetry c1  #important for SAPT in psi4, default
}

set PROPERTIES_ORIGIN ["COM"]
properties('MP2/aug-cc-pvtz', properties = ['dipole'])
--------------------------------------------------------------------------

    Molecular point group: c1
  Charge       = -1
  Multiplicity = 1
  Basis Set: AUG-CC-PVTZ
    Blend: AUG-CC-PVTZ
  Basis Set: (AUG-CC-PVTZ AUX)
    Blend: AUG-CC-PVTZ-JKFIT

    Orbital Energies [Eh]
    ---------------------

    Doubly Occupied:

       1A    -91.698754     2A    -20.344948     3A    -11.160154
       4A    -11.068533     5A     -8.701281     6A     -6.382848
       7A     -6.381318     8A     -6.380895     9A     -1.171226
      10A     -0.840163    11A     -0.732190    12A     -0.524707
      13A     -0.425025    14A     -0.424282    15A     -0.423327
      16A     -0.343391    17A     -0.317369    18A     -0.206009
      19A     -0.137273    20A     -0.128328

  @DF-RHF Final Energy:  -549.98575200482992

   => Energetics <=

    Nuclear Repulsion Energy =            142.7537182300397376
    One-Electron Energy =               -1049.8948973492379082
    Two-Electron Energy =                 357.1554271143681376
    Total Energy =                       -549.9857520048299193
  Basis Set: (AUG-CC-PVTZ AUX)
    Blend: AUG-CC-PVTZ-RI
    Molecular point group: c1

    Geometry (in Angstrom), charge = -1, multiplicity = 1:

       Center              X                  Y                   Z               Mass
    ------------   -----------------  -----------------  -----------------  -----------------
         S           -1.288537098783    -0.177550444969     0.000000119702    31.972071174400
         O            0.975205801217     1.279434855031     0.000000119702    15.994914619570
         C            1.334494901217    -1.058890444969     0.000000119702    12.000000000000
         C            0.407389901217     0.169649555031    -0.000000880298    12.000000000000
         H            1.140455901217    -1.678303444969     0.880577119702     1.007825032230
         H            2.378897901217    -0.728311444969    -0.000016880298     1.007825032230
         H            1.140431901217    -1.678325444969    -0.880556880298     1.007825032230

  Basis Set: AUG-CC-PVTZ
    Blend: AUG-CC-PVTZ
  Basis Set: (AUG-CC-PVTZ AUX)
    Blend: AUG-CC-PVTZ-JKFIT
	 Reference Energy          =    -549.9857520048299193 [Eh]
	 Singles Energy            =      -0.0000000000000000 [Eh]
	 Same-Spin Energy          =      -0.2111052310785120 [Eh]
	 Opposite-Spin Energy      =      -0.6439507994617470 [Eh]
	 Correlation Energy        =      -0.8550560305402590 [Eh]
	 Total Energy              =    -550.8408080353701735 [Eh]

	 ================> DF-SCS-MP2 Energies <==================
	-----------------------------------------------------------
	 SCS Same-Spin Scale       =       0.3333333333333333 [-]
	 SCS Opposite-Spin Scale   =       1.2000000000000000 [-]
	 SCS Same-Spin Energy      =      -0.0703684103595040 [Eh]
	 SCS Opposite-Spin Energy  =      -0.7727409593540965 [Eh]
	 SCS Correlation Energy    =      -0.8431093697136005 [Eh]
	 SCS Total Energy          =    -550.8288613745435214 [Eh]
	-----------------------------------------------------------

  Dipole Moment: [D]
     X:     2.4554      Y:    -2.0081      Z:     0.0000     Total:     3.1720

*** Psi4 exiting successfully. Buy a developer a beer!
