                               Psi4 1.3.2 release

  ==> Input File <==

--------------------------------------------------------------------------
#psi4
#
memory 32 gb

molecule  {
-1 1
  S       -1.3434220    -0.1276070     0.0000000
  O        0.9008660     1.3391190     0.0000000
  C        1.2796100    -1.0089470     0.0000000
  C        0.4860012     0.3097718    -0.0000037
  H        1.0855710    -1.6283600     0.8805770
  H        2.3240130    -0.6783680    -0.0000170
  H        1.0855470    -1.6283820    -0.8805570
units angstrom
no_reorient  #important for SAPT in psi4, default
symmetry c1  #important for SAPT in psi4, default
}

set PROPERTIES_ORIGIN ["COM"]
properties('MP2/aug-cc-pvtz', properties = ['dipole'])
--------------------------------------------------------------------------

    Molecular point group: c1
  Charge       = -1
  Multiplicity = 1
  Basis Set: AUG-CC-PVTZ
    Blend: AUG-CC-PVTZ
  Basis Set: (AUG-CC-PVTZ AUX)
    Blend: AUG-CC-PVTZ-JKFIT

    Orbital Energies [Eh]
    ---------------------

    Doubly Occupied:

       1A    -91.680549     2A    -20.377654     3A    -11.158757
       4A    -11.073908     5A     -8.680901     6A     -6.362144
       7A     -6.360854     8A     -6.360629     9A     -1.289466
      10A     -0.840680    11A     -0.688345    12A     -0.554058
      13A     -0.481410    14A     -0.447424    15A     -0.428170
      16A     -0.378190    17A     -0.374624    18A     -0.172712
      19A     -0.116639    20A     -0.109286

  @DF-RHF Final Energy:  -549.96354247505667

   => Energetics <=

    Nuclear Repulsion Energy =            142.9574774274433651
    One-Electron Energy =               -1049.9692384476063580
    Two-Electron Energy =                 357.0482185451063515
    Total Energy =                       -549.9635424750566699
  Basis Set: (AUG-CC-PVTZ AUX)
    Blend: AUG-CC-PVTZ-RI
    Molecular point group: c1

    Geometry (in Angstrom), charge = -1, multiplicity = 1:

       Center              X                  Y                   Z               Mass
    ------------   -----------------  -----------------  -----------------  -----------------
         S           -1.305749620486    -0.194058508130     0.000000551757    31.972071174400
         O            0.938538379514     1.272667491870     0.000000551757    15.994914619570
         C            1.317282379514    -1.075398508130     0.000000551757    12.000000000000
         C            0.523673579514     0.243320291870    -0.000003148243    12.000000000000
         H            1.123243379514    -1.694811508130     0.880577551757     1.007825032230
         H            2.361685379514    -0.744819508130    -0.000016448243     1.007825032230
         H            1.123219379514    -1.694833508130    -0.880556448243     1.007825032230

  Basis Set: AUG-CC-PVTZ
    Blend: AUG-CC-PVTZ
  Basis Set: (AUG-CC-PVTZ AUX)
    Blend: AUG-CC-PVTZ-JKFIT
	 Reference Energy          =    -549.9635424750566699 [Eh]
	 Singles Energy            =      -0.0000000000000000 [Eh]
	 Same-Spin Energy          =      -0.2075281832109611 [Eh]
	 Opposite-Spin Energy      =      -0.6374311365777995 [Eh]
	 Correlation Energy        =      -0.8449593197887606 [Eh]
	 Total Energy              =    -550.8085017948454833 [Eh]

	 ================> DF-SCS-MP2 Energies <==================
	-----------------------------------------------------------
	 SCS Same-Spin Scale       =       0.3333333333333333 [-]
	 SCS Opposite-Spin Scale   =       1.2000000000000000 [-]
	 SCS Same-Spin Energy      =      -0.0691760610703203 [Eh]
	 SCS Opposite-Spin Energy  =      -0.7649173638933594 [Eh]
	 SCS Correlation Energy    =      -0.8340934249636798 [Eh]
	 SCS Total Energy          =    -550.7976359000203956 [Eh]
	-----------------------------------------------------------

  Dipole Moment: [D]
     X:     4.2463      Y:    -1.1778      Z:     0.0000     Total:     4.4066

*** Psi4 exiting successfully. Buy a developer a beer!
