                               Psi4 1.3.2 release

  ==> Input File <==

--------------------------------------------------------------------------
#psi4
#
memory 32 gb

molecule  {
-1 1
  S       -1.3434220    -0.1276070     0.0000000
  O        0.9008660     1.3391190     0.0000000
  C        1.2796100    -1.0089470     0.0000000
  C        0.2545370     0.1995364    -0.0000009
  H        1.0855710    -1.6283600     0.8805770
  H        2.3240130    -0.6783680    -0.0000170
  H        1.0855470    -1.6283820    -0.8805570
units angstrom
no_reorient  #important for SAPT in psi4, default
symmetry c1  #important for SAPT in psi4, default
}

set PROPERTIES_ORIGIN ["COM"]
properties('MP2/aug-cc-pvtz', properties = ['dipole'])
--------------------------------------------------------------------------

    Molecular point group: c1
  Charge       = -1
  Multiplicity = 1
  Basis Set: AUG-CC-PVTZ
    Blend: AUG-CC-PVTZ
  Basis Set: (AUG-CC-PVTZ AUX)
    Blend: AUG-CC-PVTZ-JKFIT

    Orbital Energies [Eh]
    ---------------------

    Doubly Occupied:

       1A    -91.706709     2A    -20.326462     3A    -11.158716
       4A    -11.066391     5A     -8.712148     6A     -6.394011
       7A     -6.392166     8A     -6.391584     9A     -1.121485
      10A     -0.840043    11A     -0.757546    12A     -0.508237
      13A     -0.416399    14A     -0.415432    15A     -0.395487
      16A     -0.339309    17A     -0.297327    18A     -0.204589
      19A     -0.148651    20A     -0.137529

  @DF-RHF Final Energy:  -549.96851761497555

   => Energetics <=

    Nuclear Repulsion Energy =            143.1555585357058931
    One-Electron Energy =               -1050.7877128390134658
    Two-Electron Energy =                 357.6636366883319056
    Total Energy =                       -549.9685176149755534
  Basis Set: (AUG-CC-PVTZ AUX)
    Blend: AUG-CC-PVTZ-RI
    Molecular point group: c1

    Geometry (in Angstrom), charge = -1, multiplicity = 1:

       Center              X                  Y                   Z               Mass
    ------------   -----------------  -----------------  -----------------  -----------------
         S           -1.268710637567    -0.176418600543     0.000000103700    31.972071174400
         O            0.975577362433     1.290307399457     0.000000103700    15.994914619570
         C            1.354321362433    -1.057758600543     0.000000103700    12.000000000000
         C            0.329248362433     0.150724799457    -0.000000796300    12.000000000000
         H            1.160282362433    -1.677171600543     0.880577103700     1.007825032230
         H            2.398724362433    -0.727179600543    -0.000016896300     1.007825032230
         H            1.160258362433    -1.677193600543    -0.880556896300     1.007825032230

  Basis Set: AUG-CC-PVTZ
    Blend: AUG-CC-PVTZ
  Basis Set: (AUG-CC-PVTZ AUX)
    Blend: AUG-CC-PVTZ-JKFIT
	 Reference Energy          =    -549.9685176149755534 [Eh]
	 Singles Energy            =      -0.0000000000000000 [Eh]
	 Same-Spin Energy          =      -0.2136979448353457 [Eh]
	 Opposite-Spin Energy      =      -0.6482668214539618 [Eh]
	 Correlation Energy        =      -0.8619647662893074 [Eh]
	 Total Energy              =    -550.8304823812649147 [Eh]

	 ================> DF-SCS-MP2 Energies <==================
	-----------------------------------------------------------
	 SCS Same-Spin Scale       =       0.3333333333333333 [-]
	 SCS Opposite-Spin Scale   =       1.2000000000000000 [-]
	 SCS Same-Spin Energy      =      -0.0712326482784486 [Eh]
	 SCS Opposite-Spin Energy  =      -0.7779201857447541 [Eh]
	 SCS Correlation Energy    =      -0.8491528340232026 [Eh]
	 SCS Total Energy          =    -550.8176704489987969 [Eh]
	-----------------------------------------------------------

  Dipole Moment: [D]
     X:     1.4168      Y:    -2.3159      Z:     0.0000     Total:     2.7149

*** Psi4 exiting successfully. Buy a developer a beer!
