                               Psi4 1.4a3.dev225

  ==> Input File <==

--------------------------------------------------------------------------
#psi4
#
memory 32 gb

molecule  {
-1 1
  S       -1.3434220    -0.1276070     0.0000000
  O        0.9008660     1.3391190     0.0000000
  C        1.2796100    -1.0089470     0.0000000
  C        0.3035210     0.2095647    -0.0000010
  H        1.0855710    -1.6283600     0.8805770
  H        2.3240130    -0.6783680    -0.0000170
  H        1.0855470    -1.6283820    -0.8805570
units angstrom
no_reorient  #important for SAPT in psi4, default
symmetry c1  #important for SAPT in psi4, default
}

set PROPERTIES_ORIGIN ["COM"]
properties('MP2/aug-cc-pvtz', properties = ['dipole'])
--------------------------------------------------------------------------

    Molecular point group: c1
  Charge       = -1
  Multiplicity = 1
  Basis Set: AUG-CC-PVTZ
    Blend: AUG-CC-PVTZ
  Basis Set: (AUG-CC-PVTZ AUX)
    Blend: AUG-CC-PVTZ-JKFIT

    Orbital Energies [Eh]
    ---------------------

    Doubly Occupied:

       1A    -91.702277     2A    -20.335905     3A    -11.159770
       4A    -11.067993     5A     -8.706135     6A     -6.387837
       7A     -6.386179     8A     -6.385681     9A     -1.146079
      10A     -0.838665    11A     -0.745798    12A     -0.516499
      13A     -0.420730    14A     -0.420332    15A     -0.409137
      16A     -0.340493    17A     -0.306732    18A     -0.207056
      19A     -0.142701    20A     -0.132777

  @DF-RHF Final Energy:  -549.97987407981202

   => Energetics <=

    Nuclear Repulsion Energy =            142.9392349033059872
    One-Electron Energy =               -1050.3206624063245727
    Two-Electron Energy =                 357.4015534232066216
    Total Energy =                       -549.9798740798119070
  Basis Set: (AUG-CC-PVTZ AUX)
    Blend: AUG-CC-PVTZ-RI
    Molecular point group: c1

    Geometry (in Angstrom), charge = -1, multiplicity = 1:

       Center              X                  Y                   Z               Mass
    ------------   -----------------  -----------------  -----------------  -----------------
         S           -1.276549074523    -0.178023332646     0.000000119702    31.972071174400
         O            0.967738925477     1.288702667354     0.000000119702    15.994914619570
         C            1.346482925477    -1.059363332646     0.000000119702    12.000000000000
         C            0.370393925477     0.159148367354    -0.000000880298    12.000000000000
         H            1.152443925477    -1.678776332646     0.880577119702     1.007825032230
         H            2.390885925477    -0.728784332646    -0.000016880298     1.007825032230
         H            1.152419925477    -1.678798332646    -0.880556880298     1.007825032230

  Basis Set: AUG-CC-PVTZ
    Blend: AUG-CC-PVTZ
  Basis Set: (AUG-CC-PVTZ AUX)
    Blend: AUG-CC-PVTZ-JKFIT
	 Reference Energy          =    -549.9798740798120207 [Eh]
	 Singles Energy            =      -0.0000000000000000 [Eh]
	 Same-Spin Energy          =      -0.2123271216463834 [Eh]
	 Opposite-Spin Energy      =      -0.6459604570440329 [Eh]
	 Correlation Energy        =      -0.8582875786904164 [Eh]
	 Total Energy              =    -550.8381616585024858 [Eh]

	 ================> DF-SCS-MP2 Energies <==================
	-----------------------------------------------------------
	 SCS Same-Spin Scale       =       0.3333333333333333 [-]
	 SCS Opposite-Spin Scale   =       1.2000000000000000 [-]
	 SCS Same-Spin Energy      =      -0.0707757072154611 [Eh]
	 SCS Opposite-Spin Energy  =      -0.7751525484528395 [Eh]
	 SCS Correlation Energy    =      -0.8459282556683007 [Eh]
	 SCS Total Energy          =    -550.8258023354803754 [Eh]
	-----------------------------------------------------------

  Dipole Moment: [D]
     X:     1.9583      Y:    -2.1646      Z:     0.0000     Total:     2.9190

*** Psi4 exiting successfully. Buy a developer a beer!
