                               Psi4 1.3.2 release

  ==> Input File <==

--------------------------------------------------------------------------
#psi4
#
memory 32 gb

molecule  {
-1 1
  S       -1.3434220    -0.1276070     0.0000000
  O        0.9008660     1.3391190     0.0000000
  C        1.2796100    -1.0089470     0.0000000
  C        0.3964932     0.3093986    -0.0000009
  H        1.0855710    -1.6283600     0.8805770
  H        2.3240130    -0.6783680    -0.0000170
  H        1.0855470    -1.6283820    -0.8805570
units angstrom
no_reorient  #important for SAPT in psi4, default
symmetry c1  #important for SAPT in psi4, default
}

set PROPERTIES_ORIGIN ["COM"]
properties('MP2/aug-cc-pvtz', properties = ['dipole'])
--------------------------------------------------------------------------

    Molecular point group: c1
  Charge       = -1
  Multiplicity = 1
  Basis Set: AUG-CC-PVTZ
    Blend: AUG-CC-PVTZ
  Basis Set: (AUG-CC-PVTZ AUX)
    Blend: AUG-CC-PVTZ-JKFIT

    Orbital Energies [Eh]
    ---------------------

    Doubly Occupied:

       1A    -91.689389     2A    -20.364258     3A    -11.157417
       4A    -11.066876     5A     -8.690930     6A     -6.372359
       7A     -6.370904     8A     -6.370597     9A     -1.251911
      10A     -0.826396    11A     -0.712273    12A     -0.538846
      13A     -0.457617    14A     -0.430104    15A     -0.419118
      16A     -0.364794    17A     -0.358120    18A     -0.187978
      19A     -0.128405    20A     -0.118469

  @DF-RHF Final Energy:  -549.97959382850331

   => Energetics <=

    Nuclear Repulsion Energy =            143.0724960414836744
    One-Electron Energy =               -1050.3506581211863704
    Two-Electron Energy =                 357.2985682511994128
    Total Energy =                       -549.9795938285033117
  Basis Set: (AUG-CC-PVTZ AUX)
    Blend: AUG-CC-PVTZ-RI
    Molecular point group: c1

    Geometry (in Angstrom), charge = -1, multiplicity = 1:

       Center              X                  Y                   Z               Mass
    ------------   -----------------  -----------------  -----------------  -----------------
         S           -1.291426518757    -0.193998788534     0.000000103700    31.972071174400
         O            0.952861481243     1.272727211466     0.000000103700    15.994914619570
         C            1.331605481243    -1.075338788534     0.000000103700    12.000000000000
         C            0.448488681243     0.243006811466    -0.000000796300    12.000000000000
         H            1.137566481243    -1.694751788534     0.880577103700     1.007825032230
         H            2.376008481243    -0.744759788534    -0.000016896300     1.007825032230
         H            1.137542481243    -1.694773788534    -0.880556896300     1.007825032230

  Basis Set: AUG-CC-PVTZ
    Blend: AUG-CC-PVTZ
  Basis Set: (AUG-CC-PVTZ AUX)
    Blend: AUG-CC-PVTZ-JKFIT
	 Reference Energy          =    -549.9795938285033117 [Eh]
	 Singles Energy            =      -0.0000000000000000 [Eh]
	 Same-Spin Energy          =      -0.2083894514965539 [Eh]
	 Opposite-Spin Energy      =      -0.6389153273489914 [Eh]
	 Correlation Energy        =      -0.8473047788455452 [Eh]
	 Total Energy              =    -550.8268986073488804 [Eh]

	 ================> DF-SCS-MP2 Energies <==================
	-----------------------------------------------------------
	 SCS Same-Spin Scale       =       0.3333333333333333 [-]
	 SCS Opposite-Spin Scale   =       1.2000000000000000 [-]
	 SCS Same-Spin Energy      =      -0.0694631504988513 [Eh]
	 SCS Opposite-Spin Energy  =      -0.7666983928187896 [Eh]
	 SCS Correlation Energy    =      -0.8361615433176409 [Eh]
	 SCS Total Energy          =    -550.8157553718209556 [Eh]
	-----------------------------------------------------------

  Dipole Moment: [D]
     X:     3.2486      Y:    -1.3405      Z:     0.0000     Total:     3.5143

*** Psi4 exiting successfully. Buy a developer a beer!
