                               Psi4 1.4a3.dev225

  ==> Input File <==

--------------------------------------------------------------------------
#psi4
#
memory 32 gb

molecule  {
-1 1
  S       -1.3434220    -0.1276070     0.0000000
  O        0.9008660     1.3391190     0.0000000
  C        1.2796100    -1.0089470     0.0000000
  C        0.3613026     0.2375541    -0.0000010
  H        1.0855710    -1.6283600     0.8805770
  H        2.3240130    -0.6783680    -0.0000170
  H        1.0855470    -1.6283820    -0.8805570
units angstrom
no_reorient  #important for SAPT in psi4, default
symmetry c1  #important for SAPT in psi4, default
}

set PROPERTIES_ORIGIN ["COM"]
properties('MP2/aug-cc-pvtz', properties = ['dipole'])
--------------------------------------------------------------------------

    Molecular point group: c1
  Charge       = -1
  Multiplicity = 1
  Basis Set: AUG-CC-PVTZ
    Blend: AUG-CC-PVTZ
  Basis Set: (AUG-CC-PVTZ AUX)
    Blend: AUG-CC-PVTZ-JKFIT

    Orbital Energies [Eh]
    ---------------------

    Doubly Occupied:

       1A    -91.696076     2A    -20.348829     3A    -11.159767
       4A    -11.069276     5A     -8.698420     6A     -6.379958
       7A     -6.378449     8A     -6.378052     9A     -1.186133
      10A     -0.838119    11A     -0.727780    12A     -0.526774
      13A     -0.430291    14A     -0.425620    15A     -0.423807
      16A     -0.347695    17A     -0.325639    18A     -0.203127
      19A     -0.134906    20A     -0.125836

  @DF-RHF Final Energy:  -549.98724154994636

   => Energetics <=

    Nuclear Repulsion Energy =            142.8134888146849732
    One-Electron Energy =               -1049.9923524615724091
    Two-Electron Energy =                 357.1916220969410460
    Total Energy =                       -549.9872415499463614
  Basis Set: (AUG-CC-PVTZ AUX)
    Blend: AUG-CC-PVTZ-RI
    Molecular point group: c1

    Geometry (in Angstrom), charge = -1, multiplicity = 1:

       Center              X                  Y                   Z               Mass
    ------------   -----------------  -----------------  -----------------  -----------------
         S           -1.285795306534    -0.182502206305     0.000000119702    31.972071174400
         O            0.958492693466     1.284223793695     0.000000119702    15.994914619570
         C            1.337236693466    -1.063842206305     0.000000119702    12.000000000000
         C            0.418929293466     0.182658893695    -0.000000880298    12.000000000000
         H            1.143197693466    -1.683255206305     0.880577119702     1.007825032230
         H            2.381639693466    -0.733263206305    -0.000016880298     1.007825032230
         H            1.143173693466    -1.683277206305    -0.880556880298     1.007825032230

  Basis Set: AUG-CC-PVTZ
    Blend: AUG-CC-PVTZ
  Basis Set: (AUG-CC-PVTZ AUX)
    Blend: AUG-CC-PVTZ-JKFIT
	 Reference Energy          =    -549.9872415499463614 [Eh]
	 Singles Energy            =      -0.0000000000000000 [Eh]
	 Same-Spin Energy          =      -0.2105100128916171 [Eh]
	 Opposite-Spin Energy      =      -0.6428471720704874 [Eh]
	 Correlation Energy        =      -0.8533571849621044 [Eh]
	 Total Energy              =    -550.8405987349084398 [Eh]

	 ================> DF-SCS-MP2 Energies <==================
	-----------------------------------------------------------
	 SCS Same-Spin Scale       =       0.3333333333333333 [-]
	 SCS Opposite-Spin Scale   =       1.2000000000000000 [-]
	 SCS Same-Spin Energy      =      -0.0701700042972057 [Eh]
	 SCS Opposite-Spin Energy  =      -0.7714166064845848 [Eh]
	 SCS Correlation Energy    =      -0.8415866107817904 [Eh]
	 SCS Total Energy          =    -550.8288281607281078 [Eh]
	-----------------------------------------------------------

  Dipole Moment: [D]
     X:     2.6512      Y:    -1.8895      Z:     0.0000     Total:     3.2556

*** Psi4 exiting successfully. Buy a developer a beer!
