                               Psi4 1.4a3.dev225

  ==> Input File <==

--------------------------------------------------------------------------
#psi4
#
memory 32 gb

molecule  {
-1 1
  S       -1.3434220    -0.1276070     0.0000000
  O        0.9008660     1.3391190     0.0000000
  C        1.2796100    -1.0089470     0.0000000
  C        0.3305109     0.1746902    -0.0000010
  H        1.0855710    -1.6283600     0.8805770
  H        2.3240130    -0.6783680    -0.0000170
  H        1.0855470    -1.6283820    -0.8805570
units angstrom
no_reorient  #important for SAPT in psi4, default
symmetry c1  #important for SAPT in psi4, default
}

set PROPERTIES_ORIGIN ["COM"]
properties('MP2/aug-cc-pvtz', properties = ['dipole'])
--------------------------------------------------------------------------

    Molecular point group: c1
  Charge       = -1
  Multiplicity = 1
  Basis Set: AUG-CC-PVTZ
    Blend: AUG-CC-PVTZ
  Basis Set: (AUG-CC-PVTZ AUX)
    Blend: AUG-CC-PVTZ-JKFIT

    Orbital Energies [Eh]
    ---------------------

    Doubly Occupied:

       1A    -91.702185     2A    -20.335285     3A    -11.160939
       4A    -11.070683     5A     -8.705365     6A     -6.386992
       7A     -6.385427     8A     -6.384940     9A     -1.135609
      10A     -0.848031    11A     -0.741678    12A     -0.521417
      13A     -0.426919    14A     -0.426516    15A     -0.408044
      16A     -0.334274    17A     -0.299108    18A     -0.210743
      19A     -0.140033    20A     -0.131566

  @DF-RHF Final Energy:  -549.97829180957297

   => Energetics <=

    Nuclear Repulsion Energy =            142.7299109825239327
    One-Electron Energy =               -1049.9048952907619423
    Two-Electron Energy =                 357.1966924986650156
    Total Energy =                       -549.9782918095729656
  Basis Set: (AUG-CC-PVTZ AUX)
    Blend: AUG-CC-PVTZ-RI
    Molecular point group: c1

    Geometry (in Angstrom), charge = -1, multiplicity = 1:

       Center              X                  Y                   Z               Mass
    ------------   -----------------  -----------------  -----------------  -----------------
         S           -1.280868007840    -0.172442702856     0.000000119702    31.972071174400
         O            0.963419992160     1.294283297144     0.000000119702    15.994914619570
         C            1.342163992160    -1.053782702856     0.000000119702    12.000000000000
         C            0.393064892160     0.129854497144    -0.000000880298    12.000000000000
         H            1.148124992160    -1.673195702856     0.880577119702     1.007825032230
         H            2.386566992160    -0.723203702856    -0.000016880298     1.007825032230
         H            1.148100992160    -1.673217702856    -0.880556880298     1.007825032230

  Basis Set: AUG-CC-PVTZ
    Blend: AUG-CC-PVTZ
  Basis Set: (AUG-CC-PVTZ AUX)
    Blend: AUG-CC-PVTZ-JKFIT
	 Reference Energy          =    -549.9782918095729656 [Eh]
	 Singles Energy            =      -0.0000000000000000 [Eh]
	 Same-Spin Energy          =      -0.2126544440368475 [Eh]
	 Opposite-Spin Energy      =      -0.6467155572638830 [Eh]
	 Correlation Energy        =      -0.8593700013007304 [Eh]
	 Total Energy              =    -550.8376618108736693 [Eh]

	 ================> DF-SCS-MP2 Energies <==================
	-----------------------------------------------------------
	 SCS Same-Spin Scale       =       0.3333333333333333 [-]
	 SCS Opposite-Spin Scale   =       1.2000000000000000 [-]
	 SCS Same-Spin Energy      =      -0.0708848146789492 [Eh]
	 SCS Opposite-Spin Energy  =      -0.7760586687166595 [Eh]
	 SCS Correlation Energy    =      -0.8469434833956087 [Eh]
	 SCS Total Energy          =    -550.8252352929686140 [Eh]
	-----------------------------------------------------------

  Dipole Moment: [D]
     X:     2.1428      Y:    -2.3084      Z:     0.0000     Total:     3.1497

*** Psi4 exiting successfully. Buy a developer a beer!
