                               Psi4 1.3.2 release

  ==> Input File <==

--------------------------------------------------------------------------
#psi4
#
memory 32 gb

molecule  {
-1 1
  S       -1.2978393    -0.3029776     0.0000002
  O        0.9008660     1.3391190     0.0000000
  C        1.2796100    -1.0089470     0.0000000
  C        0.3525050     0.2195930    -0.0000010
  H        1.0855710    -1.6283600     0.8805770
  H        2.3240130    -0.6783680    -0.0000170
  H        1.0855470    -1.6283820    -0.8805570
units angstrom
no_reorient  #important for SAPT in psi4, default
symmetry c1  #important for SAPT in psi4, default
}

set PROPERTIES_ORIGIN ["COM"]
properties('MP2/aug-cc-pvtz', properties = ['dipole'])
--------------------------------------------------------------------------

    Molecular point group: c1
  Charge       = -1
  Multiplicity = 1
  Basis Set: AUG-CC-PVTZ
    Blend: AUG-CC-PVTZ
  Basis Set: (AUG-CC-PVTZ AUX)
    Blend: AUG-CC-PVTZ-JKFIT

    Orbital Energies [Eh]
    ---------------------

    Doubly Occupied:

       1A    -91.699494     2A    -20.349404     3A    -11.161366
       4A    -11.063639     5A     -8.702219     6A     -6.383776
       7A     -6.382234     8A     -6.381807     9A     -1.172916
      10A     -0.843575    11A     -0.728858    12A     -0.524728
      13A     -0.424049    14A     -0.422777    15A     -0.420717
      16A     -0.345799    17A     -0.318387    18A     -0.205662
      19A     -0.139652    20A     -0.127902

  @DF-RHF Final Energy:  -549.98213732835961

   => Energetics <=

    Nuclear Repulsion Energy =            143.1306535413957590
    One-Electron Energy =               -1050.6276559335669845
    Two-Electron Energy =                 357.5148650638115555
    Total Energy =                       -549.9821373283596131
  Basis Set: (AUG-CC-PVTZ AUX)
    Blend: AUG-CC-PVTZ-RI
    Molecular point group: c1

    Geometry (in Angstrom), charge = -1, multiplicity = 1:

       Center              X                  Y                   Z               Mass
    ------------   -----------------  -----------------  -----------------  -----------------
         S           -1.258238927651    -0.280229670952     0.000000234433    31.972071174400
         O            0.940466372349     1.361866929048     0.000000034433    15.994914619570
         C            1.319210372349    -0.986199070952     0.000000034433    12.000000000000
         C            0.392105372349     0.242340929048    -0.000000965567    12.000000000000
         H            1.125171372349    -1.605612070952     0.880577034433     1.007825032230
         H            2.363613372349    -0.655620070952    -0.000016965567     1.007825032230
         H            1.125147372349    -1.605634070952    -0.880556965567     1.007825032230

  Basis Set: AUG-CC-PVTZ
    Blend: AUG-CC-PVTZ
  Basis Set: (AUG-CC-PVTZ AUX)
    Blend: AUG-CC-PVTZ-JKFIT
	 Reference Energy          =    -549.9821373283596131 [Eh]
	 Singles Energy            =      -0.0000000000000000 [Eh]
	 Same-Spin Energy          =      -0.2115529220056648 [Eh]
	 Opposite-Spin Energy      =      -0.6446837479712956 [Eh]
	 Correlation Energy        =      -0.8562366699769604 [Eh]
	 Total Energy              =    -550.8383739983365786 [Eh]

	 ================> DF-SCS-MP2 Energies <==================
	-----------------------------------------------------------
	 SCS Same-Spin Scale       =       0.3333333333333333 [-]
	 SCS Opposite-Spin Scale   =       1.2000000000000000 [-]
	 SCS Same-Spin Energy      =      -0.0705176406685549 [Eh]
	 SCS Opposite-Spin Energy  =      -0.7736204975655546 [Eh]
	 SCS Correlation Energy    =      -0.8441381382341095 [Eh]
	 SCS Total Energy          =    -550.8262754665937564 [Eh]
	-----------------------------------------------------------

  Dipole Moment: [D]
     X:     2.3713      Y:    -1.8910      Z:     0.0000     Total:     3.0330

*** Psi4 exiting successfully. Buy a developer a beer!
