                               Psi4 1.4a3.dev225

  ==> Input File <==

--------------------------------------------------------------------------
#psi4
#
memory 32 gb

molecule  {
-1 1
  S       -1.3434220    -0.1276070     0.0000000
  O        0.9008660     1.3391190     0.0000000
  C        1.2796100    -1.0089470     0.0000000
  C        0.3329114     0.2155817    -0.0000010
  H        1.0855710    -1.6283600     0.8805770
  H        2.3240130    -0.6783680    -0.0000170
  H        1.0855470    -1.6283820    -0.8805570
units angstrom
no_reorient  #important for SAPT in psi4, default
symmetry c1  #important for SAPT in psi4, default
}

set PROPERTIES_ORIGIN ["COM"]
properties('MP2/aug-cc-pvtz', properties = ['dipole'])
--------------------------------------------------------------------------

    Molecular point group: c1
  Charge       = -1
  Multiplicity = 1
  Basis Set: AUG-CC-PVTZ
    Blend: AUG-CC-PVTZ
  Basis Set: (AUG-CC-PVTZ AUX)
    Blend: AUG-CC-PVTZ-JKFIT

    Orbital Energies [Eh]
    ---------------------

    Doubly Occupied:

       1A    -91.699594     2A    -20.341393     3A    -11.160084
       4A    -11.069015     5A     -8.702647     6A     -6.384264
       7A     -6.382691     8A     -6.382240     9A     -1.161016
      10A     -0.839727    11A     -0.737517    12A     -0.521485
      13A     -0.423460    14A     -0.423202    15A     -0.417829
      16A     -0.342103    17A     -0.313147    18A     -0.206835
      19A     -0.138963    20A     -0.129678

  @DF-RHF Final Energy:  -549.98412274754241

   => Energetics <=

    Nuclear Repulsion Energy =            142.8361373183397802
    One-Electron Energy =               -1050.0867402270985167
    Two-Electron Energy =                 357.2664801612163501
    Total Energy =                       -549.9841227475424148
  Basis Set: (AUG-CC-PVTZ AUX)
    Blend: AUG-CC-PVTZ-RI
    Molecular point group: c1

    Geometry (in Angstrom), charge = -1, multiplicity = 1:

       Center              X                  Y                   Z               Mass
    ------------   -----------------  -----------------  -----------------  -----------------
         S           -1.281252136697    -0.178986175108     0.000000119702    31.972071174400
         O            0.963035863303     1.287739824892     0.000000119702    15.994914619570
         C            1.341779863303    -1.060326175108     0.000000119702    12.000000000000
         C            0.395081263303     0.164202524892    -0.000000880298    12.000000000000
         H            1.147740863303    -1.679739175108     0.880577119702     1.007825032230
         H            2.386182863303    -0.729747175108    -0.000016880298     1.007825032230
         H            1.147716863303    -1.679761175108    -0.880556880298     1.007825032230

  Basis Set: AUG-CC-PVTZ
    Blend: AUG-CC-PVTZ
  Basis Set: (AUG-CC-PVTZ AUX)
    Blend: AUG-CC-PVTZ-JKFIT
	 Reference Energy          =    -549.9841227475424148 [Eh]
	 Singles Energy            =      -0.0000000000000000 [Eh]
	 Same-Spin Energy          =      -0.2115703071820481 [Eh]
	 Opposite-Spin Energy      =      -0.6446988107029803 [Eh]
	 Correlation Energy        =      -0.8562691178850284 [Eh]
	 Total Energy              =    -550.8403918654274776 [Eh]

	 ================> DF-SCS-MP2 Energies <==================
	-----------------------------------------------------------
	 SCS Same-Spin Scale       =       0.3333333333333333 [-]
	 SCS Opposite-Spin Scale   =       1.2000000000000000 [-]
	 SCS Same-Spin Energy      =      -0.0705234357273494 [Eh]
	 SCS Opposite-Spin Energy  =      -0.7736385728435763 [Eh]
	 SCS Correlation Energy    =      -0.8441620085709256 [Eh]
	 SCS Total Energy          =    -550.8282847561133622 [Eh]
	-----------------------------------------------------------

  Dipole Moment: [D]
     X:     2.2853      Y:    -2.0746      Z:     0.0000     Total:     3.0865

*** Psi4 exiting successfully. Buy a developer a beer!
