                               Psi4 1.4a3.dev225

  ==> Input File <==

--------------------------------------------------------------------------
#psi4
#
memory 32 gb

molecule  {
-1 1
  S       -1.3434220    -0.1276070     0.0000000
  O        0.9008660     1.3391190     0.0000000
  C        1.2796100    -1.0089470     0.0000000
  C        0.4014890     0.2296213    -0.0000010
  H        1.0855710    -1.6283600     0.8805770
  H        2.3240130    -0.6783680    -0.0000170
  H        1.0855470    -1.6283820    -0.8805570
units angstrom
no_reorient  #important for SAPT in psi4, default
symmetry c1  #important for SAPT in psi4, default
}

set PROPERTIES_ORIGIN ["COM"]
properties('MP2/aug-cc-pvtz', properties = ['dipole'])
--------------------------------------------------------------------------

    Molecular point group: c1
  Charge       = -1
  Multiplicity = 1
  Basis Set: AUG-CC-PVTZ
    Blend: AUG-CC-PVTZ
  Basis Set: (AUG-CC-PVTZ AUX)
    Blend: AUG-CC-PVTZ-JKFIT

    Orbital Energies [Eh]
    ---------------------

    Doubly Occupied:

       1A    -91.693202     2A    -20.353775     3A    -11.160420
       4A    -11.071747     5A     -8.694741     6A     -6.376184
       7A     -6.374760     8A     -6.374406     9A     -1.196151
      10A     -0.845620    11A     -0.716979    12A     -0.533105
      13A     -0.438831    14A     -0.431486    15A     -0.428636
      16A     -0.349174    17A     -0.329629    18A     -0.201049
      19A     -0.130091    20A     -0.122119

  @DF-RHF Final Energy:  -549.98680097129318

   => Energetics <=

    Nuclear Repulsion Energy =            142.6620623311121960
    One-Electron Energy =               -1049.6535169485616734
    Two-Electron Energy =                 357.0046536461563278
    Total Energy =                       -549.9868009712931780
  Basis Set: (AUG-CC-PVTZ AUX)
    Blend: AUG-CC-PVTZ-RI
    Molecular point group: c1

    Geometry (in Angstrom), charge = -1, multiplicity = 1:

       Center              X                  Y                   Z               Mass
    ------------   -----------------  -----------------  -----------------  -----------------
         S           -1.292225948435    -0.181232796851     0.000000119702    31.972071174400
         O            0.952062051565     1.285493203149     0.000000119702    15.994914619570
         C            1.330806051565    -1.062572796851     0.000000119702    12.000000000000
         C            0.452685051565     0.175995503149    -0.000000880298    12.000000000000
         H            1.136767051565    -1.681985796851     0.880577119702     1.007825032230
         H            2.375209051565    -0.731993796851    -0.000016880298     1.007825032230
         H            1.136743051565    -1.682007796851    -0.880556880298     1.007825032230

  Basis Set: AUG-CC-PVTZ
    Blend: AUG-CC-PVTZ
  Basis Set: (AUG-CC-PVTZ AUX)
    Blend: AUG-CC-PVTZ-JKFIT
	 Reference Energy          =    -549.9868009712931780 [Eh]
	 Singles Energy            =      -0.0000000000000000 [Eh]
	 Same-Spin Energy          =      -0.2100770104231111 [Eh]
	 Opposite-Spin Energy      =      -0.6422220847235085 [Eh]
	 Correlation Energy        =      -0.8522990951466196 [Eh]
	 Total Energy              =    -550.8391000664397552 [Eh]

	 ================> DF-SCS-MP2 Energies <==================
	-----------------------------------------------------------
	 SCS Same-Spin Scale       =       0.3333333333333333 [-]
	 SCS Opposite-Spin Scale   =       1.2000000000000000 [-]
	 SCS Same-Spin Energy      =      -0.0700256701410370 [Eh]
	 SCS Opposite-Spin Energy  =      -0.7706665016682102 [Eh]
	 SCS Correlation Energy    =      -0.8406921718092472 [Eh]
	 SCS Total Energy          =    -550.8274931431024015 [Eh]
	-----------------------------------------------------------

  Dipole Moment: [D]
     X:     3.0543      Y:    -1.8653      Z:     0.0000     Total:     3.5788

*** Psi4 exiting successfully. Buy a developer a beer!
