                               Psi4 1.3.2 release

  ==> Input File <==

--------------------------------------------------------------------------
#psi4
#
memory 32 gb

molecule  {
-1 1
  S       -1.3434220    -0.1276070     0.0000000
  O        0.8614611     1.3575745    -0.0000000
  C        1.2796100    -1.0089470     0.0000000
  C        0.3525050     0.2195930    -0.0000010
  H        1.0855710    -1.6283600     0.8805770
  H        2.3240130    -0.6783680    -0.0000170
  H        1.0855470    -1.6283820    -0.8805570
units angstrom
no_reorient  #important for SAPT in psi4, default
symmetry c1  #important for SAPT in psi4, default
}

set PROPERTIES_ORIGIN ["COM"]
properties('MP2/aug-cc-pvtz', properties = ['dipole'])
--------------------------------------------------------------------------

    Molecular point group: c1
  Charge       = -1
  Multiplicity = 1
  Basis Set: AUG-CC-PVTZ
    Blend: AUG-CC-PVTZ
  Basis Set: (AUG-CC-PVTZ AUX)
    Blend: AUG-CC-PVTZ-JKFIT

    Orbital Energies [Eh]
    ---------------------

    Doubly Occupied:

       1A    -91.695850     2A    -20.345023     3A    -11.160325
       4A    -11.072129     5A     -8.698508     6A     -6.380068
       7A     -6.378554     8A     -6.378135     9A     -1.170683
      10A     -0.842655    11A     -0.730769    12A     -0.525034
      13A     -0.426876    14A     -0.426535    15A     -0.423912
      16A     -0.344104    17A     -0.318258    18A     -0.205611
      19A     -0.134741    20A     -0.125895

  @DF-RHF Final Energy:  -549.98572776193168

   => Energetics <=

    Nuclear Repulsion Energy =            142.8388425333597525
    One-Electron Energy =               -1050.0818093615127964
    Two-Electron Energy =                 357.2572390662214161
    Total Energy =                       -549.9857277619316847
  Basis Set: (AUG-CC-PVTZ AUX)
    Blend: AUG-CC-PVTZ-RI
    Molecular point group: c1

    Geometry (in Angstrom), charge = -1, multiplicity = 1:

       Center              X                  Y                   Z               Mass
    ------------   -----------------  -----------------  -----------------  -----------------
         S           -1.275982735677    -0.183564487372     0.000000119702    31.972071174400
         O            0.928900364323     1.301617012628     0.000000119702    15.994914619570
         C            1.347049264323    -1.064904487372     0.000000119702    12.000000000000
         C            0.419944264323     0.163635512628    -0.000000880298    12.000000000000
         H            1.153010264323    -1.684317487372     0.880577119702     1.007825032230
         H            2.391452264323    -0.734325487372    -0.000016880298     1.007825032230
         H            1.152986264323    -1.684339487372    -0.880556880298     1.007825032230

  Basis Set: AUG-CC-PVTZ
    Blend: AUG-CC-PVTZ
  Basis Set: (AUG-CC-PVTZ AUX)
    Blend: AUG-CC-PVTZ-JKFIT
	 Reference Energy          =    -549.9857277619316847 [Eh]
	 Singles Energy            =      -0.0000000000000000 [Eh]
	 Same-Spin Energy          =      -0.2111110041998245 [Eh]
	 Opposite-Spin Energy      =      -0.6438951619210560 [Eh]
	 Correlation Energy        =      -0.8550061661208805 [Eh]
	 Total Energy              =    -550.8407339280526003 [Eh]

	 ================> DF-SCS-MP2 Energies <==================
	-----------------------------------------------------------
	 SCS Same-Spin Scale       =       0.3333333333333333 [-]
	 SCS Opposite-Spin Scale   =       1.2000000000000000 [-]
	 SCS Same-Spin Energy      =      -0.0703703347332748 [Eh]
	 SCS Opposite-Spin Energy  =      -0.7726741943052672 [Eh]
	 SCS Correlation Energy    =      -0.8430445290385420 [Eh]
	 SCS Total Energy          =    -550.8287722909702779 [Eh]
	-----------------------------------------------------------

  Dipole Moment: [D]
     X:     2.6031      Y:    -2.0242      Z:     0.0000     Total:     3.2975

*** Psi4 exiting successfully. Buy a developer a beer!
