                               Psi4 1.3.2 release

  ==> Input File <==

--------------------------------------------------------------------------
#psi4
#
memory 32 gb

molecule  {
-1 1
  S       -1.3371042    -0.1571521     0.0000000
  O        0.9008660     1.3391190     0.0000000
  C        1.2796100    -1.0089470     0.0000000
  C        0.3525050     0.2195930    -0.0000010
  H        1.0855710    -1.6283600     0.8805770
  H        2.3240130    -0.6783680    -0.0000170
  H        1.0855470    -1.6283820    -0.8805570
units angstrom
no_reorient  #important for SAPT in psi4, default
symmetry c1  #important for SAPT in psi4, default
}

set PROPERTIES_ORIGIN ["COM"]
properties('MP2/aug-cc-pvtz', properties = ['dipole'])
--------------------------------------------------------------------------

    Molecular point group: c1
  Charge       = -1
  Multiplicity = 1
  Basis Set: AUG-CC-PVTZ
    Blend: AUG-CC-PVTZ
  Basis Set: (AUG-CC-PVTZ AUX)
    Blend: AUG-CC-PVTZ-JKFIT

    Orbital Energies [Eh]
    ---------------------

    Doubly Occupied:

       1A    -91.698098     2A    -20.345723     3A    -11.160412
       4A    -11.068726     5A     -8.700691     6A     -6.382254
       7A     -6.380730     8A     -6.380307     9A     -1.171317
      10A     -0.841327    11A     -0.731374    12A     -0.524754
      13A     -0.425133    14A     -0.424447    15A     -0.423497
      16A     -0.344007    17A     -0.317794    18A     -0.205869
      19A     -0.137013    20A     -0.127792

  @DF-RHF Final Energy:  -549.98566458105483

   => Energetics <=

    Nuclear Repulsion Energy =            142.8203987404321254
    One-Electron Energy =               -1050.0295973014021911
    Two-Electron Energy =                 357.2235339799153166
    Total Energy =                       -549.9856645810548343
  Basis Set: (AUG-CC-PVTZ AUX)
    Blend: AUG-CC-PVTZ-RI
    Molecular point group: c1

    Geometry (in Angstrom), charge = -1, multiplicity = 1:

       Center              X                  Y                   Z               Mass
    ------------   -----------------  -----------------  -----------------  -----------------
         S           -1.280763296088    -0.196576655421     0.000000119702    31.972071174400
         O            0.957206903912     1.299694444579     0.000000119702    15.994914619570
         C            1.335950903912    -1.048371555421     0.000000119702    12.000000000000
         C            0.408845903912     0.180168444579    -0.000000880298    12.000000000000
         H            1.141911903912    -1.667784555421     0.880577119702     1.007825032230
         H            2.380353903912    -0.717792555421    -0.000016880298     1.007825032230
         H            1.141887903912    -1.667806555421    -0.880556880298     1.007825032230

  Basis Set: AUG-CC-PVTZ
    Blend: AUG-CC-PVTZ
  Basis Set: (AUG-CC-PVTZ AUX)
    Blend: AUG-CC-PVTZ-JKFIT
	 Reference Energy          =    -549.9856645810548343 [Eh]
	 Singles Energy            =      -0.0000000000000000 [Eh]
	 Same-Spin Energy          =      -0.2111617072636419 [Eh]
	 Opposite-Spin Energy      =      -0.6440179962349313 [Eh]
	 Correlation Energy        =      -0.8551797034985731 [Eh]
	 Total Energy              =    -550.8408442845534410 [Eh]

	 ================> DF-SCS-MP2 Energies <==================
	-----------------------------------------------------------
	 SCS Same-Spin Scale       =       0.3333333333333333 [-]
	 SCS Opposite-Spin Scale   =       1.2000000000000000 [-]
	 SCS Same-Spin Energy      =      -0.0703872357545473 [Eh]
	 SCS Opposite-Spin Energy  =      -0.7728215954819175 [Eh]
	 SCS Correlation Energy    =      -0.8432088312364648 [Eh]
	 SCS Total Energy          =    -550.8288734122912729 [Eh]
	-----------------------------------------------------------

  Dipole Moment: [D]
     X:     2.4808      Y:    -1.9936      Z:     0.0000     Total:     3.1826

*** Psi4 exiting successfully. Buy a developer a beer!
