                               Psi4 1.3.2 release

  ==> Input File <==

--------------------------------------------------------------------------
#psi4
#
memory 32 gb

molecule  {
-1 1
  S       -1.3434220    -0.1276070     0.0000000
  O        0.9008660     1.3391190     0.0000000
  C        1.2796100    -1.0089470     0.0000000
  C        0.4404620     0.2812719    -0.0000028
  H        1.0855710    -1.6283600     0.8805770
  H        2.3240130    -0.6783680    -0.0000170
  H        1.0855470    -1.6283820    -0.8805570
units angstrom
no_reorient  #important for SAPT in psi4, default
symmetry c1  #important for SAPT in psi4, default
}

set PROPERTIES_ORIGIN ["COM"]
properties('MP2/aug-cc-pvtz', properties = ['dipole'])
--------------------------------------------------------------------------

    Molecular point group: c1
  Charge       = -1
  Multiplicity = 1
  Basis Set: AUG-CC-PVTZ
    Blend: AUG-CC-PVTZ
  Basis Set: (AUG-CC-PVTZ AUX)
    Blend: AUG-CC-PVTZ-JKFIT

    Orbital Energies [Eh]
    ---------------------

    Doubly Occupied:

       1A    -91.686745     2A    -20.366645     3A    -11.158857
       4A    -11.071733     5A     -8.687637     6A     -6.368981
       7A     -6.367617     8A     -6.367336     9A     -1.248564
      10A     -0.839582    11A     -0.702284    12A     -0.542868
      13A     -0.461892    14A     -0.436346    15A     -0.426713
      16A     -0.365076    17A     -0.356450    18A     -0.186776
      19A     -0.123549    20A     -0.115601

  @DF-RHF Final Energy:  -549.97997738042204

   => Energetics <=

    Nuclear Repulsion Energy =            142.8331574842059410
    One-Electron Energy =               -1049.8637666827360135
    Two-Electron Energy =                 357.0506318181081156
    Total Energy =                       -549.9799773804220422
  Basis Set: (AUG-CC-PVTZ AUX)
    Blend: AUG-CC-PVTZ-RI
    Molecular point group: c1

    Geometry (in Angstrom), charge = -1, multiplicity = 1:

       Center              X                  Y                   Z               Mass
    ------------   -----------------  -----------------  -----------------  -----------------
         S           -1.298462421641    -0.189497944080     0.000000407739    31.972071174400
         O            0.945825578359     1.277228055920     0.000000407739    15.994914619570
         C            1.324569578359    -1.070837944080     0.000000407739    12.000000000000
         C            0.485421578359     0.219380955920    -0.000002392261    12.000000000000
         H            1.130530578359    -1.690250944080     0.880577407739     1.007825032230
         H            2.368972578359    -0.740258944080    -0.000016592261     1.007825032230
         H            1.130506578359    -1.690272944080    -0.880556592261     1.007825032230

  Basis Set: AUG-CC-PVTZ
    Blend: AUG-CC-PVTZ
  Basis Set: (AUG-CC-PVTZ AUX)
    Blend: AUG-CC-PVTZ-JKFIT
	 Reference Energy          =    -549.9799773804220422 [Eh]
	 Singles Energy            =      -0.0000000000000000 [Eh]
	 Same-Spin Energy          =      -0.2084313209558138 [Eh]
	 Opposite-Spin Energy      =      -0.6391730405586084 [Eh]
	 Correlation Energy        =      -0.8476043615144222 [Eh]
	 Total Energy              =    -550.8275817419364557 [Eh]

	 ================> DF-SCS-MP2 Energies <==================
	-----------------------------------------------------------
	 SCS Same-Spin Scale       =       0.3333333333333333 [-]
	 SCS Opposite-Spin Scale   =       1.2000000000000000 [-]
	 SCS Same-Spin Energy      =      -0.0694771069852713 [Eh]
	 SCS Opposite-Spin Energy  =      -0.7670076486703300 [Eh]
	 SCS Correlation Energy    =      -0.8364847556556012 [Eh]
	 SCS Total Energy          =    -550.8164621360776891 [Eh]
	-----------------------------------------------------------

  Dipole Moment: [D]
     X:     3.6450      Y:    -1.4604      Z:     0.0000     Total:     3.9266

*** Psi4 exiting successfully. Buy a developer a beer!
