                               Psi4 1.3.2 release

  ==> Input File <==

--------------------------------------------------------------------------
#psi4
#
memory 32 gb

molecule  {
-1 1
  S       -1.3150714    -0.2450631     0.0000001
  O        0.9008660     1.3391190     0.0000000
  C        1.2796100    -1.0089470     0.0000000
  C        0.3525050     0.2195930    -0.0000010
  H        1.0855710    -1.6283600     0.8805770
  H        2.3240130    -0.6783680    -0.0000170
  H        1.0855470    -1.6283820    -0.8805570
units angstrom
no_reorient  #important for SAPT in psi4, default
symmetry c1  #important for SAPT in psi4, default
}

set PROPERTIES_ORIGIN ["COM"]
properties('MP2/aug-cc-pvtz', properties = ['dipole'])
--------------------------------------------------------------------------

    Molecular point group: c1
  Charge       = -1
  Multiplicity = 1
  Basis Set: AUG-CC-PVTZ
    Blend: AUG-CC-PVTZ
  Basis Set: (AUG-CC-PVTZ AUX)
    Blend: AUG-CC-PVTZ-JKFIT

    Orbital Energies [Eh]
    ---------------------

    Doubly Occupied:

       1A    -91.698964     2A    -20.347935     3A    -11.160998
       4A    -11.065679     5A     -8.701631     6A     -6.383191
       7A     -6.381660     8A     -6.381233     9A     -1.172254
      10A     -0.842545    11A     -0.730011    12A     -0.524689
      13A     -0.424082    14A     -0.423682    15A     -0.421985
      16A     -0.345086    17A     -0.318156    18A     -0.205730
      19A     -0.138644    20A     -0.128079

  @DF-RHF Final Energy:  -549.98401491958816

   => Energetics <=

    Nuclear Repulsion Energy =            142.9872753532847014
    One-Electron Energy =               -1050.3501110609431635
    Two-Electron Energy =                 357.3788207880702998
    Total Energy =                       -549.9840149195881622
  Basis Set: (AUG-CC-PVTZ AUX)
    Blend: AUG-CC-PVTZ-RI
    Molecular point group: c1

    Geometry (in Angstrom), charge = -1, multiplicity = 1:

       Center              X                  Y                   Z               Mass
    ------------   -----------------  -----------------  -----------------  -----------------
         S           -1.268124147512    -0.247006931665     0.000000177067    31.972071174400
         O            0.947813252488     1.337175168335     0.000000077067    15.994914619570
         C            1.326557252488    -1.010890831665     0.000000077067    12.000000000000
         C            0.399452252488     0.217649168335    -0.000000922933    12.000000000000
         H            1.132518252488    -1.630303831665     0.880577077067     1.007825032230
         H            2.370960252488    -0.680311831665    -0.000016922933     1.007825032230
         H            1.132494252488    -1.630325831665    -0.880556922933     1.007825032230

  Basis Set: AUG-CC-PVTZ
    Blend: AUG-CC-PVTZ
  Basis Set: (AUG-CC-PVTZ AUX)
    Blend: AUG-CC-PVTZ-JKFIT
	 Reference Energy          =    -549.9840149195881622 [Eh]
	 Singles Energy            =      -0.0000000000000000 [Eh]
	 Same-Spin Energy          =      -0.2113779605926371 [Eh]
	 Opposite-Spin Energy      =      -0.6443817176692579 [Eh]
	 Correlation Energy        =      -0.8557596782618950 [Eh]
	 Total Energy              =    -550.8397745978500097 [Eh]

	 ================> DF-SCS-MP2 Energies <==================
	-----------------------------------------------------------
	 SCS Same-Spin Scale       =       0.3333333333333333 [-]
	 SCS Opposite-Spin Scale   =       1.2000000000000000 [-]
	 SCS Same-Spin Energy      =      -0.0704593201975457 [Eh]
	 SCS Opposite-Spin Energy  =      -0.7732580612031095 [Eh]
	 SCS Correlation Energy    =      -0.8437173814006551 [Eh]
	 SCS Total Energy          =    -550.8277323009888278 [Eh]
	-----------------------------------------------------------

  Dipole Moment: [D]
     X:     2.4137      Y:    -1.9315      Z:     0.0000     Total:     3.0914

*** Psi4 exiting successfully. Buy a developer a beer!
