                               Psi4 1.3.2 release

  ==> Input File <==

--------------------------------------------------------------------------
#psi4
#
memory 32 gb

molecule  {
-1 1
  S       -1.3434220    -0.1276070     0.0000000
  O        0.9008660     1.3391190     0.0000000
  C        1.2796100    -1.0089470     0.0000000
  C        0.4504730     0.2396496    -0.0000011
  H        1.0855710    -1.6283600     0.8805770
  H        2.3240130    -0.6783680    -0.0000170
  H        1.0855470    -1.6283820    -0.8805570
units angstrom
no_reorient  #important for SAPT in psi4, default
symmetry c1  #important for SAPT in psi4, default
}

set PROPERTIES_ORIGIN ["COM"]
properties('MP2/aug-cc-pvtz', properties = ['dipole'])
--------------------------------------------------------------------------

    Molecular point group: c1
  Charge       = -1
  Multiplicity = 1
  Basis Set: AUG-CC-PVTZ
    Blend: AUG-CC-PVTZ
  Basis Set: (AUG-CC-PVTZ AUX)
    Blend: AUG-CC-PVTZ-JKFIT

    Orbital Energies [Eh]
    ---------------------

    Doubly Occupied:

       1A    -91.688412     2A    -20.362477     3A    -11.160851
       4A    -11.074182     5A     -8.689145     6A     -6.370481
       7A     -6.369136     8A     -6.368841     9A     -1.221403
      10A     -0.851700    11A     -0.702514    12A     -0.541420
      13A     -0.454006    14A     -0.438073    15A     -0.432476
      16A     -0.356950    17A     -0.342227    18A     -0.192798
      19A     -0.123748    20A     -0.116583

  @DF-RHF Final Energy:  -549.98266741545717

   => Energetics <=

    Nuclear Repulsion Energy =            142.5848678963638747
    One-Electron Energy =               -1049.4202223351853718
    Two-Electron Energy =                 356.8526870233642967
    Total Energy =                       -549.9826674154571720
  Basis Set: (AUG-CC-PVTZ AUX)
    Blend: AUG-CC-PVTZ-RI
    Molecular point group: c1

    Geometry (in Angstrom), charge = -1, multiplicity = 1:

       Center              X                  Y                   Z               Mass
    ------------   -----------------  -----------------  -----------------  -----------------
         S           -1.300064385391    -0.182837528954     0.000000135704    31.972071174400
         O            0.944223614609     1.283888471046     0.000000135704    15.994914619570
         C            1.322967614609    -1.064177528954     0.000000135704    12.000000000000
         C            0.493830614609     0.184419071046    -0.000000964296    12.000000000000
         H            1.128928614609    -1.683590528954     0.880577135704     1.007825032230
         H            2.367370614609    -0.733598528954    -0.000016864296     1.007825032230
         H            1.128904614609    -1.683612528954    -0.880556864296     1.007825032230

  Basis Set: AUG-CC-PVTZ
    Blend: AUG-CC-PVTZ
  Basis Set: (AUG-CC-PVTZ AUX)
    Blend: AUG-CC-PVTZ-JKFIT
	 Reference Energy          =    -549.9826674154571720 [Eh]
	 Singles Energy            =      -0.0000000000000000 [Eh]
	 Same-Spin Energy          =      -0.2092967152084517 [Eh]
	 Opposite-Spin Energy      =      -0.6409191650682259 [Eh]
	 Correlation Energy        =      -0.8502158802766776 [Eh]
	 Total Energy              =    -550.8328832957338363 [Eh]

	 ================> DF-SCS-MP2 Energies <==================
	-----------------------------------------------------------
	 SCS Same-Spin Scale       =       0.3333333333333333 [-]
	 SCS Opposite-Spin Scale   =       1.2000000000000000 [-]
	 SCS Same-Spin Energy      =      -0.0697655717361506 [Eh]
	 SCS Opposite-Spin Energy  =      -0.7691029980818710 [Eh]
	 SCS Correlation Energy    =      -0.8388685698180216 [Eh]
	 SCS Total Energy          =    -550.8215359852752044 [Eh]
	-----------------------------------------------------------

  Dipole Moment: [D]
     X:     3.6086      Y:    -1.7160      Z:     0.0000     Total:     3.9958

*** Psi4 exiting successfully. Buy a developer a beer!
