                               Psi4 1.3.2 release

  ==> Input File <==

--------------------------------------------------------------------------
#psi4
#
memory 32 gb

molecule  {
-1 1
  S       -1.3545060    -0.0682085    -0.0000001
  O        0.9008660     1.3391190     0.0000000
  C        1.2796100    -1.0089470     0.0000000
  C        0.3525050     0.2195930    -0.0000010
  H        1.0855710    -1.6283600     0.8805770
  H        2.3240130    -0.6783680    -0.0000170
  H        1.0855470    -1.6283820    -0.8805570
units angstrom
no_reorient  #important for SAPT in psi4, default
symmetry c1  #important for SAPT in psi4, default
}

set PROPERTIES_ORIGIN ["COM"]
properties('MP2/aug-cc-pvtz', properties = ['dipole'])
--------------------------------------------------------------------------

    Molecular point group: c1
  Charge       = -1
  Multiplicity = 1
  Basis Set: AUG-CC-PVTZ
    Blend: AUG-CC-PVTZ
  Basis Set: (AUG-CC-PVTZ AUX)
    Blend: AUG-CC-PVTZ-JKFIT

    Orbital Energies [Eh]
    ---------------------

    Doubly Occupied:

       1A    -91.697152     2A    -20.343500     3A    -11.159792
       4A    -11.071745     5A     -8.699682     6A     -6.381247
       7A     -6.379721     8A     -6.379303     9A     -1.170464
      10A     -0.840465    11A     -0.732306    12A     -0.524963
      13A     -0.426674    14A     -0.426020    15A     -0.423707
      16A     -0.342889    17A     -0.317423    18A     -0.206071
      19A     -0.135245    20A     -0.126862

  @DF-RHF Final Energy:  -549.98596453590096

   => Energetics <=

    Nuclear Repulsion Energy =            142.7103491496305026
    One-Electron Energy =               -1049.8221659285986789
    Two-Electron Energy =                 357.1258522430672997
    Total Energy =                       -549.9859645359008482
  Basis Set: (AUG-CC-PVTZ AUX)
    Blend: AUG-CC-PVTZ-RI
    Molecular point group: c1

    Geometry (in Angstrom), charge = -1, multiplicity = 1:

       Center              X                  Y                   Z               Mass
    ------------   -----------------  -----------------  -----------------  -----------------
         S           -1.290745864608    -0.145554026648     0.000000062337    31.972071174400
         O            0.964626135392     1.261773473352     0.000000162337    15.994914619570
         C            1.343370135392    -1.086292526648     0.000000162337    12.000000000000
         C            0.416265135392     0.142247473352    -0.000000837663    12.000000000000
         H            1.149331135392    -1.705705526648     0.880577162337     1.007825032230
         H            2.387773135392    -0.755713526648    -0.000016837663     1.007825032230
         H            1.149307135392    -1.705727526648    -0.880556837663     1.007825032230

  Basis Set: AUG-CC-PVTZ
    Blend: AUG-CC-PVTZ
  Basis Set: (AUG-CC-PVTZ AUX)
    Blend: AUG-CC-PVTZ-JKFIT
	 Reference Energy          =    -549.9859645359009619 [Eh]
	 Singles Energy            =      -0.0000000000000000 [Eh]
	 Same-Spin Energy          =      -0.2109968189694761 [Eh]
	 Opposite-Spin Energy      =      -0.6437575413789869 [Eh]
	 Correlation Energy        =      -0.8547543603484631 [Eh]
	 Total Energy              =    -550.8407188962494274 [Eh]

	 ================> DF-SCS-MP2 Energies <==================
	-----------------------------------------------------------
	 SCS Same-Spin Scale       =       0.3333333333333333 [-]
	 SCS Opposite-Spin Scale   =       1.2000000000000000 [-]
	 SCS Same-Spin Energy      =      -0.0703322729898254 [Eh]
	 SCS Opposite-Spin Energy  =      -0.7725090496547843 [Eh]
	 SCS Correlation Energy    =      -0.8428413226446096 [Eh]
	 SCS Total Energy          =    -550.8288058585455929 [Eh]
	-----------------------------------------------------------

  Dipole Moment: [D]
     X:     2.5523      Y:    -2.0572      Z:     0.0000     Total:     3.2781

*** Psi4 exiting successfully. Buy a developer a beer!
