                               Psi4 1.3.2 release

  ==> Input File <==

--------------------------------------------------------------------------
#psi4
#
memory 32 gb

molecule  {
-1 1
  S       -1.3434220    -0.1276070     0.0000000
  O        0.7808397     1.3903055    -0.0000002
  C        1.2796100    -1.0089470     0.0000000
  C        0.3525050     0.2195930    -0.0000010
  H        1.0855710    -1.6283600     0.8805770
  H        2.3240130    -0.6783680    -0.0000170
  H        1.0855470    -1.6283820    -0.8805570
units angstrom
no_reorient  #important for SAPT in psi4, default
symmetry c1  #important for SAPT in psi4, default
}

set PROPERTIES_ORIGIN ["COM"]
properties('MP2/aug-cc-pvtz', properties = ['dipole'])
--------------------------------------------------------------------------

    Molecular point group: c1
  Charge       = -1
  Multiplicity = 1
  Basis Set: AUG-CC-PVTZ
    Blend: AUG-CC-PVTZ
  Basis Set: (AUG-CC-PVTZ AUX)
    Blend: AUG-CC-PVTZ-JKFIT

    Orbital Energies [Eh]
    ---------------------

    Doubly Occupied:

       1A    -91.691913     2A    -20.344990     3A    -11.160592
       4A    -11.076849     5A     -8.694751     6A     -6.376299
       7A     -6.374798     8A     -6.374387     9A     -1.170286
      10A     -0.845862    11A     -0.728663    12A     -0.525591
      13A     -0.429807    14A     -0.429381    15A     -0.424484
      16A     -0.344883    17A     -0.319400    18A     -0.204442
      19A     -0.131226    20A     -0.122120

  @DF-RHF Final Energy:  -549.98336762272527

   => Energetics <=

    Nuclear Repulsion Energy =            143.0177487181999254
    One-Electron Energy =               -1050.4607830867703342
    Two-Electron Energy =                 357.4596667458450838
    Total Energy =                       -549.9833676227252681
  Basis Set: (AUG-CC-PVTZ AUX)
    Blend: AUG-CC-PVTZ-RI
    Molecular point group: c1

    Geometry (in Angstrom), charge = -1, multiplicity = 1:

       Center              X                  Y                   Z               Mass
    ------------   -----------------  -----------------  -----------------  -----------------
         S           -1.258786783096    -0.190545769313     0.000000162361    31.972071174400
         O            0.865474916904     1.327366730687    -0.000000037639    15.994914619570
         C            1.364245216904    -1.071885769313     0.000000162361    12.000000000000
         C            0.437140216904     0.156654230687    -0.000000837639    12.000000000000
         H            1.170206216904    -1.691298769313     0.880577162361     1.007825032230
         H            2.408648216904    -0.741306769313    -0.000016837639     1.007825032230
         H            1.170182216904    -1.691320769313    -0.880556837639     1.007825032230

  Basis Set: AUG-CC-PVTZ
    Blend: AUG-CC-PVTZ
  Basis Set: (AUG-CC-PVTZ AUX)
    Blend: AUG-CC-PVTZ-JKFIT
	 Reference Energy          =    -549.9833676227252681 [Eh]
	 Singles Energy            =      -0.0000000000000000 [Eh]
	 Same-Spin Energy          =      -0.2111994616900156 [Eh]
	 Opposite-Spin Energy      =      -0.6439961053627735 [Eh]
	 Correlation Energy        =      -0.8551955670527891 [Eh]
	 Total Energy              =    -550.8385631897780286 [Eh]

	 ================> DF-SCS-MP2 Energies <==================
	-----------------------------------------------------------
	 SCS Same-Spin Scale       =       0.3333333333333333 [-]
	 SCS Opposite-Spin Scale   =       1.2000000000000000 [-]
	 SCS Same-Spin Energy      =      -0.0703998205633385 [Eh]
	 SCS Opposite-Spin Energy  =      -0.7727953264353282 [Eh]
	 SCS Correlation Energy    =      -0.8431951469986667 [Eh]
	 SCS Total Energy          =    -550.8265627697239779 [Eh]
	-----------------------------------------------------------

  Dipole Moment: [D]
     X:     2.8065      Y:    -2.0284      Z:     0.0000     Total:     3.4627

*** Psi4 exiting successfully. Buy a developer a beer!
