                               Psi4 1.3.2 release

  ==> Input File <==

--------------------------------------------------------------------------
#psi4
#
memory 32 gb

molecule  {
-1 1
  S       -1.3434220    -0.1276070     0.0000000
  O        0.9008660     1.3391190     0.0000000
  C        1.2796100    -1.0089470     0.0000000
  C        0.3740872     0.2355861    -0.0000014
  H        1.0855710    -1.6283600     0.8805770
  H        2.3240130    -0.6783680    -0.0000170
  H        1.0855470    -1.6283820    -0.8805570
units angstrom
no_reorient  #important for SAPT in psi4, default
symmetry c1  #important for SAPT in psi4, default
}

set PROPERTIES_ORIGIN ["COM"]
properties('MP2/aug-cc-pvtz', properties = ['dipole'])
--------------------------------------------------------------------------

    Molecular point group: c1
  Charge       = -1
  Multiplicity = 1
  Basis Set: AUG-CC-PVTZ
    Blend: AUG-CC-PVTZ
  Basis Set: (AUG-CC-PVTZ AUX)
    Blend: AUG-CC-PVTZ-JKFIT

    Orbital Energies [Eh]
    ---------------------

    Doubly Occupied:

       1A    -91.695127     2A    -20.350478     3A    -11.159926
       4A    -11.070034     5A     -8.697201     6A     -6.378708
       7A     -6.377228     8A     -6.376845     9A     -1.189774
      10A     -0.840194    11A     -0.724324    12A     -0.528816
      13A     -0.433144    14A     -0.427433    15A     -0.425280
      16A     -0.348177    17A     -0.327117    18A     -0.202572
      19A     -0.133343    20A     -0.124645

  @DF-RHF Final Energy:  -549.98742635357758

   => Energetics <=

    Nuclear Repulsion Energy =            142.7663364795515974
    One-Electron Energy =               -1049.8867903939467396
    Two-Electron Energy =                 357.1330275608175953
    Total Energy =                       -549.9874263535775754
  Basis Set: (AUG-CC-PVTZ AUX)
    Blend: AUG-CC-PVTZ-RI
    Molecular point group: c1

    Geometry (in Angstrom), charge = -1, multiplicity = 1:

       Center              X                  Y                   Z               Mass
    ------------   -----------------  -----------------  -----------------  -----------------
         S           -1.287841102735    -0.182187286251     0.000000183710    31.972071174400
         O            0.956446897265     1.284538713749     0.000000183710    15.994914619570
         C            1.335190897265    -1.063527286251     0.000000183710    12.000000000000
         C            0.429668097265     0.181005813749    -0.000001216290    12.000000000000
         H            1.141151897265    -1.682940286251     0.880577183710     1.007825032230
         H            2.379593897265    -0.732948286251    -0.000016816290     1.007825032230
         H            1.141127897265    -1.682962286251    -0.880556816290     1.007825032230

  Basis Set: AUG-CC-PVTZ
    Blend: AUG-CC-PVTZ
  Basis Set: (AUG-CC-PVTZ AUX)
    Blend: AUG-CC-PVTZ-JKFIT
	 Reference Energy          =    -549.9874263535775754 [Eh]
	 Singles Energy            =      -0.0000000000000000 [Eh]
	 Same-Spin Energy          =      -0.2103399124046622 [Eh]
	 Opposite-Spin Energy      =      -0.6425894840086531 [Eh]
	 Correlation Energy        =      -0.8529293964133153 [Eh]
	 Total Energy              =    -550.8403557499908629 [Eh]

	 ================> DF-SCS-MP2 Energies <==================
	-----------------------------------------------------------
	 SCS Same-Spin Scale       =       0.3333333333333333 [-]
	 SCS Opposite-Spin Scale   =       1.2000000000000000 [-]
	 SCS Same-Spin Energy      =      -0.0701133041348874 [Eh]
	 SCS Opposite-Spin Energy  =      -0.7711073808103838 [Eh]
	 SCS Correlation Energy    =      -0.8412206849452711 [Eh]
	 SCS Total Energy          =    -550.8286470385228313 [Eh]
	-----------------------------------------------------------

  Dipole Moment: [D]
     X:     2.7817      Y:    -1.8783      Z:     0.0000     Total:     3.3565

*** Psi4 exiting successfully. Buy a developer a beer!
