                               Psi4 1.3.2 release

  ==> Input File <==

--------------------------------------------------------------------------
#psi4
#
memory 32 gb

molecule  {
-1 1
  S       -1.3434220    -0.1276070     0.0000000
  O        0.9008660     1.3391190     0.0000000
  C        1.2796100    -1.0089470     0.0000000
  C        0.4404813     0.3992042    -0.0000008
  H        1.0855710    -1.6283600     0.8805770
  H        2.3240130    -0.6783680    -0.0000170
  H        1.0855470    -1.6283820    -0.8805570
units angstrom
no_reorient  #important for SAPT in psi4, default
symmetry c1  #important for SAPT in psi4, default
}

set PROPERTIES_ORIGIN ["COM"]
properties('MP2/aug-cc-pvtz', properties = ['dipole'])
--------------------------------------------------------------------------

    Molecular point group: c1
  Charge       = -1
  Multiplicity = 1
  Basis Set: AUG-CC-PVTZ
    Blend: AUG-CC-PVTZ
  Basis Set: (AUG-CC-PVTZ AUX)
    Blend: AUG-CC-PVTZ-JKFIT

    Orbital Energies [Eh]
    ---------------------

    Doubly Occupied:

       1A    -91.681233     2A    -20.384759     3A    -11.154226
       4A    -11.062571     5A     -8.682019     6A     -6.363300
       7A     -6.361904     8A     -6.361692     9A     -1.345141
      10A     -0.811866    11A     -0.694290    12A     -0.564267
      13A     -0.497403    14A     -0.463914    15A     -0.412743
      16A     -0.383060    17A     -0.382931    18A     -0.163722
      19A     -0.119796    20A     -0.108093

  @DF-RHF Final Energy:  -549.92701489255705

   => Energetics <=

    Nuclear Repulsion Energy =            143.7152343356818847
    One-Electron Energy =               -1051.2866418482153676
    Two-Electron Energy =                 357.6443926199764860
    Total Energy =                       -549.9270148925570538
  Basis Set: (AUG-CC-PVTZ AUX)
    Blend: AUG-CC-PVTZ-RI
    Molecular point group: c1

    Geometry (in Angstrom), charge = -1, multiplicity = 1:

       Center              X                  Y                   Z               Mass
    ------------   -----------------  -----------------  -----------------  -----------------
         S           -1.298465510033    -0.208369512319     0.000000087698    31.972071174400
         O            0.945822489967     1.258356487681     0.000000087698    15.994914619570
         C            1.324566489967    -1.089709512319     0.000000087698    12.000000000000
         C            0.485437789967     0.318441687681    -0.000000712302    12.000000000000
         H            1.130527489967    -1.709122512319     0.880577087698     1.007825032230
         H            2.368969489967    -0.759130512319    -0.000016912302     1.007825032230
         H            1.130503489967    -1.709144512319    -0.880556912302     1.007825032230

  Basis Set: AUG-CC-PVTZ
    Blend: AUG-CC-PVTZ
  Basis Set: (AUG-CC-PVTZ AUX)
    Blend: AUG-CC-PVTZ-JKFIT
	 Reference Energy          =    -549.9270148925570538 [Eh]
	 Singles Energy            =      -0.0000000000000000 [Eh]
	 Same-Spin Energy          =      -0.2063723822906949 [Eh]
	 Opposite-Spin Energy      =      -0.6348571169982631 [Eh]
	 Correlation Energy        =      -0.8412294992889580 [Eh]
	 Total Energy              =    -550.7682443918459967 [Eh]

	 ================> DF-SCS-MP2 Energies <==================
	-----------------------------------------------------------
	 SCS Same-Spin Scale       =       0.3333333333333333 [-]
	 SCS Opposite-Spin Scale   =       1.2000000000000000 [-]
	 SCS Same-Spin Energy      =      -0.0687907940968983 [Eh]
	 SCS Opposite-Spin Energy  =      -0.7618285403979157 [Eh]
	 SCS Correlation Energy    =      -0.8306193344948140 [Eh]
	 SCS Total Energy          =    -550.7576342270518808 [Eh]
	-----------------------------------------------------------

  Dipole Moment: [D]
     X:     3.9951      Y:    -0.5440      Z:     0.0000     Total:     4.0319

*** Psi4 exiting successfully. Buy a developer a beer!
