                               Psi4 1.3.2 release

  ==> Input File <==

--------------------------------------------------------------------------
#psi4
#
memory 32 gb

molecule  {
-1 1
  S       -1.3302718    -0.1865825    -0.0000001
  O        0.9008660     1.3391190     0.0000000
  C        1.2796100    -1.0089470     0.0000000
  C        0.3525050     0.2195930    -0.0000010
  H        1.0855710    -1.6283600     0.8805770
  H        2.3240130    -0.6783680    -0.0000170
  H        1.0855470    -1.6283820    -0.8805570
units angstrom
no_reorient  #important for SAPT in psi4, default
symmetry c1  #important for SAPT in psi4, default
}

set PROPERTIES_ORIGIN ["COM"]
properties('MP2/aug-cc-pvtz', properties = ['dipole'])
--------------------------------------------------------------------------

    Molecular point group: c1
  Charge       = -1
  Multiplicity = 1
  Basis Set: AUG-CC-PVTZ
    Blend: AUG-CC-PVTZ
  Basis Set: (AUG-CC-PVTZ AUX)
    Blend: AUG-CC-PVTZ-JKFIT

    Orbital Energies [Eh]
    ---------------------

    Doubly Occupied:

       1A    -91.698396     2A    -20.346462     3A    -11.160611
       4A    -11.067713     5A     -8.701012     6A     -6.382575
       7A     -6.381049     8A     -6.380624     9A     -1.171621
      10A     -0.841692    11A     -0.730969    12A     -0.524716
      13A     -0.424638    14A     -0.424210    15A     -0.423118
      16A     -0.344369    17A     -0.317916    18A     -0.205817
      19A     -0.137572    20A     -0.127961

  @DF-RHF Final Energy:  -549.98526706724022

   => Energetics <=

    Nuclear Repulsion Energy =            142.8696597572641167
    One-Electron Energy =               -1050.1237735146487466
    Two-Electron Energy =                 357.2688466901444144
    Total Energy =                       -549.9852670672402155
  Basis Set: (AUG-CC-PVTZ AUX)
    Blend: AUG-CC-PVTZ-RI
    Molecular point group: c1

    Geometry (in Angstrom), charge = -1, multiplicity = 1:

       Center              X                  Y                   Z               Mass
    ------------   -----------------  -----------------  -----------------  -----------------
         S           -1.276843879639    -0.213459448268     0.000000062337    31.972071174400
         O            0.954293920361     1.312242051732     0.000000162337    15.994914619570
         C            1.333037920361    -1.035823948268     0.000000162337    12.000000000000
         C            0.405932920361     0.192716051732    -0.000000837663    12.000000000000
         H            1.138998920361    -1.655236948268     0.880577162337     1.007825032230
         H            2.377440920361    -0.705244948268    -0.000016837663     1.007825032230
         H            1.138974920361    -1.655258948268    -0.880556837663     1.007825032230

  Basis Set: AUG-CC-PVTZ
    Blend: AUG-CC-PVTZ
  Basis Set: (AUG-CC-PVTZ AUX)
    Blend: AUG-CC-PVTZ-JKFIT
	 Reference Energy          =    -549.9852670672402155 [Eh]
	 Singles Energy            =      -0.0000000000000000 [Eh]
	 Same-Spin Energy          =      -0.2112278721401804 [Eh]
	 Opposite-Spin Energy      =      -0.6441275716019202 [Eh]
	 Correlation Energy        =      -0.8553554437421006 [Eh]
	 Total Energy              =    -550.8406225109823708 [Eh]

	 ================> DF-SCS-MP2 Energies <==================
	-----------------------------------------------------------
	 SCS Same-Spin Scale       =       0.3333333333333333 [-]
	 SCS Opposite-Spin Scale   =       1.2000000000000000 [-]
	 SCS Same-Spin Energy      =      -0.0704092907133935 [Eh]
	 SCS Opposite-Spin Energy  =      -0.7729530859223043 [Eh]
	 SCS Correlation Energy    =      -0.8433623766356977 [Eh]
	 SCS Total Energy          =    -550.8286294438759114 [Eh]
	-----------------------------------------------------------

  Dipole Moment: [D]
     X:     2.4580      Y:    -1.9728      Z:     0.0000     Total:     3.1517

*** Psi4 exiting successfully. Buy a developer a beer!
