                               Psi4 1.3.2 release

  ==> Input File <==

--------------------------------------------------------------------------
#psi4
#
memory 32 gb

molecule  {
-1 1
  S       -1.3434220    -0.1276070     0.0000000
  O        0.9776244     1.2981402     0.0000001
  C        1.2796100    -1.0089470     0.0000000
  C        0.3525050     0.2195930    -0.0000010
  H        1.0855710    -1.6283600     0.8805770
  H        2.3240130    -0.6783680    -0.0000170
  H        1.0855470    -1.6283820    -0.8805570
units angstrom
no_reorient  #important for SAPT in psi4, default
symmetry c1  #important for SAPT in psi4, default
}

set PROPERTIES_ORIGIN ["COM"]
properties('MP2/aug-cc-pvtz', properties = ['dipole'])
--------------------------------------------------------------------------

    Molecular point group: c1
  Charge       = -1
  Multiplicity = 1
  Basis Set: AUG-CC-PVTZ
    Blend: AUG-CC-PVTZ
  Basis Set: (AUG-CC-PVTZ AUX)
    Blend: AUG-CC-PVTZ-JKFIT

    Orbital Energies [Eh]
    ---------------------

    Doubly Occupied:

       1A    -91.701610     2A    -20.344776     3A    -11.160002
       4A    -11.064900     5A     -8.704009     6A     -6.385580
       7A     -6.384032     8A     -6.383606     9A     -1.171984
      10A     -0.837599    11A     -0.733466    12A     -0.524453
      13A     -0.424081    14A     -0.423218    15A     -0.420760
      16A     -0.342591    17A     -0.316428    18A     -0.205902
      19A     -0.139715    20A     -0.130440

  @DF-RHF Final Energy:  -549.98423985030308

   => Energetics <=

    Nuclear Repulsion Energy =            142.7103567304196474
    One-Electron Energy =               -1049.7908893779051596
    Two-Electron Energy =                 357.0962927971824001
    Total Energy =                       -549.9842398503030836
  Basis Set: (AUG-CC-PVTZ AUX)
    Blend: AUG-CC-PVTZ-RI
    Molecular point group: c1

    Geometry (in Angstrom), charge = -1, multiplicity = 1:

       Center              X                  Y                   Z               Mass
    ------------   -----------------  -----------------  -----------------  -----------------
         S           -1.300759514528    -0.170887587634     0.000000098373    31.972071174400
         O            1.020286885472     1.254859612366     0.000000198373    15.994914619570
         C            1.322272485472    -1.052227587634     0.000000098373    12.000000000000
         C            0.395167485472     0.176312412366    -0.000000901627    12.000000000000
         H            1.128233485472    -1.671640587634     0.880577098373     1.007825032230
         H            2.366675485472    -0.721648587634    -0.000016901627     1.007825032230
         H            1.128209485472    -1.671662587634    -0.880556901627     1.007825032230

  Basis Set: AUG-CC-PVTZ
    Blend: AUG-CC-PVTZ
  Basis Set: (AUG-CC-PVTZ AUX)
    Blend: AUG-CC-PVTZ-JKFIT
	 Reference Energy          =    -549.9842398503030836 [Eh]
	 Singles Energy            =      -0.0000000000000000 [Eh]
	 Same-Spin Energy          =      -0.2111538875482015 [Eh]
	 Opposite-Spin Energy      =      -0.6441167320518214 [Eh]
	 Correlation Energy        =      -0.8552706196000228 [Eh]
	 Total Energy              =    -550.8395104699030753 [Eh]

	 ================> DF-SCS-MP2 Energies <==================
	-----------------------------------------------------------
	 SCS Same-Spin Scale       =       0.3333333333333333 [-]
	 SCS Opposite-Spin Scale   =       1.2000000000000000 [-]
	 SCS Same-Spin Energy      =      -0.0703846291827338 [Eh]
	 SCS Opposite-Spin Energy  =      -0.7729400784621857 [Eh]
	 SCS Correlation Energy    =      -0.8433247076449195 [Eh]
	 SCS Total Energy          =    -550.8275645579479942 [Eh]
	-----------------------------------------------------------

  Dipole Moment: [D]
     X:     2.3123      Y:    -1.9815      Z:     0.0000     Total:     3.0451

*** Psi4 exiting successfully. Buy a developer a beer!
