                               Psi4 1.4a3.dev225

  ==> Input File <==

--------------------------------------------------------------------------
#psi4
#
memory 32 gb

molecule  {
-1 1
  S       -1.3434220    -0.1276070     0.0000000
  O        0.9008660     1.3391190     0.0000000
  C        1.2796100    -1.0089470     0.0000000
  C        0.3720986     0.2236043    -0.0000010
  H        1.0855710    -1.6283600     0.8805770
  H        2.3240130    -0.6783680    -0.0000170
  H        1.0855470    -1.6283820    -0.8805570
units angstrom
no_reorient  #important for SAPT in psi4, default
symmetry c1  #important for SAPT in psi4, default
}

set PROPERTIES_ORIGIN ["COM"]
properties('MP2/aug-cc-pvtz', properties = ['dipole'])
--------------------------------------------------------------------------

    Molecular point group: c1
  Charge       = -1
  Multiplicity = 1
  Basis Set: AUG-CC-PVTZ
    Blend: AUG-CC-PVTZ
  Basis Set: (AUG-CC-PVTZ AUX)
    Blend: AUG-CC-PVTZ-JKFIT

    Orbital Energies [Eh]
    ---------------------

    Doubly Occupied:

       1A    -91.695972     2A    -20.348525     3A    -11.160296
       4A    -11.070500     5A     -8.698102     6A     -6.379616
       7A     -6.378135     8A     -6.377741     9A     -1.181056
      10A     -0.842634    11A     -0.725846    12A     -0.528128
      13A     -0.429801    14A     -0.427903    15A     -0.426300
      16A     -0.345565    17A     -0.322355    18A     -0.204415
      19A     -0.133902    20A     -0.125396

  @DF-RHF Final Energy:  -549.98687840027526

   => Energetics <=

    Nuclear Repulsion Energy =            142.7261812689450267
    One-Electron Energy =               -1049.8217391919040438
    Two-Electron Energy =                 357.1086795226837012
    Total Energy =                       -549.9868784002752591
  Basis Set: (AUG-CC-PVTZ AUX)
    Blend: AUG-CC-PVTZ-RI
    Molecular point group: c1

    Geometry (in Angstrom), charge = -1, multiplicity = 1:

       Center              X                  Y                   Z               Mass
    ------------   -----------------  -----------------  -----------------  -----------------
         S           -1.287522886262    -0.180269954389     0.000000119702    31.972071174400
         O            0.956765113738     1.286456045611     0.000000119702    15.994914619570
         C            1.335509113738    -1.061609954389     0.000000119702    12.000000000000
         C            0.427997713738     0.170941345611    -0.000000880298    12.000000000000
         H            1.141470113738    -1.681022954389     0.880577119702     1.007825032230
         H            2.379912113738    -0.731030954389    -0.000016880298     1.007825032230
         H            1.141446113738    -1.681044954389    -0.880556880298     1.007825032230

  Basis Set: AUG-CC-PVTZ
    Blend: AUG-CC-PVTZ
  Basis Set: (AUG-CC-PVTZ AUX)
    Blend: AUG-CC-PVTZ-JKFIT
	 Reference Energy          =    -549.9868784002752591 [Eh]
	 Singles Energy            =      -0.0000000000000000 [Eh]
	 Same-Spin Energy          =      -0.2106646062793245 [Eh]
	 Opposite-Spin Energy      =      -0.6431960840996027 [Eh]
	 Correlation Energy        =      -0.8538606903789272 [Eh]
	 Total Energy              =    -550.8407390906542105 [Eh]

	 ================> DF-SCS-MP2 Energies <==================
	-----------------------------------------------------------
	 SCS Same-Spin Scale       =       0.3333333333333333 [-]
	 SCS Opposite-Spin Scale   =       1.2000000000000000 [-]
	 SCS Same-Spin Energy      =      -0.0702215354264415 [Eh]
	 SCS Opposite-Spin Energy  =      -0.7718353009195232 [Eh]
	 SCS Correlation Energy    =      -0.8420568363459647 [Eh]
	 SCS Total Energy          =    -550.8289352366211915 [Eh]
	-----------------------------------------------------------

  Dipole Moment: [D]
     X:     2.7237      Y:    -1.9549      Z:     0.0000     Total:     3.3526

*** Psi4 exiting successfully. Buy a developer a beer!
