                               Psi4 1.3.2 release

  ==> Input File <==

--------------------------------------------------------------------------
#psi4
#
memory 32 gb

molecule  {
-1 1
  S       -1.3434220    -0.1276070     0.0000000
  O        0.9008660     1.3391190     0.0000000
  C        1.2796100    -1.0089470     0.0000000
  C        0.3312052     0.2032257    -0.0000006
  H        1.0855710    -1.6283600     0.8805770
  H        2.3240130    -0.6783680    -0.0000170
  H        1.0855470    -1.6283820    -0.8805570
units angstrom
no_reorient  #important for SAPT in psi4, default
symmetry c1  #important for SAPT in psi4, default
}

set PROPERTIES_ORIGIN ["COM"]
properties('MP2/aug-cc-pvtz', properties = ['dipole'])
--------------------------------------------------------------------------

    Molecular point group: c1
  Charge       = -1
  Multiplicity = 1
  Basis Set: AUG-CC-PVTZ
    Blend: AUG-CC-PVTZ
  Basis Set: (AUG-CC-PVTZ AUX)
    Blend: AUG-CC-PVTZ-JKFIT

    Orbital Energies [Eh]
    ---------------------

    Doubly Occupied:

       1A    -91.700428     2A    -20.339384     3A    -11.160338
       4A    -11.069525     5A     -8.703548     6A     -6.385172
       7A     -6.383599     8A     -6.383135     9A     -1.152762
      10A     -0.842140    11A     -0.739046    12A     -0.521125
      13A     -0.424245    14A     -0.424199    15A     -0.414574
      16A     -0.339724    17A     -0.308658    18A     -0.208148
      19A     -0.139418    20A     -0.130388

  @DF-RHF Final Energy:  -549.98263926386767

   => Energetics <=

    Nuclear Repulsion Energy =            142.8053987114314793
    One-Electron Energy =               -1050.0369635334448049
    Two-Electron Energy =                 357.2489255581456291
    Total Energy =                       -549.9826392638676680
  Basis Set: (AUG-CC-PVTZ AUX)
    Blend: AUG-CC-PVTZ-RI
    Molecular point group: c1

    Geometry (in Angstrom), charge = -1, multiplicity = 1:

       Center              X                  Y                   Z               Mass
    ------------   -----------------  -----------------  -----------------  -----------------
         S           -1.280979109971    -0.177008963630     0.000000055694    31.972071174400
         O            0.963308890029     1.289717036370     0.000000055694    15.994914619570
         C            1.342052890029    -1.058348963630     0.000000055694    12.000000000000
         C            0.393648090029     0.153823736370    -0.000000544306    12.000000000000
         H            1.148013890029    -1.677761963630     0.880577055694     1.007825032230
         H            2.386455890029    -0.727769963630    -0.000016944306     1.007825032230
         H            1.147989890029    -1.677783963630    -0.880556944306     1.007825032230

  Basis Set: AUG-CC-PVTZ
    Blend: AUG-CC-PVTZ
  Basis Set: (AUG-CC-PVTZ AUX)
    Blend: AUG-CC-PVTZ-JKFIT
	 Reference Energy          =    -549.9826392638676680 [Eh]
	 Singles Energy            =      -0.0000000000000000 [Eh]
	 Same-Spin Energy          =      -0.2119086500757535 [Eh]
	 Opposite-Spin Energy      =      -0.6453248260667725 [Eh]
	 Correlation Energy        =      -0.8572334761425260 [Eh]
	 Total Energy              =    -550.8398727400101507 [Eh]

	 ================> DF-SCS-MP2 Energies <==================
	-----------------------------------------------------------
	 SCS Same-Spin Scale       =       0.3333333333333333 [-]
	 SCS Opposite-Spin Scale   =       1.2000000000000000 [-]
	 SCS Same-Spin Energy      =      -0.0706362166919178 [Eh]
	 SCS Opposite-Spin Energy  =      -0.7743897912801271 [Eh]
	 SCS Correlation Energy    =      -0.8450260079720449 [Eh]
	 SCS Total Energy          =    -550.8276652718396917 [Eh]
	-----------------------------------------------------------

  Dipole Moment: [D]
     X:     2.2320      Y:    -2.1493      Z:     0.0000     Total:     3.0986

*** Psi4 exiting successfully. Buy a developer a beer!
