                               Psi4 1.4a3.dev225

  ==> Input File <==

--------------------------------------------------------------------------
#psi4
#
memory 32 gb

molecule  {
-1 1
  S       -1.3434220    -0.1276070     0.0000000
  O        0.9008660     1.3391190     0.0000000
  C        1.2796100    -1.0089470     0.0000000
  C        0.3437074     0.2016319    -0.0000010
  H        1.0855710    -1.6283600     0.8805770
  H        2.3240130    -0.6783680    -0.0000170
  H        1.0855470    -1.6283820    -0.8805570
units angstrom
no_reorient  #important for SAPT in psi4, default
symmetry c1  #important for SAPT in psi4, default
}

set PROPERTIES_ORIGIN ["COM"]
properties('MP2/aug-cc-pvtz', properties = ['dipole'])
--------------------------------------------------------------------------

    Molecular point group: c1
  Charge       = -1
  Multiplicity = 1
  Basis Set: AUG-CC-PVTZ
    Blend: AUG-CC-PVTZ
  Basis Set: (AUG-CC-PVTZ AUX)
    Blend: AUG-CC-PVTZ-JKFIT

    Orbital Energies [Eh]
    ---------------------

    Doubly Occupied:

       1A    -91.699529     2A    -20.341121     3A    -11.160569
       4A    -11.070148     5A     -8.702337     6A     -6.383927
       7A     -6.382387     8A     -6.381940     9A     -1.156450
      10A     -0.843849    11A     -0.735702    12A     -0.523206
      13A     -0.425875    14A     -0.425732    15A     -0.417313
      16A     -0.339756    17A     -0.309985    18A     -0.208247
      19A     -0.137922    20A     -0.129211

  @DF-RHF Final Energy:  -549.98354844875143

   => Energetics <=

    Nuclear Repulsion Energy =            142.7514650081647574
    One-Electron Energy =               -1049.9196167247437188
    Two-Electron Energy =                 357.1846032678275265
    Total Energy =                       -549.9835484487514350
  Basis Set: (AUG-CC-PVTZ AUX)
    Blend: AUG-CC-PVTZ-RI
    Molecular point group: c1

    Geometry (in Angstrom), charge = -1, multiplicity = 1:

       Center              X                  Y                   Z               Mass
    ------------   -----------------  -----------------  -----------------  -----------------
         S           -1.282979716424    -0.176753923192     0.000000119702    31.972071174400
         O            0.961308283576     1.289972076808     0.000000119702    15.994914619570
         C            1.340052283576    -1.058093923192     0.000000119702    12.000000000000
         C            0.404149683576     0.152484976808    -0.000000880298    12.000000000000
         H            1.146013283576    -1.677506923192     0.880577119702     1.007825032230
         H            2.384455283576    -0.727514923192    -0.000016880298     1.007825032230
         H            1.145989283576    -1.677528923192    -0.880556880298     1.007825032230

  Basis Set: AUG-CC-PVTZ
    Blend: AUG-CC-PVTZ
  Basis Set: (AUG-CC-PVTZ AUX)
    Blend: AUG-CC-PVTZ-JKFIT
	 Reference Energy          =    -549.9835484487514350 [Eh]
	 Singles Energy            =      -0.0000000000000000 [Eh]
	 Same-Spin Energy          =      -0.2117114639699125 [Eh]
	 Opposite-Spin Energy      =      -0.6450212582597561 [Eh]
	 Correlation Energy        =      -0.8567327222296686 [Eh]
	 Total Energy              =    -550.8402811709811431 [Eh]

	 ================> DF-SCS-MP2 Energies <==================
	-----------------------------------------------------------
	 SCS Same-Spin Scale       =       0.3333333333333333 [-]
	 SCS Opposite-Spin Scale   =       1.2000000000000000 [-]
	 SCS Same-Spin Energy      =      -0.0705704879899708 [Eh]
	 SCS Opposite-Spin Energy  =      -0.7740255099117073 [Eh]
	 SCS Correlation Energy    =      -0.8445959979016781 [Eh]
	 SCS Total Energy          =    -550.8281444466531411 [Eh]
	-----------------------------------------------------------

  Dipole Moment: [D]
     X:     2.3585      Y:    -2.1353      Z:     0.0000     Total:     3.1815

*** Psi4 exiting successfully. Buy a developer a beer!
