                               Psi4 1.3.2 release

  ==> Input File <==

--------------------------------------------------------------------------
#psi4
#
memory 32 gb

molecule  {
0 1
  S        0.7637890    -0.7221230    -0.3122950
  O        0.7428910    -1.8740890     0.5977740
  O        1.1390870    -0.8496890    -1.7151490
  N        1.7366500     0.4402300     0.3626080
  N       -1.8489830    -0.7837230     0.4594430
  N       -1.3270270     1.0745880    -0.6709160
  C       -0.8811970    -0.0860610    -0.1982810
  C        1.4606880     0.7318840     1.7727460
  C        1.9603790     1.6404280    -0.4583390
  C       -3.1299033     0.0181376     0.4077294
  C       -2.6480900     1.1053220    -0.2992680
  H        1.3484140    -0.2039780     2.3191610
  H        0.5624770     1.3529910     1.8963580
  H        2.3234150     1.2701900     2.1711160
  H        2.1708410     1.3362470    -1.4821670
  H        2.8360500     2.1503740    -0.0502520
  H        1.0944390     2.3121220    -0.4419640
  H       -1.7008040    -1.6902470     0.8932800
  H       -3.9262080    -0.3702980     0.8362390
  H       -3.2806590     1.9452040    -0.5535070
units angstrom
no_reorient  #important for SAPT in psi4, default
symmetry c1  #important for SAPT in psi4, default
}

set PROPERTIES_ORIGIN ["COM"]
properties('MP2/aug-cc-pvtz', properties = ['dipole'])
--------------------------------------------------------------------------

    Molecular point group: c1
  Charge       = 0
  Multiplicity = 1
  Basis Set: AUG-CC-PVTZ
    Blend: AUG-CC-PVTZ
  Basis Set: (AUG-CC-PVTZ AUX)
    Blend: AUG-CC-PVTZ-JKFIT

    Orbital Energies [Eh]
    ---------------------

    Doubly Occupied:

       1A    -92.218720     2A    -20.560023     3A    -20.559171
       4A    -15.646298     5A    -15.614156     6A    -15.583992
       7A    -11.348237     8A    -11.294905     9A    -11.284720
      10A    -11.276635    11A    -11.267757    12A     -9.183345
      13A     -6.868587    14A     -6.868135    15A     -6.867695
      16A     -1.466492    17A     -1.349809    18A     -1.343505
      19A     -1.260227    20A     -1.181749    21A     -1.051240
      22A     -0.983390    23A     -0.965222    24A     -0.882502
      25A     -0.837440    26A     -0.810483    27A     -0.752377
      28A     -0.711180    29A     -0.680114    30A     -0.669218
      31A     -0.655345    32A     -0.637301    33A     -0.619532
      34A     -0.607294    35A     -0.587917    36A     -0.577164
      37A     -0.572151    38A     -0.543536    39A     -0.516095
      40A     -0.508363    41A     -0.488496    42A     -0.481693
      43A     -0.473201    44A     -0.419956    45A     -0.419203
      46A     -0.354969

  @DF-RHF Final Energy:  -905.27947529333085

   => Energetics <=

    Nuclear Repulsion Energy =            794.2076020627948765
    One-Electron Energy =               -2819.2750699091934621
    Two-Electron Energy =                1119.7879925530678520
    Total Energy =                       -905.2794752933307336
  Basis Set: (AUG-CC-PVTZ AUX)
    Blend: AUG-CC-PVTZ-RI
    Molecular point group: c1

    Geometry (in Angstrom), charge = 0, multiplicity = 1:

       Center              X                  Y                   Z               Mass
    ------------   -----------------  -----------------  -----------------  -----------------
         S            0.781223784316    -0.680222937606    -0.281367257270    31.972071174400
         O            0.760325784316    -1.832188937606     0.628701742730    15.994914619570
         O            1.156521784316    -0.807788937606    -1.684221257270    15.994914619570
         N            1.754084784316     0.482130062394     0.393535742730    14.003074004430
         N           -1.831548215684    -0.741822937606     0.490370742730    14.003074004430
         N           -1.309592215684     1.116488062394    -0.639988257270    14.003074004430
         C           -0.863762215684    -0.044160937606    -0.167353257270    12.000000000000
         C            1.478122784316     0.773784062394     1.803673742730    12.000000000000
         C            1.977813784316     1.682328062394    -0.427411257270    12.000000000000
         C           -3.112468515684     0.060037662394     0.438657142730    12.000000000000
         C           -2.630655215684     1.147222062394    -0.268340257270    12.000000000000
         H            1.365848784316    -0.162077937606     2.350088742730     1.007825032230
         H            0.579911784316     1.394891062394     1.927285742730     1.007825032230
         H            2.340849784316     1.312090062394     2.202043742730     1.007825032230
         H            2.188275784316     1.378147062394    -1.451239257270     1.007825032230
         H            2.853484784316     2.192274062394    -0.019324257270     1.007825032230
         H            1.111873784316     2.354022062394    -0.411036257270     1.007825032230
         H           -1.683369215684    -1.648346937606     0.924207742730     1.007825032230
         H           -3.908773215684    -0.328397937606     0.867166742730     1.007825032230
         H           -3.263224215684     1.987104062394    -0.522579257270     1.007825032230

  Basis Set: AUG-CC-PVTZ
    Blend: AUG-CC-PVTZ
  Basis Set: (AUG-CC-PVTZ AUX)
    Blend: AUG-CC-PVTZ-JKFIT
	 Reference Energy          =    -905.2794752933308473 [Eh]
	 Singles Energy            =      -0.0000000000000000 [Eh]
	 Same-Spin Energy          =      -0.5971308315299866 [Eh]
	 Opposite-Spin Energy      =      -1.7779344067525527 [Eh]
	 Correlation Energy        =      -2.3750652382825392 [Eh]
	 Total Energy              =    -907.6545405316134065 [Eh]

	 ================> DF-SCS-MP2 Energies <==================
	-----------------------------------------------------------
	 SCS Same-Spin Scale       =       0.3333333333333333 [-]
	 SCS Opposite-Spin Scale   =       1.2000000000000000 [-]
	 SCS Same-Spin Energy      =      -0.1990436105099955 [Eh]
	 SCS Opposite-Spin Energy  =      -2.1335212881030632 [Eh]
	 SCS Correlation Energy    =      -2.3325648986130587 [Eh]
	 SCS Total Energy          =    -907.6120401919439473 [Eh]
	-----------------------------------------------------------

  Dipole Moment: [D]
     X:    -2.6097      Y:     1.9950      Z:     3.5226     Total:     4.8166

*** Psi4 exiting successfully. Buy a developer a beer!
