                               Psi4 1.3.2 release

  ==> Input File <==

--------------------------------------------------------------------------
#psi4
#
memory 32 gb

molecule  {
0 1
  S        0.7947343    -0.6192578    -0.3729480
  O        0.7428910    -1.8740890     0.5977740
  O        1.1390870    -0.8496890    -1.7151490
  N        1.7366500     0.4402300     0.3626080
  N       -1.8489830    -0.7837230     0.4594430
  N       -1.3270270     1.0745880    -0.6709160
  C       -0.8811970    -0.0860610    -0.1982810
  C        1.4606880     0.7318840     1.7727460
  C        1.9603790     1.6404280    -0.4583390
  C       -2.9965950    -0.0375860     0.3980590
  C       -2.6480900     1.1053220    -0.2992680
  H        1.3484140    -0.2039780     2.3191610
  H        0.5624770     1.3529910     1.8963580
  H        2.3234150     1.2701900     2.1711160
  H        2.1708410     1.3362470    -1.4821670
  H        2.8360500     2.1503740    -0.0502520
  H        1.0944390     2.3121220    -0.4419640
  H       -1.7008040    -1.6902470     0.8932800
  H       -3.9262080    -0.3702980     0.8362390
  H       -3.2806590     1.9452040    -0.5535070
units angstrom
no_reorient  #important for SAPT in psi4, default
symmetry c1  #important for SAPT in psi4, default
}

set PROPERTIES_ORIGIN ["COM"]
properties('MP2/aug-cc-pvtz', properties = ['dipole'])
--------------------------------------------------------------------------

    Molecular point group: c1
  Charge       = 0
  Multiplicity = 1
  Basis Set: AUG-CC-PVTZ
    Blend: AUG-CC-PVTZ
  Basis Set: (AUG-CC-PVTZ AUX)
    Blend: AUG-CC-PVTZ-JKFIT

    Orbital Energies [Eh]
    ---------------------

    Doubly Occupied:

       1A    -92.211054     2A    -20.567744     3A    -20.527904
       4A    -15.653319     5A    -15.622009     6A    -15.585596
       7A    -11.336641     8A    -11.292580     9A    -11.282298
      10A    -11.275420    11A    -11.271761    12A     -9.177538
      13A     -6.862598    14A     -6.862297    15A     -6.861607
      16A     -1.473122    17A     -1.369837    18A     -1.311989
      19A     -1.264027    20A     -1.197415    21A     -1.048117
      22A     -0.992576    23A     -0.972682    24A     -0.881189
      25A     -0.836407    26A     -0.819254    27A     -0.756339
      28A     -0.712193    29A     -0.683550    30A     -0.673613
      31A     -0.644798    32A     -0.632506    33A     -0.625512
      34A     -0.613191    35A     -0.606378    36A     -0.581396
      37A     -0.576481    38A     -0.551297    39A     -0.517949
      40A     -0.497577    41A     -0.479515    42A     -0.454370
      43A     -0.453043    44A     -0.432288    45A     -0.427351
      46A     -0.345594

  @DF-RHF Final Energy:  -905.28248260017540

   => Energetics <=

    Nuclear Repulsion Energy =            798.2536291105207056
    One-Electron Energy =               -2827.4283785127699957
    Two-Electron Energy =                1123.8922668020738911
    Total Energy =                       -905.2824826001753991
  Basis Set: (AUG-CC-PVTZ AUX)
    Blend: AUG-CC-PVTZ-RI
    Molecular point group: c1

    Geometry (in Angstrom), charge = 0, multiplicity = 1:

       Center              X                  Y                   Z               Mass
    ------------   -----------------  -----------------  -----------------  -----------------
         S            0.797377824938    -0.592326356943    -0.330278777263    31.972071174400
         O            0.745534524938    -1.847157556943     0.640443222737    15.994914619570
         O            1.141730524938    -0.822757556943    -1.672479777263    15.994914619570
         N            1.739293524938     0.467161443057     0.405277222737    14.003074004430
         N           -1.846339475062    -0.756791556943     0.502112222737    14.003074004430
         N           -1.324383475062     1.101519443057    -0.628246777263    14.003074004430
         C           -0.878553475062    -0.059129556943    -0.155611777263    12.000000000000
         C            1.463331524938     0.758815443057     1.815415222737    12.000000000000
         C            1.963022524938     1.667359443057    -0.415669777263    12.000000000000
         C           -2.993951475062    -0.010654556943     0.440728222737    12.000000000000
         C           -2.645446475062     1.132253443057    -0.256598777263    12.000000000000
         H            1.351057524938    -0.177046556943     2.361830222737     1.007825032230
         H            0.565120524938     1.379922443057     1.939027222737     1.007825032230
         H            2.326058524938     1.297121443057     2.213785222737     1.007825032230
         H            2.173484524938     1.363178443057    -1.439497777263     1.007825032230
         H            2.838693524938     2.177305443057    -0.007582777263     1.007825032230
         H            1.097082524938     2.339053443057    -0.399294777263     1.007825032230
         H           -1.698160475062    -1.663315556943     0.935949222737     1.007825032230
         H           -3.923564475062    -0.343366556943     0.878908222737     1.007825032230
         H           -3.278015475062     1.972135443057    -0.510837777263     1.007825032230

  Basis Set: AUG-CC-PVTZ
    Blend: AUG-CC-PVTZ
  Basis Set: (AUG-CC-PVTZ AUX)
    Blend: AUG-CC-PVTZ-JKFIT
	 Reference Energy          =    -905.2824826001753991 [Eh]
	 Singles Energy            =      -0.0000000000000000 [Eh]
	 Same-Spin Energy          =      -0.5980033184646655 [Eh]
	 Opposite-Spin Energy      =      -1.7766560735861903 [Eh]
	 Correlation Energy        =      -2.3746593920508556 [Eh]
	 Total Energy              =    -907.6571419922262294 [Eh]

	 ================> DF-SCS-MP2 Energies <==================
	-----------------------------------------------------------
	 SCS Same-Spin Scale       =       0.3333333333333333 [-]
	 SCS Opposite-Spin Scale   =       1.2000000000000000 [-]
	 SCS Same-Spin Energy      =      -0.1993344394882218 [Eh]
	 SCS Opposite-Spin Energy  =      -2.1319872883034283 [Eh]
	 SCS Correlation Energy    =      -2.3313217277916500 [Eh]
	 SCS Total Energy          =    -907.6138043279670455 [Eh]
	-----------------------------------------------------------

  Dipole Moment: [D]
     X:    -2.3167      Y:     2.8676      Z:     3.1327     Total:     4.8378

*** Psi4 exiting successfully. Buy a developer a beer!
