                               Psi4 1.3.2 release

  ==> Input File <==

--------------------------------------------------------------------------
#psi4
#
memory 32 gb

molecule  {
0 1
  S        0.7457778    -0.7715009    -0.2799997
  O        0.7428910    -1.8740890     0.5977740
  O        1.1390870    -0.8496890    -1.7151490
  N        1.7366500     0.4402300     0.3626080
  N       -1.8489830    -0.7837230     0.4594430
  N       -1.3270270     1.0745880    -0.6709160
  C       -0.8811970    -0.0860610    -0.1982810
  C        1.4606880     0.7318840     1.7727460
  C        1.9603790     1.6404280    -0.4583390
  C       -2.9965950    -0.0375860     0.3980590
  C       -2.6480900     1.1053220    -0.2992680
  H        1.3484140    -0.2039780     2.3191610
  H        0.5624770     1.3529910     1.8963580
  H        2.3234150     1.2701900     2.1711160
  H        2.1708410     1.3362470    -1.4821670
  H        2.8360500     2.1503740    -0.0502520
  H        1.0944390     2.3121220    -0.4419640
  H       -1.7008040    -1.6902470     0.8932800
  H       -3.9262080    -0.3702980     0.8362390
  H       -3.2806590     1.9452040    -0.5535070
units angstrom
no_reorient  #important for SAPT in psi4, default
symmetry c1  #important for SAPT in psi4, default
}

set PROPERTIES_ORIGIN ["COM"]
properties('MP2/aug-cc-pvtz', properties = ['dipole'])
--------------------------------------------------------------------------

    Molecular point group: c1
  Charge       = 0
  Multiplicity = 1
  Basis Set: AUG-CC-PVTZ
    Blend: AUG-CC-PVTZ
  Basis Set: (AUG-CC-PVTZ AUX)
    Blend: AUG-CC-PVTZ-JKFIT

    Orbital Energies [Eh]
    ---------------------

    Doubly Occupied:

       1A    -92.215485     2A    -20.573871     3A    -20.549094
       4A    -15.656294     5A    -15.605591     6A    -15.587322
       7A    -11.338473     8A    -11.293542     9A    -11.274550
      10A    -11.271869    11A    -11.261545    12A     -9.180536
      13A     -6.865658    14A     -6.865601    15A     -6.864764
      16A     -1.483879    17A     -1.371457    18A     -1.348192
      19A     -1.246685    20A     -1.199589    21A     -1.051231
      22A     -0.976878    23A     -0.953692    24A     -0.875061
      25A     -0.842978    26A     -0.818042    27A     -0.754176
      28A     -0.713512    29A     -0.676251    30A     -0.669686
      31A     -0.643402    32A     -0.632543    33A     -0.625349
      34A     -0.619124    35A     -0.610535    36A     -0.579758
      37A     -0.567504    38A     -0.539477    39A     -0.519547
      40A     -0.516218    41A     -0.482876    42A     -0.480592
      43A     -0.467999    44A     -0.429847    45A     -0.410695
      46A     -0.346261

  @DF-RHF Final Energy:  -905.30027069665095

   => Energetics <=

    Nuclear Repulsion Energy =            797.2330216744945801
    One-Electron Energy =               -2825.3521267346359309
    Two-Electron Energy =                1122.8188343634906232
    Total Energy =                       -905.3002706966508413
  Basis Set: (AUG-CC-PVTZ AUX)
    Blend: AUG-CC-PVTZ-RI
    Molecular point group: c1

    Geometry (in Angstrom), charge = 0, multiplicity = 1:

       Center              X                  Y                   Z               Mass
    ------------   -----------------  -----------------  -----------------  -----------------
         S            0.757363434528    -0.716761617647    -0.254307873212    31.972071174400
         O            0.754476634528    -1.819349717647     0.623465826788    15.994914619570
         O            1.150672634528    -0.794949717647    -1.689457173212    15.994914619570
         N            1.748235634528     0.494969282353     0.388299826788    14.003074004430
         N           -1.837397365472    -0.728983717647     0.485134826788    14.003074004430
         N           -1.315441365472     1.129327282353    -0.645224173212    14.003074004430
         C           -0.869611365472    -0.031321717647    -0.172589173212    12.000000000000
         C            1.472273634528     0.786623282353     1.798437826788    12.000000000000
         C            1.971964634528     1.695167282353    -0.432647173212    12.000000000000
         C           -2.985009365472     0.017153282353     0.423750826788    12.000000000000
         C           -2.636504365472     1.160061282353    -0.273576173212    12.000000000000
         H            1.359999634528    -0.149238717647     2.344852826788     1.007825032230
         H            0.574062634528     1.407730282353     1.922049826788     1.007825032230
         H            2.335000634528     1.324929282353     2.196807826788     1.007825032230
         H            2.182426634528     1.390986282353    -1.456475173212     1.007825032230
         H            2.847635634528     2.205113282353    -0.024560173212     1.007825032230
         H            1.106024634528     2.366861282353    -0.416272173212     1.007825032230
         H           -1.689218365472    -1.635507717647     0.918971826788     1.007825032230
         H           -3.914622365472    -0.315558717647     0.861930826788     1.007825032230
         H           -3.269073365472     1.999943282353    -0.527815173212     1.007825032230

  Basis Set: AUG-CC-PVTZ
    Blend: AUG-CC-PVTZ
  Basis Set: (AUG-CC-PVTZ AUX)
    Blend: AUG-CC-PVTZ-JKFIT
	 Reference Energy          =    -905.3002706966509550 [Eh]
	 Singles Energy            =      -0.0000000000000000 [Eh]
	 Same-Spin Energy          =      -0.5971559596063727 [Eh]
	 Opposite-Spin Energy      =      -1.7751169972375904 [Eh]
	 Correlation Energy        =      -2.3722729568439629 [Eh]
	 Total Energy              =    -907.6725436534949267 [Eh]

	 ================> DF-SCS-MP2 Energies <==================
	-----------------------------------------------------------
	 SCS Same-Spin Scale       =       0.3333333333333333 [-]
	 SCS Opposite-Spin Scale   =       1.2000000000000000 [-]
	 SCS Same-Spin Energy      =      -0.1990519865354576 [Eh]
	 SCS Opposite-Spin Energy  =      -2.1301403966851082 [Eh]
	 SCS Correlation Energy    =      -2.3291923832205659 [Eh]
	 SCS Total Energy          =    -907.6294630798714707 [Eh]
	-----------------------------------------------------------

  Dipole Moment: [D]
     X:    -2.8924      Y:     1.4382      Z:     3.8011     Total:     4.9882

*** Psi4 exiting successfully. Buy a developer a beer!
