                               Psi4 1.3.2 release

  ==> Input File <==

--------------------------------------------------------------------------
#psi4
#
memory 32 gb

molecule  {
0 1
  S        0.7637890    -0.7221230    -0.3122950
  O        0.7428910    -1.8740890     0.5977740
  O        1.1390870    -0.8496890    -1.7151490
  N        1.7366500     0.4402300     0.3626080
  N       -1.8489830    -0.7837230     0.4594430
  N       -1.3270270     1.0745880    -0.6709160
  C       -0.8101580    -0.0348501    -0.2465603
  C        1.4606880     0.7318840     1.7727460
  C        1.9603790     1.6404280    -0.4583390
  C       -2.9965950    -0.0375860     0.3980590
  C       -2.6480900     1.1053220    -0.2992680
  H        1.3484140    -0.2039780     2.3191610
  H        0.5624770     1.3529910     1.8963580
  H        2.3234150     1.2701900     2.1711160
  H        2.1708410     1.3362470    -1.4821670
  H        2.8360500     2.1503740    -0.0502520
  H        1.0944390     2.3121220    -0.4419640
  H       -1.7008040    -1.6902470     0.8932800
  H       -3.9262080    -0.3702980     0.8362390
  H       -3.2806590     1.9452040    -0.5535070
units angstrom
no_reorient  #important for SAPT in psi4, default
symmetry c1  #important for SAPT in psi4, default
}

set PROPERTIES_ORIGIN ["COM"]
properties('MP2/aug-cc-pvtz', properties = ['dipole'])
--------------------------------------------------------------------------

    Molecular point group: c1
  Charge       = 0
  Multiplicity = 1
  Basis Set: AUG-CC-PVTZ
    Blend: AUG-CC-PVTZ
  Basis Set: (AUG-CC-PVTZ AUX)
    Blend: AUG-CC-PVTZ-JKFIT

    Orbital Energies [Eh]
    ---------------------

    Doubly Occupied:

       1A    -92.216778     2A    -20.562426     3A    -20.554467
       4A    -15.647110     5A    -15.609188     6A    -15.592462
       7A    -11.338959     8A    -11.300603     9A    -11.274761
      10A    -11.271880    11A    -11.266620    12A     -9.181801
      13A     -6.867194    14A     -6.866572    15A     -6.866186
      16A     -1.466525    17A     -1.353817    18A     -1.346561
      19A     -1.257968    20A     -1.196153    21A     -1.053368
      22A     -0.981585    23A     -0.964129    24A     -0.884152
      25A     -0.841137    26A     -0.796581    27A     -0.753489
      28A     -0.711610    29A     -0.681508    30A     -0.669142
      31A     -0.645748    32A     -0.627644    33A     -0.615696
      34A     -0.614442    35A     -0.608106    36A     -0.577397
      37A     -0.571107    38A     -0.541900    39A     -0.517938
      40A     -0.509080    41A     -0.489947    42A     -0.480563
      43A     -0.469810    44A     -0.433869    45A     -0.416417
      46A     -0.344328

  @DF-RHF Final Energy:  -905.29373873861766

   => Energetics <=

    Nuclear Repulsion Energy =            797.8278518566687580
    One-Electron Energy =               -2826.5657371055735894
    Two-Electron Energy =                1123.4441465102872826
    Total Energy =                       -905.2937387386175487
  Basis Set: (AUG-CC-PVTZ AUX)
    Blend: AUG-CC-PVTZ-RI
    Molecular point group: c1

    Geometry (in Angstrom), charge = 0, multiplicity = 1:

       Center              X                  Y                   Z               Mass
    ------------   -----------------  -----------------  -----------------  -----------------
         S            0.767214723998    -0.679913568770    -0.277394506748    31.972071174400
         O            0.746316723998    -1.831879568770     0.632674493252    15.994914619570
         O            1.142512723998    -0.807479568770    -1.680248506748    15.994914619570
         N            1.740075723998     0.482439431230     0.397508493252    14.003074004430
         N           -1.845557276002    -0.741513568770     0.494343493252    14.003074004430
         N           -1.323601276002     1.116797431230    -0.636015506748    14.003074004430
         C           -0.806732276002     0.007359331230    -0.211659806748    12.000000000000
         C            1.464113723998     0.774093431230     1.807646493252    12.000000000000
         C            1.963804723998     1.682637431230    -0.423438506748    12.000000000000
         C           -2.993169276002     0.004623431230     0.432959493252    12.000000000000
         C           -2.644664276002     1.147531431230    -0.264367506748    12.000000000000
         H            1.351839723998    -0.161768568770     2.354061493252     1.007825032230
         H            0.565902723998     1.395200431230     1.931258493252     1.007825032230
         H            2.326840723998     1.312399431230     2.206016493252     1.007825032230
         H            2.174266723998     1.378456431230    -1.447266506748     1.007825032230
         H            2.839475723998     2.192583431230    -0.015351506748     1.007825032230
         H            1.097864723998     2.354331431230    -0.407063506748     1.007825032230
         H           -1.697378276002    -1.648037568770     0.928180493252     1.007825032230
         H           -3.922782276002    -0.328088568770     0.871139493252     1.007825032230
         H           -3.277233276002     1.987413431230    -0.518606506748     1.007825032230

  Basis Set: AUG-CC-PVTZ
    Blend: AUG-CC-PVTZ
  Basis Set: (AUG-CC-PVTZ AUX)
    Blend: AUG-CC-PVTZ-JKFIT
	 Reference Energy          =    -905.2937387386176624 [Eh]
	 Singles Energy            =      -0.0000000000000000 [Eh]
	 Same-Spin Energy          =      -0.5980668045333515 [Eh]
	 Opposite-Spin Energy      =      -1.7769404291263333 [Eh]
	 Correlation Energy        =      -2.3750072336596846 [Eh]
	 Total Energy              =    -907.6687459722772928 [Eh]

	 ================> DF-SCS-MP2 Energies <==================
	-----------------------------------------------------------
	 SCS Same-Spin Scale       =       0.3333333333333333 [-]
	 SCS Opposite-Spin Scale   =       1.2000000000000000 [-]
	 SCS Same-Spin Energy      =      -0.1993556015111171 [Eh]
	 SCS Opposite-Spin Energy  =      -2.1323285149515998 [Eh]
	 SCS Correlation Energy    =      -2.3316841164627169 [Eh]
	 SCS Total Energy          =    -907.6254228550803873 [Eh]
	-----------------------------------------------------------

  Dipole Moment: [D]
     X:    -2.6721      Y:     1.9857      Z:     3.5106     Total:     4.8381

*** Psi4 exiting successfully. Buy a developer a beer!
