                               Psi4 1.3.2 release

  ==> Input File <==

--------------------------------------------------------------------------
#psi4
#
memory 32 gb

molecule  {
0 1
  S        0.7637890    -0.7221230    -0.3122950
  O        0.7428910    -1.8740890     0.5977740
  O        1.1390870    -0.8496890    -1.7151490
  N        1.7366500     0.4402300     0.3626080
  N       -1.8489830    -0.7837230     0.4594430
  N       -1.3270270     1.0745880    -0.6709160
  C       -0.8811970    -0.0860610    -0.1982810
  C        1.4606880     0.7318840     1.7727460
  C        1.9603790     1.6404280    -0.4583390
  C       -2.9965950    -0.0375860     0.3980590
  C       -2.6732808     1.0227097    -0.2488634
  H        1.3484140    -0.2039780     2.3191610
  H        0.5624770     1.3529910     1.8963580
  H        2.3234150     1.2701900     2.1711160
  H        2.1708410     1.3362470    -1.4821670
  H        2.8360500     2.1503740    -0.0502520
  H        1.0944390     2.3121220    -0.4419640
  H       -1.7008040    -1.6902470     0.8932800
  H       -3.9262080    -0.3702980     0.8362390
  H       -3.2806590     1.9452040    -0.5535070
units angstrom
no_reorient  #important for SAPT in psi4, default
symmetry c1  #important for SAPT in psi4, default
}

set PROPERTIES_ORIGIN ["COM"]
properties('MP2/aug-cc-pvtz', properties = ['dipole'])
--------------------------------------------------------------------------

    Molecular point group: c1
  Charge       = 0
  Multiplicity = 1
  Basis Set: AUG-CC-PVTZ
    Blend: AUG-CC-PVTZ
  Basis Set: (AUG-CC-PVTZ AUX)
    Blend: AUG-CC-PVTZ-JKFIT

    Orbital Energies [Eh]
    ---------------------

    Doubly Occupied:

       1A    -92.216889     2A    -20.559270     3A    -20.557554
       4A    -15.646944     5A    -15.612832     6A    -15.586538
       7A    -11.342151     8A    -11.280100     9A    -11.276155
      10A    -11.266963    11A    -11.266117    12A     -9.181565
      13A     -6.866776    14A     -6.866364    15A     -6.865933
      16A     -1.465627    17A     -1.372978    18A     -1.346580
      19A     -1.259285    20A     -1.189258    21A     -1.065177
      22A     -0.982683    23A     -0.965688    24A     -0.882575
      25A     -0.823736    26A     -0.819010    27A     -0.754460
      28A     -0.711622    29A     -0.677291    30A     -0.669463
      31A     -0.644006    32A     -0.641445    33A     -0.627967
      34A     -0.614989    35A     -0.583349    36A     -0.574013
      37A     -0.571804    38A     -0.542870    39A     -0.514392
      40A     -0.508378    41A     -0.490463    42A     -0.481164
      43A     -0.473777    44A     -0.422445    45A     -0.418339
      46A     -0.365799

  @DF-RHF Final Energy:  -905.29372854523115

   => Energetics <=

    Nuclear Repulsion Energy =            798.5606621742147126
    One-Electron Energy =               -2828.0032081617532640
    Two-Electron Energy =                1124.1488174423072905
    Total Energy =                       -905.2937285452312608
  Basis Set: (AUG-CC-PVTZ AUX)
    Blend: AUG-CC-PVTZ-RI
    Molecular point group: c1

    Geometry (in Angstrom), charge = 0, multiplicity = 1:

       Center              X                  Y                   Z               Mass
    ------------   -----------------  -----------------  -----------------  -----------------
         S            0.773811772614    -0.670739298884    -0.284159796563    31.972071174400
         O            0.752913772614    -1.822705298884     0.625909203437    15.994914619570
         O            1.149109772614    -0.798305298884    -1.687013796563    15.994914619570
         N            1.746672772614     0.491613701116     0.390743203437    14.003074004430
         N           -1.838960227386    -0.732339298884     0.487578203437    14.003074004430
         N           -1.317004227386     1.125971701116    -0.642780796563    14.003074004430
         C           -0.871174227386    -0.034677298884    -0.170145796563    12.000000000000
         C            1.470710772614     0.783267701116     1.800881203437    12.000000000000
         C            1.970401772614     1.691811701116    -0.430203796563    12.000000000000
         C           -2.986572227386     0.013797701116     0.426194203437    12.000000000000
         C           -2.663258027386     1.074093401116    -0.220728196563    12.000000000000
         H            1.358436772614    -0.152594298884     2.347296203437     1.007825032230
         H            0.572499772614     1.404374701116     1.924493203437     1.007825032230
         H            2.333437772614     1.321573701116     2.199251203437     1.007825032230
         H            2.180863772614     1.387630701116    -1.454031796563     1.007825032230
         H            2.846072772614     2.201757701116    -0.022116796563     1.007825032230
         H            1.104461772614     2.363505701116    -0.413828796563     1.007825032230
         H           -1.690781227386    -1.638863298884     0.921415203437     1.007825032230
         H           -3.916185227386    -0.318914298884     0.864374203437     1.007825032230
         H           -3.270636227386     1.996587701116    -0.525371796563     1.007825032230

  Basis Set: AUG-CC-PVTZ
    Blend: AUG-CC-PVTZ
  Basis Set: (AUG-CC-PVTZ AUX)
    Blend: AUG-CC-PVTZ-JKFIT
	 Reference Energy          =    -905.2937285452311471 [Eh]
	 Singles Energy            =      -0.0000000000000000 [Eh]
	 Same-Spin Energy          =      -0.5962695546860677 [Eh]
	 Opposite-Spin Energy      =      -1.7743216431169690 [Eh]
	 Correlation Energy        =      -2.3705911978030367 [Eh]
	 Total Energy              =    -907.6643197430341843 [Eh]

	 ================> DF-SCS-MP2 Energies <==================
	-----------------------------------------------------------
	 SCS Same-Spin Scale       =       0.3333333333333333 [-]
	 SCS Opposite-Spin Scale   =       1.2000000000000000 [-]
	 SCS Same-Spin Energy      =      -0.1987565182286892 [Eh]
	 SCS Opposite-Spin Energy  =      -2.1291859717403629 [Eh]
	 SCS Correlation Energy    =      -2.3279424899690522 [Eh]
	 SCS Total Energy          =    -907.6216710352001655 [Eh]
	-----------------------------------------------------------

  Dipole Moment: [D]
     X:    -2.6179      Y:     1.8330      Z:     3.5966     Total:     4.8113

*** Psi4 exiting successfully. Buy a developer a beer!
