                               Psi4 1.3.2 release

  ==> Input File <==

--------------------------------------------------------------------------
#psi4
#
memory 32 gb

molecule  {
0 1
  S        0.7778058    -0.7189001    -0.3374294
  O        0.7428910    -1.8740890     0.5977740
  O        1.1390870    -0.8496890    -1.7151490
  N        1.7366500     0.4402300     0.3626080
  N       -1.8489830    -0.7837230     0.4594430
  N       -1.3270270     1.0745880    -0.6709160
  C       -0.8811970    -0.0860610    -0.1982810
  C        1.4606880     0.7318840     1.7727460
  C        1.9603790     1.6404280    -0.4583390
  C       -2.9965950    -0.0375860     0.3980590
  C       -2.6480900     1.1053220    -0.2992680
  H        1.3484140    -0.2039780     2.3191610
  H        0.5624770     1.3529910     1.8963580
  H        2.3234150     1.2701900     2.1711160
  H        2.1708410     1.3362470    -1.4821670
  H        2.8360500     2.1503740    -0.0502520
  H        1.0944390     2.3121220    -0.4419640
  H       -1.7008040    -1.6902470     0.8932800
  H       -3.9262080    -0.3702980     0.8362390
  H       -3.2806590     1.9452040    -0.5535070
units angstrom
no_reorient  #important for SAPT in psi4, default
symmetry c1  #important for SAPT in psi4, default
}

set PROPERTIES_ORIGIN ["COM"]
properties('MP2/aug-cc-pvtz', properties = ['dipole'])
--------------------------------------------------------------------------

    Molecular point group: c1
  Charge       = 0
  Multiplicity = 1
  Basis Set: AUG-CC-PVTZ
    Blend: AUG-CC-PVTZ
  Basis Set: (AUG-CC-PVTZ AUX)
    Blend: AUG-CC-PVTZ-JKFIT

    Orbital Energies [Eh]
    ---------------------

    Doubly Occupied:

       1A    -92.216156     2A    -20.562923     3A    -20.554316
       4A    -15.653277     5A    -15.611355     6A    -15.584656
       7A    -11.336352     8A    -11.291424     9A    -11.275183
      10A    -11.271903    11A    -11.266618    12A     -9.180685
      13A     -6.865870    14A     -6.865494    15A     -6.865166
      16A     -1.470002    17A     -1.369427    18A     -1.346635
      19A     -1.258126    20A     -1.196917    21A     -1.046569
      22A     -0.981938    23A     -0.959232    24A     -0.874593
      25A     -0.838280    26A     -0.817003    27A     -0.753077
      28A     -0.712072    29A     -0.676927    30A     -0.669272
      31A     -0.643065    32A     -0.631246    33A     -0.623524
      34A     -0.616781    35A     -0.609288    36A     -0.578176
      37A     -0.571069    38A     -0.542321    39A     -0.515308
      40A     -0.512178    41A     -0.483756    42A     -0.481840
      43A     -0.470262    44A     -0.427969    45A     -0.417433
      46A     -0.344527

  @DF-RHF Final Energy:  -905.30533552458587

   => Energetics <=

    Nuclear Repulsion Energy =            797.1958136166758777
    One-Electron Energy =               -2825.3219209693174889
    Two-Electron Energy =                1122.8207718280557401
    Total Energy =                       -905.3053355245858711
  Basis Set: (AUG-CC-PVTZ AUX)
    Blend: AUG-CC-PVTZ-RI
    Molecular point group: c1

    Geometry (in Angstrom), charge = 0, multiplicity = 1:

       Center              X                  Y                   Z               Mass
    ------------   -----------------  -----------------  -----------------  -----------------
         S            0.783541386303    -0.673768573882    -0.301247798185    31.972071174400
         O            0.748626586303    -1.828957473882     0.633955601815    15.994914619570
         O            1.144822586303    -0.804557473882    -1.678967398185    15.994914619570
         N            1.742385586303     0.485361526118     0.398789601815    14.003074004430
         N           -1.843247413697    -0.738591473882     0.495624601815    14.003074004430
         N           -1.321291413697     1.119719526118    -0.634734398185    14.003074004430
         C           -0.875461413697    -0.040929473882    -0.162099398185    12.000000000000
         C            1.466423586303     0.777015526118     1.808927601815    12.000000000000
         C            1.966114586303     1.685559526118    -0.422157398185    12.000000000000
         C           -2.990859413697     0.007545526118     0.434240601815    12.000000000000
         C           -2.642354413697     1.150453526118    -0.263086398185    12.000000000000
         H            1.354149586303    -0.158846473882     2.355342601815     1.007825032230
         H            0.568212586303     1.398122526118     1.932539601815     1.007825032230
         H            2.329150586303     1.315321526118     2.207297601815     1.007825032230
         H            2.176576586303     1.381378526118    -1.445985398185     1.007825032230
         H            2.841785586303     2.195505526118    -0.014070398185     1.007825032230
         H            1.100174586303     2.357253526118    -0.405782398185     1.007825032230
         H           -1.695068413697    -1.645115473882     0.929461601815     1.007825032230
         H           -3.920472413697    -0.325166473882     0.872420601815     1.007825032230
         H           -3.274923413697     1.990335526118    -0.517325398185     1.007825032230

  Basis Set: AUG-CC-PVTZ
    Blend: AUG-CC-PVTZ
  Basis Set: (AUG-CC-PVTZ AUX)
    Blend: AUG-CC-PVTZ-JKFIT
	 Reference Energy          =    -905.3053355245858711 [Eh]
	 Singles Energy            =      -0.0000000000000000 [Eh]
	 Same-Spin Energy          =      -0.5971563013516239 [Eh]
	 Opposite-Spin Energy      =      -1.7750282091756777 [Eh]
	 Correlation Energy        =      -2.3721845105273016 [Eh]
	 Total Energy              =    -907.6775200351131616 [Eh]

	 ================> DF-SCS-MP2 Energies <==================
	-----------------------------------------------------------
	 SCS Same-Spin Scale       =       0.3333333333333333 [-]
	 SCS Opposite-Spin Scale   =       1.2000000000000000 [-]
	 SCS Same-Spin Energy      =      -0.1990521004505413 [Eh]
	 SCS Opposite-Spin Energy  =      -2.1300338510108130 [Eh]
	 SCS Correlation Energy    =      -2.3290859514613542 [Eh]
	 SCS Total Energy          =    -907.6344214760472369 [Eh]
	-----------------------------------------------------------

  Dipole Moment: [D]
     X:    -2.5200      Y:     1.9050      Z:     3.3525     Total:     4.6064

*** Psi4 exiting successfully. Buy a developer a beer!
