                               Psi4 1.3.2 release

  ==> Input File <==

--------------------------------------------------------------------------
#psi4
#
memory 32 gb

molecule  {
0 1
  S        0.7637890    -0.7221230    -0.3122950
  O        0.7428910    -1.8740890     0.5977740
  O        1.1390870    -0.8496890    -1.7151490
  N        1.7366500     0.4402300     0.3626080
  N       -1.8489830    -0.7837230     0.4594430
  N       -1.3270270     1.0745880    -0.6709160
  C       -0.8811970    -0.0860610    -0.1982810
  C        1.4606880     0.7318840     1.7727460
  C        1.9603790     1.6404280    -0.4583390
  C       -2.9965950    -0.0375860     0.3980590
  C       -2.8405682     1.1097999    -0.2451191
  H        1.3484140    -0.2039780     2.3191610
  H        0.5624770     1.3529910     1.8963580
  H        2.3234150     1.2701900     2.1711160
  H        2.1708410     1.3362470    -1.4821670
  H        2.8360500     2.1503740    -0.0502520
  H        1.0944390     2.3121220    -0.4419640
  H       -1.7008040    -1.6902470     0.8932800
  H       -3.9262080    -0.3702980     0.8362390
  H       -3.2806590     1.9452040    -0.5535070
units angstrom
no_reorient  #important for SAPT in psi4, default
symmetry c1  #important for SAPT in psi4, default
}

set PROPERTIES_ORIGIN ["COM"]
properties('MP2/aug-cc-pvtz', properties = ['dipole'])
--------------------------------------------------------------------------

    Molecular point group: c1
  Charge       = 0
  Multiplicity = 1
  Basis Set: AUG-CC-PVTZ
    Blend: AUG-CC-PVTZ
  Basis Set: (AUG-CC-PVTZ AUX)
    Blend: AUG-CC-PVTZ-JKFIT

    Orbital Energies [Eh]
    ---------------------

    Doubly Occupied:

       1A    -92.217664     2A    -20.560359     3A    -20.557657
       4A    -15.644424     5A    -15.612680     6A    -15.588585
       7A    -11.341962     8A    -11.297164     9A    -11.275603
      10A    -11.273730    11A    -11.265902    12A     -9.182320
      13A     -6.867541    14A     -6.867110    15A     -6.866673
      16A     -1.465855    17A     -1.354558    18A     -1.345609
      19A     -1.258908    20A     -1.162733    21A     -1.061919
      22A     -0.981984    23A     -0.965020    24A     -0.879181
      25A     -0.842078    26A     -0.812105    27A     -0.752301
      28A     -0.710542    29A     -0.679662    30A     -0.668414
      31A     -0.661101    32A     -0.640139    33A     -0.621069
      34A     -0.613805    35A     -0.588837    36A     -0.576297
      37A     -0.570781    38A     -0.542173    39A     -0.515505
      40A     -0.509095    41A     -0.486541    42A     -0.481337
      43A     -0.452823    44A     -0.418003    45A     -0.402661
      46A     -0.370362

  @DF-RHF Final Energy:  -905.27163234802686

   => Energetics <=

    Nuclear Repulsion Energy =            793.8735445328421747
    One-Electron Energy =               -2818.6688142196048830
    Two-Electron Energy =                1119.5236373387358526
    Total Energy =                       -905.2716323480269693
  Basis Set: (AUG-CC-PVTZ AUX)
    Blend: AUG-CC-PVTZ-RI
    Molecular point group: c1

    Geometry (in Angstrom), charge = 0, multiplicity = 1:

       Center              X                  Y                   Z               Mass
    ------------   -----------------  -----------------  -----------------  -----------------
         S            0.785280185834    -0.676709780827    -0.284416487621    31.972071174400
         O            0.764382185834    -1.828675780827     0.625652512379    15.994914619570
         O            1.160578185834    -0.804275780827    -1.687270487621    15.994914619570
         N            1.758141185834     0.485643219173     0.390486512379    14.003074004430
         N           -1.827491814166    -0.738309780827     0.487321512379    14.003074004430
         N           -1.305535814166     1.120001219173    -0.643037487621    14.003074004430
         C           -0.859705814166    -0.040647780827    -0.170402487621    12.000000000000
         C            1.482179185834     0.777297219173     1.800624512379    12.000000000000
         C            1.981870185834     1.685841219173    -0.430460487621    12.000000000000
         C           -2.975103814166     0.007827219173     0.425937512379    12.000000000000
         C           -2.819077014166     1.155213119173    -0.217240587621    12.000000000000
         H            1.369905185834    -0.158564780827     2.347039512379     1.007825032230
         H            0.583968185834     1.398404219173     1.924236512379     1.007825032230
         H            2.344906185834     1.315603219173     2.198994512379     1.007825032230
         H            2.192332185834     1.381660219173    -1.454288487621     1.007825032230
         H            2.857541185834     2.195787219173    -0.022373487621     1.007825032230
         H            1.115930185834     2.357535219173    -0.414085487621     1.007825032230
         H           -1.679312814166    -1.644833780827     0.921158512379     1.007825032230
         H           -3.904716814166    -0.324884780827     0.864117512379     1.007825032230
         H           -3.259167814166     1.990617219173    -0.525628487621     1.007825032230

  Basis Set: AUG-CC-PVTZ
    Blend: AUG-CC-PVTZ
  Basis Set: (AUG-CC-PVTZ AUX)
    Blend: AUG-CC-PVTZ-JKFIT
	 Reference Energy          =    -905.2716323480268557 [Eh]
	 Singles Energy            =      -0.0000000000000000 [Eh]
	 Same-Spin Energy          =      -0.5960241331932327 [Eh]
	 Opposite-Spin Energy      =      -1.7777703527811701 [Eh]
	 Correlation Energy        =      -2.3737944859744027 [Eh]
	 Total Energy              =    -907.6454268340012277 [Eh]

	 ================> DF-SCS-MP2 Energies <==================
	-----------------------------------------------------------
	 SCS Same-Spin Scale       =       0.3333333333333333 [-]
	 SCS Opposite-Spin Scale   =       1.2000000000000000 [-]
	 SCS Same-Spin Energy      =      -0.1986747110644109 [Eh]
	 SCS Opposite-Spin Energy  =      -2.1333244233374042 [Eh]
	 SCS Correlation Energy    =      -2.3319991344018152 [Eh]
	 SCS Total Energy          =    -907.6036314824286819 [Eh]
	-----------------------------------------------------------

  Dipole Moment: [D]
     X:    -2.5865      Y:     1.9238      Z:     3.5524     Total:     4.7969

*** Psi4 exiting successfully. Buy a developer a beer!
