                               Psi4 1.3.2 release

  ==> Input File <==

--------------------------------------------------------------------------
#psi4
#
memory 32 gb

molecule  {
0 1
  S        0.7637890    -0.7221230    -0.3122950
  O        0.7428910    -1.8740890     0.5977740
  O        1.1390870    -0.8496890    -1.7151490
  N        1.7366500     0.4402300     0.3626080
  N       -1.8489830    -0.7837230     0.4594430
  N       -1.3270270     1.0745880    -0.6709160
  C       -0.9482324     0.0884552    -0.2693468
  C        1.4606880     0.7318840     1.7727460
  C        1.9603790     1.6404280    -0.4583390
  C       -2.9965950    -0.0375860     0.3980590
  C       -2.6480900     1.1053220    -0.2992680
  H        1.3484140    -0.2039780     2.3191610
  H        0.5624770     1.3529910     1.8963580
  H        2.3234150     1.2701900     2.1711160
  H        2.1708410     1.3362470    -1.4821670
  H        2.8360500     2.1503740    -0.0502520
  H        1.0944390     2.3121220    -0.4419640
  H       -1.7008040    -1.6902470     0.8932800
  H       -3.9262080    -0.3702980     0.8362390
  H       -3.2806590     1.9452040    -0.5535070
units angstrom
no_reorient  #important for SAPT in psi4, default
symmetry c1  #important for SAPT in psi4, default
}

set PROPERTIES_ORIGIN ["COM"]
properties('MP2/aug-cc-pvtz', properties = ['dipole'])
--------------------------------------------------------------------------

    Molecular point group: c1
  Charge       = 0
  Multiplicity = 1
  Basis Set: AUG-CC-PVTZ
    Blend: AUG-CC-PVTZ
  Basis Set: (AUG-CC-PVTZ AUX)
    Blend: AUG-CC-PVTZ-JKFIT

    Orbital Energies [Eh]
    ---------------------

    Doubly Occupied:

       1A    -92.209085     2A    -20.562868     3A    -20.551917
       4A    -15.631633     5A    -15.606920     6A    -15.576745
       7A    -11.335854     8A    -11.297146     9A    -11.274912
      10A    -11.270001    11A    -11.267144    12A     -9.173733
      13A     -6.858846    14A     -6.858118    15A     -6.857986
      16A     -1.459593    17A     -1.404088    18A     -1.343855
      19A     -1.255631    20A     -1.232753    21A     -1.036349
      22A     -0.981417    23A     -0.955450    24A     -0.860932
      25A     -0.850507    26A     -0.809168    27A     -0.750551
      28A     -0.707803    29A     -0.679023    30A     -0.665912
      31A     -0.651768    32A     -0.637694    33A     -0.622466
      34A     -0.613810    35A     -0.609741    36A     -0.577012
      37A     -0.571910    38A     -0.541760    39A     -0.523411
      40A     -0.506866    41A     -0.503639    42A     -0.479039
      43A     -0.464392    44A     -0.452709    45A     -0.402483
      46A     -0.345373

  @DF-RHF Final Energy:  -905.25357805637020

   => Energetics <=

    Nuclear Repulsion Energy =            797.1995488027615693
    One-Electron Energy =               -2825.2462298301475130
    Two-Electron Energy =                1122.7931029710157418
    Total Energy =                       -905.2535780563703156
  Basis Set: (AUG-CC-PVTZ AUX)
    Blend: AUG-CC-PVTZ-RI
    Molecular point group: c1

    Geometry (in Angstrom), charge = 0, multiplicity = 1:

       Center              X                  Y                   Z               Mass
    ------------   -----------------  -----------------  -----------------  -----------------
         S            0.776680435549    -0.688366782417    -0.275832374765    31.972071174400
         O            0.755782435549    -1.840332782417     0.634236625235    15.994914619570
         O            1.151978435549    -0.815932782417    -1.678686374765    15.994914619570
         N            1.749541435549     0.473986217583     0.399070625235    14.003074004430
         N           -1.836091564451    -0.749966782417     0.495905625235    14.003074004430
         N           -1.314135564451     1.108344217583    -0.634453374765    14.003074004430
         C           -0.935340964451     0.122211417583    -0.232884174765    12.000000000000
         C            1.473579435549     0.765640217583     1.809208625235    12.000000000000
         C            1.973270435549     1.674184217583    -0.421876374765    12.000000000000
         C           -2.983703564451    -0.003829782417     0.434521625235    12.000000000000
         C           -2.635198564451     1.139078217583    -0.262805374765    12.000000000000
         H            1.361305435549    -0.170221782417     2.355623625235     1.007825032230
         H            0.575368435549     1.386747217583     1.932820625235     1.007825032230
         H            2.336306435549     1.303946217583     2.207578625235     1.007825032230
         H            2.183732435549     1.370003217583    -1.445704374765     1.007825032230
         H            2.848941435549     2.184130217583    -0.013789374765     1.007825032230
         H            1.107330435549     2.345878217583    -0.405501374765     1.007825032230
         H           -1.687912564451    -1.656490782417     0.929742625235     1.007825032230
         H           -3.913316564451    -0.336541782417     0.872701625235     1.007825032230
         H           -3.267767564451     1.978960217583    -0.517044374765     1.007825032230

  Basis Set: AUG-CC-PVTZ
    Blend: AUG-CC-PVTZ
  Basis Set: (AUG-CC-PVTZ AUX)
    Blend: AUG-CC-PVTZ-JKFIT
	 Reference Energy          =    -905.2535780563702019 [Eh]
	 Singles Energy            =      -0.0000000000000000 [Eh]
	 Same-Spin Energy          =      -0.5934852393793241 [Eh]
	 Opposite-Spin Energy      =      -1.7704061472842367 [Eh]
	 Correlation Energy        =      -2.3638913866635609 [Eh]
	 Total Energy              =    -907.6174694430337695 [Eh]

	 ================> DF-SCS-MP2 Energies <==================
	-----------------------------------------------------------
	 SCS Same-Spin Scale       =       0.3333333333333333 [-]
	 SCS Opposite-Spin Scale   =       1.2000000000000000 [-]
	 SCS Same-Spin Energy      =      -0.1978284131264413 [Eh]
	 SCS Opposite-Spin Energy  =      -2.1244873767410839 [Eh]
	 SCS Correlation Energy    =      -2.3223157898675253 [Eh]
	 SCS Total Energy          =    -907.5758938462377046 [Eh]
	-----------------------------------------------------------

  Dipole Moment: [D]
     X:    -2.4082      Y:     2.1523      Z:     3.3330     Total:     4.6412

*** Psi4 exiting successfully. Buy a developer a beer!
