                               Psi4 1.3.2 release

  ==> Input File <==

--------------------------------------------------------------------------
#psi4
#
memory 32 gb

molecule  {
0 1
  S        0.7637890    -0.7221230    -0.3122950
  O        0.7428910    -1.8740890     0.5977740
  O        1.1390870    -0.8496890    -1.7151490
  N        1.7366500     0.4402300     0.3626080
  N       -1.8489830    -0.7837230     0.4594430
  N       -1.3270270     1.0745880    -0.6709160
  C       -0.8811970    -0.0860610    -0.1982810
  C        1.4606880     0.7318840     1.7727460
  C        1.9603790     1.6404280    -0.4583390
  C       -2.9965950    -0.0375860     0.3980590
  C       -2.5977083     1.2705467    -0.4000772
  H        1.3484140    -0.2039780     2.3191610
  H        0.5624770     1.3529910     1.8963580
  H        2.3234150     1.2701900     2.1711160
  H        2.1708410     1.3362470    -1.4821670
  H        2.8360500     2.1503740    -0.0502520
  H        1.0944390     2.3121220    -0.4419640
  H       -1.7008040    -1.6902470     0.8932800
  H       -3.9262080    -0.3702980     0.8362390
  H       -3.2806590     1.9452040    -0.5535070
units angstrom
no_reorient  #important for SAPT in psi4, default
symmetry c1  #important for SAPT in psi4, default
}

set PROPERTIES_ORIGIN ["COM"]
properties('MP2/aug-cc-pvtz', properties = ['dipole'])
--------------------------------------------------------------------------

    Molecular point group: c1
  Charge       = 0
  Multiplicity = 1
  Basis Set: AUG-CC-PVTZ
    Blend: AUG-CC-PVTZ
  Basis Set: (AUG-CC-PVTZ AUX)
    Blend: AUG-CC-PVTZ-JKFIT

    Orbital Energies [Eh]
    ---------------------

    Doubly Occupied:

       1A    -92.212974     2A    -20.556333     3A    -20.551877
       4A    -15.670237     5A    -15.607736     6A    -15.590058
       7A    -11.327379     8A    -11.311675     9A    -11.288649
      10A    -11.273226    11A    -11.264245    12A     -9.177158
      13A     -6.862390    14A     -6.862007    15A     -6.861603
      16A     -1.461135    17A     -1.365904    18A     -1.342481
      19A     -1.255042    20A     -1.214969    21A     -1.034659
      22A     -0.979501    23A     -0.951396    24A     -0.872891
      25A     -0.865365    26A     -0.817904    27A     -0.753557
      28A     -0.712209    29A     -0.683722    30A     -0.670245
      31A     -0.659631    32A     -0.640537    33A     -0.621686
      34A     -0.611181    35A     -0.603941    36A     -0.575369
      37A     -0.568852    38A     -0.539823    39A     -0.511982
      40A     -0.505691    41A     -0.478697    42A     -0.477251
      43A     -0.452018    44A     -0.446294    45A     -0.414649
      46A     -0.317425

  @DF-RHF Final Energy:  -905.25726385261964

   => Energetics <=

    Nuclear Repulsion Energy =            795.5088328169572378
    One-Electron Energy =               -2821.8850822229469486
    Two-Electron Energy =                1121.1189855533700666
    Total Energy =                       -905.2572638526196442
  Basis Set: (AUG-CC-PVTZ AUX)
    Blend: AUG-CC-PVTZ-RI
    Molecular point group: c1

    Geometry (in Angstrom), charge = 0, multiplicity = 1:

       Center              X                  Y                   Z               Mass
    ------------   -----------------  -----------------  -----------------  -----------------
         S            0.768630888350    -0.687729802217    -0.273793311442    31.972071174400
         O            0.747732888350    -1.839695802217     0.636275688558    15.994914619570
         O            1.143928888350    -0.815295802217    -1.676647311442    15.994914619570
         N            1.741491888350     0.474623197783     0.401109688558    14.003074004430
         N           -1.844141111650    -0.749329802217     0.497944688558    14.003074004430
         N           -1.322185111650     1.108981197783    -0.632414311442    14.003074004430
         C           -0.876355111650    -0.051667802217    -0.159779311442    12.000000000000
         C            1.465529888350     0.766277197783     1.811247688558    12.000000000000
         C            1.965220888350     1.674821197783    -0.419837311442    12.000000000000
         C           -2.991753111650    -0.003192802217     0.436560688558    12.000000000000
         C           -2.592866411650     1.304939897783    -0.361575511442    12.000000000000
         H            1.353255888350    -0.169584802217     2.357662688558     1.007825032230
         H            0.567318888350     1.387384197783     1.934859688558     1.007825032230
         H            2.328256888350     1.304583197783     2.209617688558     1.007825032230
         H            2.175682888350     1.370640197783    -1.443665311442     1.007825032230
         H            2.840891888350     2.184767197783    -0.011750311442     1.007825032230
         H            1.099280888350     2.346515197783    -0.403462311442     1.007825032230
         H           -1.695962111650    -1.655853802217     0.931781688558     1.007825032230
         H           -3.921366111650    -0.335904802217     0.874740688558     1.007825032230
         H           -3.275817111650     1.979597197783    -0.515005311442     1.007825032230

  Basis Set: AUG-CC-PVTZ
    Blend: AUG-CC-PVTZ
  Basis Set: (AUG-CC-PVTZ AUX)
    Blend: AUG-CC-PVTZ-JKFIT
	 Reference Energy          =    -905.2572638526196442 [Eh]
	 Singles Energy            =      -0.0000000000000000 [Eh]
	 Same-Spin Energy          =      -0.6005231647336370 [Eh]
	 Opposite-Spin Energy      =      -1.7805293134927573 [Eh]
	 Correlation Energy        =      -2.3810524782263944 [Eh]
	 Total Energy              =    -907.6383163308460098 [Eh]

	 ================> DF-SCS-MP2 Energies <==================
	-----------------------------------------------------------
	 SCS Same-Spin Scale       =       0.3333333333333333 [-]
	 SCS Opposite-Spin Scale   =       1.2000000000000000 [-]
	 SCS Same-Spin Energy      =      -0.2001743882445456 [Eh]
	 SCS Opposite-Spin Energy  =      -2.1366351761913087 [Eh]
	 SCS Correlation Energy    =      -2.3368095644358542 [Eh]
	 SCS Total Energy          =    -907.5940734170554833 [Eh]
	-----------------------------------------------------------

  Dipole Moment: [D]
     X:    -2.6919      Y:     2.0846      Z:     3.4474     Total:     4.8453

*** Psi4 exiting successfully. Buy a developer a beer!
