                               Psi4 1.3.2 release

  ==> Input File <==

--------------------------------------------------------------------------
#psi4
#
memory 32 gb

molecule  {
0 1
  S        0.7637890    -0.7221230    -0.3122950
  O        0.7428910    -1.8740890     0.5977740
  O        1.1390870    -0.8496890    -1.7151490
  N        1.7366500     0.4402300     0.3626080
  N       -1.8489830    -0.7837230     0.4594430
  N       -1.3270270     1.0745880    -0.6709160
  C       -0.8811970    -0.0860610    -0.1982810
  C        1.4606880     0.7318840     1.7727460
  C        1.9603790     1.6404280    -0.4583390
  C       -3.0600922    -0.1429700     0.4717654
  C       -2.6480900     1.1053220    -0.2992680
  H        1.3484140    -0.2039780     2.3191610
  H        0.5624770     1.3529910     1.8963580
  H        2.3234150     1.2701900     2.1711160
  H        2.1708410     1.3362470    -1.4821670
  H        2.8360500     2.1503740    -0.0502520
  H        1.0944390     2.3121220    -0.4419640
  H       -1.7008040    -1.6902470     0.8932800
  H       -3.9262080    -0.3702980     0.8362390
  H       -3.2806590     1.9452040    -0.5535070
units angstrom
no_reorient  #important for SAPT in psi4, default
symmetry c1  #important for SAPT in psi4, default
}

set PROPERTIES_ORIGIN ["COM"]
properties('MP2/aug-cc-pvtz', properties = ['dipole'])
--------------------------------------------------------------------------

    Molecular point group: c1
  Charge       = 0
  Multiplicity = 1
  Basis Set: AUG-CC-PVTZ
    Blend: AUG-CC-PVTZ
  Basis Set: (AUG-CC-PVTZ AUX)
    Blend: AUG-CC-PVTZ-JKFIT

    Orbital Energies [Eh]
    ---------------------

    Doubly Occupied:

       1A    -92.216153     2A    -20.557832     3A    -20.555826
       4A    -15.665776     5A    -15.611304     6A    -15.592875
       7A    -11.336313     8A    -11.301026     9A    -11.290607
      10A    -11.275165    11A    -11.266462    12A     -9.180479
      13A     -6.865704    14A     -6.865329    15A     -6.864882
      16A     -1.463986    17A     -1.364472    18A     -1.344924
      19A     -1.258039    20A     -1.203818    21A     -1.040798
      22A     -0.981798    23A     -0.958211    24A     -0.878019
      25A     -0.841587    26A     -0.825162    27A     -0.760609
      28A     -0.711942    29A     -0.697580    30A     -0.668041
      31A     -0.647845    32A     -0.631385    33A     -0.623378
      34A     -0.611749    35A     -0.593459    36A     -0.577087
      37A     -0.571008    38A     -0.542035    39A     -0.513756
      40A     -0.507859    41A     -0.483939    42A     -0.479759
      43A     -0.472337    44A     -0.434468    45A     -0.418189
      46A     -0.327679

  @DF-RHF Final Energy:  -905.27070186747733

   => Energetics <=

    Nuclear Repulsion Energy =            795.1234581984082297
    One-Electron Energy =               -2821.0270244414873559
    Two-Electron Energy =                1120.6328643756019119
    Total Energy =                       -905.2707018674773281
  Basis Set: (AUG-CC-PVTZ AUX)
    Blend: AUG-CC-PVTZ-RI
    Molecular point group: c1

    Geometry (in Angstrom), charge = 0, multiplicity = 1:

       Center              X                  Y                   Z               Mass
    ------------   -----------------  -----------------  -----------------  -----------------
         S            0.776437873708    -0.669178181517    -0.285757255016    31.972071174400
         O            0.755539873708    -1.821144181517     0.624311744984    15.994914619570
         O            1.151735873708    -0.796744181517    -1.688611255016    15.994914619570
         N            1.749298873708     0.493174818483     0.389145744984    14.003074004430
         N           -1.836334126292    -0.730778181517     0.485980744984    14.003074004430
         N           -1.314378126292     1.127532818483    -0.644378255016    14.003074004430
         C           -0.868548126292    -0.033116181517    -0.171743255016    12.000000000000
         C            1.473336873708     0.784828818483     1.799283744984    12.000000000000
         C            1.973027873708     1.693372818483    -0.431801255016    12.000000000000
         C           -3.047443326292    -0.090025181517     0.498303144984    12.000000000000
         C           -2.635441126292     1.158266818483    -0.272730255016    12.000000000000
         H            1.361062873708    -0.151033181517     2.345698744984     1.007825032230
         H            0.575125873708     1.405935818483     1.922895744984     1.007825032230
         H            2.336063873708     1.323134818483     2.197653744984     1.007825032230
         H            2.183489873708     1.389191818483    -1.455629255016     1.007825032230
         H            2.848698873708     2.203318818483    -0.023714255016     1.007825032230
         H            1.107087873708     2.365066818483    -0.415426255016     1.007825032230
         H           -1.688155126292    -1.637302181517     0.919817744984     1.007825032230
         H           -3.913559126292    -0.317353181517     0.862776744984     1.007825032230
         H           -3.268010126292     1.998148818483    -0.526969255016     1.007825032230

  Basis Set: AUG-CC-PVTZ
    Blend: AUG-CC-PVTZ
  Basis Set: (AUG-CC-PVTZ AUX)
    Blend: AUG-CC-PVTZ-JKFIT
	 Reference Energy          =    -905.2707018674773281 [Eh]
	 Singles Energy            =      -0.0000000000000000 [Eh]
	 Same-Spin Energy          =      -0.5999415007480272 [Eh]
	 Opposite-Spin Energy      =      -1.7804132921117626 [Eh]
	 Correlation Energy        =      -2.3803547928597899 [Eh]
	 Total Energy              =    -907.6510566603370762 [Eh]

	 ================> DF-SCS-MP2 Energies <==================
	-----------------------------------------------------------
	 SCS Same-Spin Scale       =       0.3333333333333333 [-]
	 SCS Opposite-Spin Scale   =       1.2000000000000000 [-]
	 SCS Same-Spin Energy      =      -0.1999805002493424 [Eh]
	 SCS Opposite-Spin Energy  =      -2.1364959505341150 [Eh]
	 SCS Correlation Energy    =      -2.3364764507834574 [Eh]
	 SCS Total Energy          =    -907.6071783182608215 [Eh]
	-----------------------------------------------------------

  Dipole Moment: [D]
     X:    -2.6145      Y:     1.8740      Z:     3.5680     Total:     4.8040

*** Psi4 exiting successfully. Buy a developer a beer!
