                               Psi4 1.3.2 release

  ==> Input File <==

--------------------------------------------------------------------------
#psi4
#
memory 32 gb

molecule  {
0 1
  S        0.7637890    -0.7221230    -0.3122950
  O        0.7428910    -1.8740890     0.5977740
  O        1.1390870    -0.8496890    -1.7151490
  N        1.7366500     0.4402300     0.3626080
  N       -1.8489830    -0.7837230     0.4594430
  N       -1.3270270     1.0745880    -0.6709160
  C       -0.8811970    -0.0860610    -0.1982810
  C        1.4606880     0.7318840     1.7727460
  C        1.9603790     1.6404280    -0.4583390
  C       -2.9965950    -0.0375860     0.3980590
  C       -2.7393152     1.1352925    -0.2890526
  H        1.3484140    -0.2039780     2.3191610
  H        0.5624770     1.3529910     1.8963580
  H        2.3234150     1.2701900     2.1711160
  H        2.1708410     1.3362470    -1.4821670
  H        2.8360500     2.1503740    -0.0502520
  H        1.0944390     2.3121220    -0.4419640
  H       -1.7008040    -1.6902470     0.8932800
  H       -3.9262080    -0.3702980     0.8362390
  H       -3.2806590     1.9452040    -0.5535070
units angstrom
no_reorient  #important for SAPT in psi4, default
symmetry c1  #important for SAPT in psi4, default
}

set PROPERTIES_ORIGIN ["COM"]
properties('MP2/aug-cc-pvtz', properties = ['dipole'])
--------------------------------------------------------------------------

    Molecular point group: c1
  Charge       = 0
  Multiplicity = 1
  Basis Set: AUG-CC-PVTZ
    Blend: AUG-CC-PVTZ
  Basis Set: (AUG-CC-PVTZ AUX)
    Blend: AUG-CC-PVTZ-JKFIT

    Orbital Energies [Eh]
    ---------------------

    Doubly Occupied:

       1A    -92.216821     2A    -20.559596     3A    -20.556647
       4A    -15.651540     5A    -15.611831     6A    -15.589081
       7A    -11.339220     8A    -11.299004     9A    -11.275334
      10A    -11.274974    11A    -11.265862    12A     -9.181375
      13A     -6.866599    14A     -6.866179    15A     -6.865753
      16A     -1.465060    17A     -1.359786    18A     -1.345723
      19A     -1.258330    20A     -1.180181    21A     -1.051515
      22A     -0.981723    23A     -0.961291    24A     -0.875477
      25A     -0.846742    26A     -0.815161    27A     -0.752273
      28A     -0.710514    29A     -0.676288    30A     -0.668208
      31A     -0.646354    32A     -0.639844    33A     -0.622619
      34A     -0.616938    35A     -0.606054    36A     -0.577327
      37A     -0.570877    38A     -0.541949    39A     -0.515052
      40A     -0.508575    41A     -0.486065    42A     -0.480638
      43A     -0.463226    44A     -0.419976    45A     -0.414198
      46A     -0.352613

  @DF-RHF Final Energy:  -905.29395824099731

   => Energetics <=

    Nuclear Repulsion Energy =            795.2090876071746379
    One-Electron Energy =               -2821.3453093280481880
    Two-Electron Energy =                1120.8422634798760100
    Total Energy =                       -905.2939582409974264
  Basis Set: (AUG-CC-PVTZ AUX)
    Blend: AUG-CC-PVTZ-RI
    Molecular point group: c1

    Geometry (in Angstrom), charge = 0, multiplicity = 1:

       Center              X                  Y                   Z               Mass
    ------------   -----------------  -----------------  -----------------  -----------------
         S            0.778338770977    -0.678457429908    -0.281404619828    31.972071174400
         O            0.757440770977    -1.830423429908     0.628664380172    15.994914619570
         O            1.153636770977    -0.806023429908    -1.684258619828    15.994914619570
         N            1.751199770977     0.483895570092     0.393498380172    14.003074004430
         N           -1.834433229023    -0.740057429908     0.490333380172    14.003074004430
         N           -1.312477229023     1.118253570092    -0.640025619828    14.003074004430
         C           -0.866647229023    -0.042395429908    -0.167390619828    12.000000000000
         C            1.475237770977     0.775549570092     1.803636380172    12.000000000000
         C            1.974928770977     1.684093570092    -0.427448619828    12.000000000000
         C           -2.982045229023     0.006079570092     0.428949380172    12.000000000000
         C           -2.724765429023     1.178958070092    -0.258162219828    12.000000000000
         H            1.362963770977    -0.160312429908     2.350051380172     1.007825032230
         H            0.577026770977     1.396656570092     1.927248380172     1.007825032230
         H            2.337964770977     1.313855570092     2.202006380172     1.007825032230
         H            2.185390770977     1.379912570092    -1.451276619828     1.007825032230
         H            2.850599770977     2.194039570092    -0.019361619828     1.007825032230
         H            1.108988770977     2.355787570092    -0.411073619828     1.007825032230
         H           -1.686254229023    -1.646581429908     0.924170380172     1.007825032230
         H           -3.911658229023    -0.326632429908     0.867129380172     1.007825032230
         H           -3.266109229023     1.988869570092    -0.522616619828     1.007825032230

  Basis Set: AUG-CC-PVTZ
    Blend: AUG-CC-PVTZ
  Basis Set: (AUG-CC-PVTZ AUX)
    Blend: AUG-CC-PVTZ-JKFIT
	 Reference Energy          =    -905.2939582409973127 [Eh]
	 Singles Energy            =      -0.0000000000000000 [Eh]
	 Same-Spin Energy          =      -0.5969165528761339 [Eh]
	 Opposite-Spin Energy      =      -1.7767287960783915 [Eh]
	 Correlation Energy        =      -2.3736453489545255 [Eh]
	 Total Energy              =    -907.6676035899517956 [Eh]

	 ================> DF-SCS-MP2 Energies <==================
	-----------------------------------------------------------
	 SCS Same-Spin Scale       =       0.3333333333333333 [-]
	 SCS Opposite-Spin Scale   =       1.2000000000000000 [-]
	 SCS Same-Spin Energy      =      -0.1989721842920446 [Eh]
	 SCS Opposite-Spin Energy  =      -2.1320745552940696 [Eh]
	 SCS Correlation Energy    =      -2.3310467395861143 [Eh]
	 SCS Total Energy          =    -907.6250049805834124 [Eh]
	-----------------------------------------------------------

  Dipole Moment: [D]
     X:    -2.6570      Y:     1.9078      Z:     3.5647     Total:     4.8380

*** Psi4 exiting successfully. Buy a developer a beer!
