                               Psi4 1.3.2 release

  ==> Input File <==

--------------------------------------------------------------------------
#psi4
#
memory 32 gb

molecule  {
0 1
  S        0.7107266    -0.7314659    -0.2097791
  O        0.7428910    -1.8740890     0.5977740
  O        1.1390870    -0.8496890    -1.7151490
  N        1.7366500     0.4402300     0.3626080
  N       -1.8489830    -0.7837230     0.4594430
  N       -1.3270270     1.0745880    -0.6709160
  C       -0.8811970    -0.0860610    -0.1982810
  C        1.4606880     0.7318840     1.7727460
  C        1.9603790     1.6404280    -0.4583390
  C       -2.9965950    -0.0375860     0.3980590
  C       -2.6480900     1.1053220    -0.2992680
  H        1.3484140    -0.2039780     2.3191610
  H        0.5624770     1.3529910     1.8963580
  H        2.3234150     1.2701900     2.1711160
  H        2.1708410     1.3362470    -1.4821670
  H        2.8360500     2.1503740    -0.0502520
  H        1.0944390     2.3121220    -0.4419640
  H       -1.7008040    -1.6902470     0.8932800
  H       -3.9262080    -0.3702980     0.8362390
  H       -3.2806590     1.9452040    -0.5535070
units angstrom
no_reorient  #important for SAPT in psi4, default
symmetry c1  #important for SAPT in psi4, default
}

set PROPERTIES_ORIGIN ["COM"]
properties('MP2/aug-cc-pvtz', properties = ['dipole'])
--------------------------------------------------------------------------

    Molecular point group: c1
  Charge       = 0
  Multiplicity = 1
  Basis Set: AUG-CC-PVTZ
    Blend: AUG-CC-PVTZ
  Basis Set: (AUG-CC-PVTZ AUX)
    Blend: AUG-CC-PVTZ-JKFIT

    Orbital Energies [Eh]
    ---------------------

    Doubly Occupied:

       1A    -92.210014     2A    -20.574339     3A    -20.527883
       4A    -15.662022     5A    -15.611667     6A    -15.593956
       7A    -11.341527     8A    -11.299419     9A    -11.279615
      10A    -11.276155    11A    -11.264580    12A     -9.176994
      13A     -6.862047    14A     -6.861938    15A     -6.860784
      16A     -1.482754    17A     -1.377573    18A     -1.308653
      19A     -1.249564    20A     -1.205264    21A     -1.063393
      22A     -0.981938    23A     -0.963032    24A     -0.886609
      25A     -0.849127    26A     -0.823556    27A     -0.755344
      28A     -0.712562    29A     -0.680292    30A     -0.668559
      31A     -0.645845    32A     -0.637501    33A     -0.631320
      34A     -0.623058    35A     -0.605649    36A     -0.579826
      37A     -0.571303    38A     -0.543284    39A     -0.518072
      40A     -0.503903    41A     -0.482727    42A     -0.456251
      43A     -0.452506    44A     -0.433605    45A     -0.419498
      46A     -0.351054

  @DF-RHF Final Energy:  -905.28159612440584

   => Energetics <=

    Nuclear Repulsion Energy =            798.7763604452539994
    One-Electron Energy =               -2828.3827843134949944
    Two-Electron Energy =                1124.3248277438351579
    Total Energy =                       -905.2815961244059508
  Basis Set: (AUG-CC-PVTZ AUX)
    Blend: AUG-CC-PVTZ-RI
    Molecular point group: c1

    Geometry (in Angstrom), charge = 0, multiplicity = 1:

       Center              X                  Y                   Z               Mass
    ------------   -----------------  -----------------  -----------------  -----------------
         S            0.728714482884    -0.684039177928    -0.196913359649    31.972071174400
         O            0.760878882884    -1.826662277928     0.610639740351    15.994914619570
         O            1.157074882884    -0.802262277928    -1.702283259649    15.994914619570
         N            1.754637882884     0.487656722072     0.375473740351    14.003074004430
         N           -1.830995117116    -0.736296277928     0.472308740351    14.003074004430
         N           -1.309039117116     1.122014722072    -0.658050259649    14.003074004430
         C           -0.863209117116    -0.038634277928    -0.185415259649    12.000000000000
         C            1.478675882884     0.779310722072     1.785611740351    12.000000000000
         C            1.978366882884     1.687854722072    -0.445473259649    12.000000000000
         C           -2.978607117116     0.009840722072     0.410924740351    12.000000000000
         C           -2.630102117116     1.152748722072    -0.286402259649    12.000000000000
         H            1.366401882884    -0.156551277928     2.332026740351     1.007825032230
         H            0.580464882884     1.400417722072     1.909223740351     1.007825032230
         H            2.341402882884     1.317616722072     2.183981740351     1.007825032230
         H            2.188828882884     1.383673722072    -1.469301259649     1.007825032230
         H            2.854037882884     2.197800722072    -0.037386259649     1.007825032230
         H            1.112426882884     2.359548722072    -0.429098259649     1.007825032230
         H           -1.682816117116    -1.642820277928     0.906145740351     1.007825032230
         H           -3.908220117116    -0.322871277928     0.849104740351     1.007825032230
         H           -3.262671117116     1.992630722072    -0.540641259649     1.007825032230

  Basis Set: AUG-CC-PVTZ
    Blend: AUG-CC-PVTZ
  Basis Set: (AUG-CC-PVTZ AUX)
    Blend: AUG-CC-PVTZ-JKFIT
	 Reference Energy          =    -905.2815961244058371 [Eh]
	 Singles Energy            =      -0.0000000000000000 [Eh]
	 Same-Spin Energy          =      -0.5983947356916171 [Eh]
	 Opposite-Spin Energy      =      -1.7770799775154715 [Eh]
	 Correlation Energy        =      -2.3754747132070886 [Eh]
	 Total Energy              =    -907.6570708376128778 [Eh]

	 ================> DF-SCS-MP2 Energies <==================
	-----------------------------------------------------------
	 SCS Same-Spin Scale       =       0.3333333333333333 [-]
	 SCS Opposite-Spin Scale   =       1.2000000000000000 [-]
	 SCS Same-Spin Energy      =      -0.1994649118972057 [Eh]
	 SCS Opposite-Spin Energy  =      -2.1324959730185657 [Eh]
	 SCS Correlation Energy    =      -2.3319608849157714 [Eh]
	 SCS Total Energy          =    -907.6135570093216529 [Eh]
	-----------------------------------------------------------

  Dipole Moment: [D]
     X:    -3.2952      Y:     1.8899      Z:     4.4741     Total:     5.8692

*** Psi4 exiting successfully. Buy a developer a beer!
