                               Psi4 1.4a3.dev225

  ==> Input File <==

--------------------------------------------------------------------------
#psi4
#
memory 32 gb

molecule  {
0 1
  S        0.7637890    -0.7221230    -0.3122950
  O        0.7428910    -1.8740890     0.5977740
  O        1.1390870    -0.8496890    -1.7151490
  N        1.7366500     0.4402300     0.3626080
  N       -1.8489830    -0.7837230     0.4594430
  N       -1.3270270     1.0745880    -0.6709160
  C       -0.8644382    -0.1296901    -0.1805145
  C        1.4606880     0.7318840     1.7727460
  C        1.9603790     1.6404280    -0.4583390
  C       -2.9965950    -0.0375860     0.3980590
  C       -2.6480900     1.1053220    -0.2992680
  H        1.3484140    -0.2039780     2.3191610
  H        0.5624770     1.3529910     1.8963580
  H        2.3234150     1.2701900     2.1711160
  H        2.1708410     1.3362470    -1.4821670
  H        2.8360500     2.1503740    -0.0502520
  H        1.0944390     2.3121220    -0.4419640
  H       -1.7008040    -1.6902470     0.8932800
  H       -3.9262080    -0.3702980     0.8362390
  H       -3.2806590     1.9452040    -0.5535070
units angstrom
no_reorient  #important for SAPT in psi4, default
symmetry c1  #important for SAPT in psi4, default
}

set PROPERTIES_ORIGIN ["COM"]
properties('MP2/aug-cc-pvtz', properties = ['dipole'])
--------------------------------------------------------------------------

    Molecular point group: c1
  Charge       = 0
  Multiplicity = 1
  Basis Set: AUG-CC-PVTZ
    Blend: AUG-CC-PVTZ
  Basis Set: (AUG-CC-PVTZ AUX)
    Blend: AUG-CC-PVTZ-JKFIT

    Orbital Energies [Eh]
    ---------------------

    Doubly Occupied:

       1A    -92.215914     2A    -20.556438     3A    -20.556251
       4A    -15.660942     5A    -15.611990     6A    -15.588524
       7A    -11.337111     8A    -11.292911     9A    -11.275490
      10A    -11.275171    11A    -11.265763    12A     -9.180627
      13A     -6.865880    14A     -6.865526    15A     -6.865001
      16A     -1.465144    17A     -1.368934    18A     -1.344994
      19A     -1.258195    20A     -1.189803    21A     -1.054008
      22A     -0.981598    23A     -0.961304    24A     -0.881048
      25A     -0.839121    26A     -0.820710    27A     -0.752673
      28A     -0.711182    29A     -0.677582    30A     -0.668403
      31A     -0.643471    32A     -0.630768    33A     -0.625922
      34A     -0.617250    35A     -0.607297    36A     -0.576890
      37A     -0.570815    38A     -0.541789    39A     -0.513777
      40A     -0.507823    41A     -0.481185    42A     -0.479369
      43A     -0.471663    44A     -0.424666    45A     -0.420095
      46A     -0.344770

  @DF-RHF Final Energy:  -905.29964527835000

   => Energetics <=

    Nuclear Repulsion Energy =            797.6555033936316477
    One-Electron Energy =               -2826.2187221039644101
    Two-Electron Energy =                1123.2635734319828771
    Total Energy =                       -905.2996452783499990
  Basis Set: (AUG-CC-PVTZ AUX)
    Blend: AUG-CC-PVTZ-RI
    Molecular point group: c1

    Geometry (in Angstrom), charge = 0, multiplicity = 1:

       Center              X                  Y                   Z               Mass
    ------------   -----------------  -----------------  -----------------  -----------------
         S            0.770935911388    -0.673411798105    -0.281922286640    31.972071174400
         O            0.750037911388    -1.825377798105     0.628146713360    15.994914619570
         O            1.146233911388    -0.800977798105    -1.684776286640    15.994914619570
         N            1.743796911388     0.488941201895     0.392980713360    14.003074004430
         N           -1.841836088612    -0.735011798105     0.489815713360    14.003074004430
         N           -1.319880088612     1.123299201895    -0.640543286640    14.003074004430
         C           -0.857291288612    -0.080978898105    -0.150141786640    12.000000000000
         C            1.467834911388     0.780595201895     1.803118713360    12.000000000000
         C            1.967525911388     1.689139201895    -0.427966286640    12.000000000000
         C           -2.989448088612     0.011125201895     0.428431713360    12.000000000000
         C           -2.640943088612     1.154033201895    -0.268895286640    12.000000000000
         H            1.355560911388    -0.155266798105     2.349533713360     1.007825032230
         H            0.569623911388     1.401702201895     1.926730713360     1.007825032230
         H            2.330561911388     1.318901201895     2.201488713360     1.007825032230
         H            2.177987911388     1.384958201895    -1.451794286640     1.007825032230
         H            2.843196911388     2.199085201895    -0.019879286640     1.007825032230
         H            1.101585911388     2.360833201895    -0.411591286640     1.007825032230
         H           -1.693657088612    -1.641535798105     0.923652713360     1.007825032230
         H           -3.919061088612    -0.321586798105     0.866611713360     1.007825032230
         H           -3.273512088612     1.993915201895    -0.523134286640     1.007825032230

  Basis Set: AUG-CC-PVTZ
    Blend: AUG-CC-PVTZ
  Basis Set: (AUG-CC-PVTZ AUX)
    Blend: AUG-CC-PVTZ-JKFIT
	 Reference Energy          =    -905.2996452783499990 [Eh]
	 Singles Energy            =      -0.0000000000000000 [Eh]
	 Same-Spin Energy          =      -0.5987827629070559 [Eh]
	 Opposite-Spin Energy      =      -1.7774802018664095 [Eh]
	 Correlation Energy        =      -2.3762629647734652 [Eh]
	 Total Energy              =    -907.6759082431234447 [Eh]

	 ================> DF-SCS-MP2 Energies <==================
	-----------------------------------------------------------
	 SCS Same-Spin Scale       =       0.3333333333333333 [-]
	 SCS Opposite-Spin Scale   =       1.2000000000000000 [-]
	 SCS Same-Spin Energy      =      -0.1995942543023519 [Eh]
	 SCS Opposite-Spin Energy  =      -2.1329762422396912 [Eh]
	 SCS Correlation Energy    =      -2.3325704965420431 [Eh]
	 SCS Total Energy          =    -907.6322157748920745 [Eh]
	-----------------------------------------------------------

  Dipole Moment: [D]
     X:    -2.7756      Y:     1.8848      Z:     3.6016     Total:     4.9222

*** Psi4 exiting successfully. Buy a developer a beer!
