                               Psi4 1.3.2 release

  ==> Input File <==

--------------------------------------------------------------------------
#psi4
#
memory 32 gb

molecule  {
0 1
  S        0.7637890    -0.7221230    -0.3122950
  O        0.7428910    -1.8740890     0.5977740
  O        1.1390870    -0.8496890    -1.7151490
  N        1.7366500     0.4402300     0.3626080
  N       -1.8489830    -0.7837230     0.4594430
  N       -1.3270270     1.0745880    -0.6709160
  C       -0.8969323    -0.0687877    -0.2026823
  C        1.4606880     0.7318840     1.7727460
  C        1.9603790     1.6404280    -0.4583390
  C       -2.9965950    -0.0375860     0.3980590
  C       -2.6480900     1.1053220    -0.2992680
  H        1.3484140    -0.2039780     2.3191610
  H        0.5624770     1.3529910     1.8963580
  H        2.3234150     1.2701900     2.1711160
  H        2.1708410     1.3362470    -1.4821670
  H        2.8360500     2.1503740    -0.0502520
  H        1.0944390     2.3121220    -0.4419640
  H       -1.7008040    -1.6902470     0.8932800
  H       -3.9262080    -0.3702980     0.8362390
  H       -3.2806590     1.9452040    -0.5535070
units angstrom
no_reorient  #important for SAPT in psi4, default
symmetry c1  #important for SAPT in psi4, default
}

set PROPERTIES_ORIGIN ["COM"]
properties('MP2/aug-cc-pvtz', properties = ['dipole'])
--------------------------------------------------------------------------

    Molecular point group: c1
  Charge       = 0
  Multiplicity = 1
  Basis Set: AUG-CC-PVTZ
    Blend: AUG-CC-PVTZ
  Basis Set: (AUG-CC-PVTZ AUX)
    Blend: AUG-CC-PVTZ-JKFIT

    Orbital Energies [Eh]
    ---------------------

    Doubly Occupied:

       1A    -92.215463     2A    -20.559088     3A    -20.555774
       4A    -15.652898     5A    -15.611130     6A    -15.585055
       7A    -11.337520     8A    -11.292583     9A    -11.275374
      10A    -11.272838    11A    -11.266241    12A     -9.179876
      13A     -6.865069    14A     -6.864636    15A     -6.864272
      16A     -1.463709    17A     -1.373297    18A     -1.345430
      19A     -1.257893    20A     -1.203816    21A     -1.047702
      22A     -0.981781    23A     -0.959025    24A     -0.874457
      25A     -0.841544    26A     -0.819401    27A     -0.752878
      28A     -0.710371    29A     -0.676306    30A     -0.667931
      31A     -0.642647    32A     -0.633734    33A     -0.625810
      34A     -0.616852    35A     -0.609286    36A     -0.577331
      37A     -0.571267    38A     -0.542026    39A     -0.513846
      40A     -0.507829    41A     -0.488163    42A     -0.480015
      43A     -0.470175    44A     -0.431966    45A     -0.416958
      46A     -0.346581

  @DF-RHF Final Energy:  -905.30703737850206

   => Energetics <=

    Nuclear Repulsion Energy =            797.3629073206433304
    One-Electron Energy =               -2825.6442003591132561
    Two-Electron Energy =                1122.9742556599676391
    Total Energy =                       -905.3070373785021729
  Basis Set: (AUG-CC-PVTZ AUX)
    Blend: AUG-CC-PVTZ-RI
    Molecular point group: c1

    Geometry (in Angstrom), charge = 0, multiplicity = 1:

       Center              X                  Y                   Z               Mass
    ------------   -----------------  -----------------  -----------------  -----------------
         S            0.773163549369    -0.677586971426    -0.280402569730    31.972071174400
         O            0.752265549369    -1.829552971426     0.629666430270    15.994914619570
         O            1.148461549369    -0.805152971426    -1.683256569730    15.994914619570
         N            1.746024549369     0.484766028574     0.394500430270    14.003074004430
         N           -1.839608450631    -0.739186971426     0.491335430270    14.003074004430
         N           -1.317652450631     1.119124028574    -0.639023569730    14.003074004430
         C           -0.887557750631    -0.024251671426    -0.170789869730    12.000000000000
         C            1.470062549369     0.776420028574     1.804638430270    12.000000000000
         C            1.969753549369     1.684964028574    -0.426446569730    12.000000000000
         C           -2.987220450631     0.006950028574     0.429951430270    12.000000000000
         C           -2.638715450631     1.149858028574    -0.267375569730    12.000000000000
         H            1.357788549369    -0.159441971426     2.351053430270     1.007825032230
         H            0.571851549369     1.397527028574     1.928250430270     1.007825032230
         H            2.332789549369     1.314726028574     2.203008430270     1.007825032230
         H            2.180215549369     1.380783028574    -1.450274569730     1.007825032230
         H            2.845424549369     2.194910028574    -0.018359569730     1.007825032230
         H            1.103813549369     2.356658028574    -0.410071569730     1.007825032230
         H           -1.691429450631    -1.645710971426     0.925172430270     1.007825032230
         H           -3.916833450631    -0.325761971426     0.868131430270     1.007825032230
         H           -3.271284450631     1.989740028574    -0.521614569730     1.007825032230

  Basis Set: AUG-CC-PVTZ
    Blend: AUG-CC-PVTZ
  Basis Set: (AUG-CC-PVTZ AUX)
    Blend: AUG-CC-PVTZ-JKFIT
	 Reference Energy          =    -905.3070373785020593 [Eh]
	 Singles Energy            =      -0.0000000000000000 [Eh]
	 Same-Spin Energy          =      -0.5968253736978846 [Eh]
	 Opposite-Spin Energy      =      -1.7744566128754053 [Eh]
	 Correlation Energy        =      -2.3712819865732899 [Eh]
	 Total Energy              =    -907.6783193650753674 [Eh]

	 ================> DF-SCS-MP2 Energies <==================
	-----------------------------------------------------------
	 SCS Same-Spin Scale       =       0.3333333333333333 [-]
	 SCS Opposite-Spin Scale   =       1.2000000000000000 [-]
	 SCS Same-Spin Energy      =      -0.1989417912326282 [Eh]
	 SCS Opposite-Spin Energy  =      -2.1293479354504865 [Eh]
	 SCS Correlation Energy    =      -2.3282897266831148 [Eh]
	 SCS Total Energy          =    -907.6353271051851834 [Eh]
	-----------------------------------------------------------

  Dipole Moment: [D]
     X:    -2.6340      Y:     1.8912      Z:     3.5555     Total:     4.8121

*** Psi4 exiting successfully. Buy a developer a beer!
