                               Psi4 1.4a3.dev225

  ==> Input File <==

--------------------------------------------------------------------------
#psi4
#
memory 32 gb

molecule  {
0 1
  S        0.7637890    -0.7221230    -0.3122950
  O        0.7428910    -1.8740890     0.5977740
  O        1.1390870    -0.8496890    -1.7151490
  N        1.7366500     0.4402300     0.3626080
  N       -1.8489830    -0.7837230     0.4594430
  N       -1.3270270     1.0745880    -0.6709160
  C       -0.8811970    -0.0860610    -0.1982810
  C        1.4606880     0.7318840     1.7727460
  C        1.9603790     1.6404280    -0.4583390
  C       -3.0133458    -0.0266952     0.3971630
  C       -2.6480900     1.1053220    -0.2992680
  H        1.3484140    -0.2039780     2.3191610
  H        0.5624770     1.3529910     1.8963580
  H        2.3234150     1.2701900     2.1711160
  H        2.1708410     1.3362470    -1.4821670
  H        2.8360500     2.1503740    -0.0502520
  H        1.0944390     2.3121220    -0.4419640
  H       -1.7008040    -1.6902470     0.8932800
  H       -3.9262080    -0.3702980     0.8362390
  H       -3.2806590     1.9452040    -0.5535070
units angstrom
no_reorient  #important for SAPT in psi4, default
symmetry c1  #important for SAPT in psi4, default
}

set PROPERTIES_ORIGIN ["COM"]
properties('MP2/aug-cc-pvtz', properties = ['dipole'])
--------------------------------------------------------------------------

    Molecular point group: c1
  Charge       = 0
  Multiplicity = 1
  Basis Set: AUG-CC-PVTZ
    Blend: AUG-CC-PVTZ
  Basis Set: (AUG-CC-PVTZ AUX)
    Blend: AUG-CC-PVTZ-JKFIT

    Orbital Energies [Eh]
    ---------------------

    Doubly Occupied:

       1A    -92.216287     2A    -20.558795     3A    -20.556417
       4A    -15.653757     5A    -15.611761     6A    -15.586013
       7A    -11.339184     8A    -11.292826     9A    -11.275502
      10A    -11.274230    11A    -11.266358    12A     -9.180828
      13A     -6.866050    14A     -6.865637    15A     -6.865215
      16A     -1.464696    17A     -1.366056    18A     -1.345702
      19A     -1.258367    20A     -1.195908    21A     -1.050628
      22A     -0.981981    23A     -0.960846    24A     -0.877877
      25A     -0.838983    26A     -0.816781    27A     -0.752883
      28A     -0.710754    29A     -0.675448    30A     -0.668693
      31A     -0.641732    32A     -0.636539    33A     -0.623727
      34A     -0.615635    35A     -0.607818    36A     -0.577396
      37A     -0.571313    38A     -0.542201    39A     -0.514392
      40A     -0.508067    41A     -0.485999    42A     -0.480310
      43A     -0.471676    44A     -0.427561    45A     -0.418379
      46A     -0.348125

  @DF-RHF Final Energy:  -905.30527890177837

   => Energetics <=

    Nuclear Repulsion Energy =            797.0714434405405200
    One-Electron Energy =               -2825.0627840810916496
    Two-Electron Energy =                1122.6860617387728780
    Total Energy =                       -905.3052789017783653
  Basis Set: (AUG-CC-PVTZ AUX)
    Blend: AUG-CC-PVTZ-RI
    Molecular point group: c1

    Geometry (in Angstrom), charge = 0, multiplicity = 1:

       Center              X                  Y                   Z               Mass
    ------------   -----------------  -----------------  -----------------  -----------------
         S            0.773233167127    -0.677149418165    -0.280642876106    31.972071174400
         O            0.752335167127    -1.829115418165     0.629426123894    15.994914619570
         O            1.148531167127    -0.804715418165    -1.683496876106    15.994914619570
         N            1.746094167127     0.485203581835     0.394260123894    14.003074004430
         N           -1.839538832873    -0.738749418165     0.491095123894    14.003074004430
         N           -1.317582832873     1.119561581835    -0.639263876106    14.003074004430
         C           -0.871752832873    -0.041087418165    -0.166628876106    12.000000000000
         C            1.470132167127     0.776857581835     1.804398123894    12.000000000000
         C            1.969823167127     1.685401581835    -0.426686876106    12.000000000000
         C           -3.003901632873     0.018278381835     0.428815123894    12.000000000000
         C           -2.638645832873     1.150295581835    -0.267615876106    12.000000000000
         H            1.357858167127    -0.159004418165     2.350813123894     1.007825032230
         H            0.571921167127     1.397964581835     1.928010123894     1.007825032230
         H            2.332859167127     1.315163581835     2.202768123894     1.007825032230
         H            2.180285167127     1.381220581835    -1.450514876106     1.007825032230
         H            2.845494167127     2.195347581835    -0.018599876106     1.007825032230
         H            1.103883167127     2.357095581835    -0.410311876106     1.007825032230
         H           -1.691359832873    -1.645273418165     0.924932123894     1.007825032230
         H           -3.916763832873    -0.325324418165     0.867891123894     1.007825032230
         H           -3.271214832873     1.990177581835    -0.521854876106     1.007825032230

  Basis Set: AUG-CC-PVTZ
    Blend: AUG-CC-PVTZ
  Basis Set: (AUG-CC-PVTZ AUX)
    Blend: AUG-CC-PVTZ-JKFIT
	 Reference Energy          =    -905.3052789017783653 [Eh]
	 Singles Energy            =      -0.0000000000000000 [Eh]
	 Same-Spin Energy          =      -0.5973307252503732 [Eh]
	 Opposite-Spin Energy      =      -1.7756001586146815 [Eh]
	 Correlation Energy        =      -2.3729308838650547 [Eh]
	 Total Energy              =    -907.6782097856433893 [Eh]

	 ================> DF-SCS-MP2 Energies <==================
	-----------------------------------------------------------
	 SCS Same-Spin Scale       =       0.3333333333333333 [-]
	 SCS Opposite-Spin Scale   =       1.2000000000000000 [-]
	 SCS Same-Spin Energy      =      -0.1991102417501244 [Eh]
	 SCS Opposite-Spin Energy  =      -2.1307201903376178 [Eh]
	 SCS Correlation Energy    =      -2.3298304320877423 [Eh]
	 SCS Total Energy          =    -907.6351093338661258 [Eh]
	-----------------------------------------------------------

  Dipole Moment: [D]
     X:    -2.6716      Y:     1.9069      Z:     3.5623     Total:     4.8439

*** Psi4 exiting successfully. Buy a developer a beer!
