                               Psi4 1.3.2 release

  ==> Input File <==

--------------------------------------------------------------------------
#psi4
#
memory 32 gb

molecule  {
0 1
  S        0.7637890    -0.7221230    -0.3122950
  O        0.7428910    -1.8740890     0.5977740
  O        1.1390870    -0.8496890    -1.7151490
  N        1.7366500     0.4402300     0.3626080
  N       -1.8489830    -0.7837230     0.4594430
  N       -1.3270270     1.0745880    -0.6709160
  C       -0.8601902    -0.0812816    -0.2069298
  C        1.4606880     0.7318840     1.7727460
  C        1.9603790     1.6404280    -0.4583390
  C       -2.9965950    -0.0375860     0.3980590
  C       -2.6480900     1.1053220    -0.2992680
  H        1.3484140    -0.2039780     2.3191610
  H        0.5624770     1.3529910     1.8963580
  H        2.3234150     1.2701900     2.1711160
  H        2.1708410     1.3362470    -1.4821670
  H        2.8360500     2.1503740    -0.0502520
  H        1.0944390     2.3121220    -0.4419640
  H       -1.7008040    -1.6902470     0.8932800
  H       -3.9262080    -0.3702980     0.8362390
  H       -3.2806590     1.9452040    -0.5535070
units angstrom
no_reorient  #important for SAPT in psi4, default
symmetry c1  #important for SAPT in psi4, default
}

set PROPERTIES_ORIGIN ["COM"]
properties('MP2/aug-cc-pvtz', properties = ['dipole'])
--------------------------------------------------------------------------

    Molecular point group: c1
  Charge       = 0
  Multiplicity = 1
  Basis Set: AUG-CC-PVTZ
    Blend: AUG-CC-PVTZ
  Basis Set: (AUG-CC-PVTZ AUX)
    Blend: AUG-CC-PVTZ-JKFIT

    Orbital Energies [Eh]
    ---------------------

    Doubly Occupied:

       1A    -92.216004     2A    -20.559038     3A    -20.555523
       4A    -15.654451     5A    -15.610823     6A    -15.588631
       7A    -11.337742     8A    -11.295171     9A    -11.275086
      10A    -11.273476    11A    -11.266122    12A     -9.180681
      13A     -6.865944    14A     -6.865503    15A     -6.865077
      16A     -1.464942    17A     -1.364696    18A     -1.345558
      19A     -1.257969    20A     -1.196497    21A     -1.051582
      22A     -0.981608    23A     -0.961099    24A     -0.879658
      25A     -0.840161    26A     -0.813158    27A     -0.753073
      28A     -0.710988    29A     -0.677984    30A     -0.668387
      31A     -0.643151    32A     -0.631134    33A     -0.622634
      34A     -0.616830    35A     -0.608895    36A     -0.577184
      37A     -0.571022    38A     -0.541856    39A     -0.514855
      40A     -0.508079    41A     -0.485888    42A     -0.480028
      43A     -0.471585    44A     -0.429203    45A     -0.418089
      46A     -0.345833

  @DF-RHF Final Energy:  -905.30416247865196

   => Energetics <=

    Nuclear Repulsion Energy =            797.5882159915192915
    One-Electron Energy =               -2826.0989634651346023
    Two-Electron Energy =                1123.2065849949633503
    Total Energy =                       -905.3041624786519606
  Basis Set: (AUG-CC-PVTZ AUX)
    Blend: AUG-CC-PVTZ-RI
    Molecular point group: c1

    Geometry (in Angstrom), charge = 0, multiplicity = 1:

       Center              X                  Y                   Z               Mass
    ------------   -----------------  -----------------  -----------------  -----------------
         S            0.770644689100    -0.676730450206    -0.280111381720    31.972071174400
         O            0.749746689100    -1.828696450206     0.629957618280    15.994914619570
         O            1.145942689100    -0.804296450206    -1.682965381720    15.994914619570
         N            1.743505689100     0.485622549794     0.394791618280    14.003074004430
         N           -1.842127310900    -0.738330450206     0.491626618280    14.003074004430
         N           -1.320171310900     1.119980549794    -0.638732381720    14.003074004430
         C           -0.853334510900    -0.035889050206    -0.174746181720    12.000000000000
         C            1.467543689100     0.777276549794     1.804929618280    12.000000000000
         C            1.967234689100     1.685820549794    -0.426155381720    12.000000000000
         C           -2.989739310900     0.007806549794     0.430242618280    12.000000000000
         C           -2.641234310900     1.150714549794    -0.267084381720    12.000000000000
         H            1.355269689100    -0.158585450206     2.351344618280     1.007825032230
         H            0.569332689100     1.398383549794     1.928541618280     1.007825032230
         H            2.330270689100     1.315582549794     2.203299618280     1.007825032230
         H            2.177696689100     1.381639549794    -1.449983381720     1.007825032230
         H            2.842905689100     2.195766549794    -0.018068381720     1.007825032230
         H            1.101294689100     2.357514549794    -0.409780381720     1.007825032230
         H           -1.693948310900    -1.644854450206     0.925463618280     1.007825032230
         H           -3.919352310900    -0.324905450206     0.868422618280     1.007825032230
         H           -3.273803310900     1.990596549794    -0.521323381720     1.007825032230

  Basis Set: AUG-CC-PVTZ
    Blend: AUG-CC-PVTZ
  Basis Set: (AUG-CC-PVTZ AUX)
    Blend: AUG-CC-PVTZ-JKFIT
	 Reference Energy          =    -905.3041624786519606 [Eh]
	 Singles Energy            =      -0.0000000000000000 [Eh]
	 Same-Spin Energy          =      -0.5978196377372245 [Eh]
	 Opposite-Spin Energy      =      -1.7761001669613303 [Eh]
	 Correlation Energy        =      -2.3739198046985548 [Eh]
	 Total Energy              =    -907.6780822833504772 [Eh]

	 ================> DF-SCS-MP2 Energies <==================
	-----------------------------------------------------------
	 SCS Same-Spin Scale       =       0.3333333333333333 [-]
	 SCS Opposite-Spin Scale   =       1.2000000000000000 [-]
	 SCS Same-Spin Energy      =      -0.1992732125790748 [Eh]
	 SCS Opposite-Spin Energy  =      -2.1313202003535965 [Eh]
	 SCS Correlation Energy    =      -2.3305934129326715 [Eh]
	 SCS Total Energy          =    -907.6347558915846321 [Eh]
	-----------------------------------------------------------

  Dipole Moment: [D]
     X:    -2.7069      Y:     1.9110      Z:     3.5637     Total:     4.8661

*** Psi4 exiting successfully. Buy a developer a beer!
