                               Psi4 1.3.2 release

  ==> Input File <==

--------------------------------------------------------------------------
#psi4
#
memory 32 gb

molecule  {
0 1
  S        0.7637890    -0.7221230    -0.3122950
  O        0.8368190    -1.7935372     0.6889173
  O        1.1390870    -0.8496890    -1.7151490
  N        1.7366500     0.4402300     0.3626080
  N       -1.8489830    -0.7837230     0.4594430
  N       -1.3270270     1.0745880    -0.6709160
  C       -0.8811970    -0.0860610    -0.1982810
  C        1.4606880     0.7318840     1.7727460
  C        1.9603790     1.6404280    -0.4583390
  C       -2.9965950    -0.0375860     0.3980590
  C       -2.6480900     1.1053220    -0.2992680
  H        1.3484140    -0.2039780     2.3191610
  H        0.5624770     1.3529910     1.8963580
  H        2.3234150     1.2701900     2.1711160
  H        2.1708410     1.3362470    -1.4821670
  H        2.8360500     2.1503740    -0.0502520
  H        1.0944390     2.3121220    -0.4419640
  H       -1.7008040    -1.6902470     0.8932800
  H       -3.9262080    -0.3702980     0.8362390
  H       -3.2806590     1.9452040    -0.5535070
units angstrom
no_reorient  #important for SAPT in psi4, default
symmetry c1  #important for SAPT in psi4, default
}

set PROPERTIES_ORIGIN ["COM"]
properties('MP2/aug-cc-pvtz', properties = ['dipole'])
--------------------------------------------------------------------------

    Molecular point group: c1
  Charge       = 0
  Multiplicity = 1
  Basis Set: AUG-CC-PVTZ
    Blend: AUG-CC-PVTZ
  Basis Set: (AUG-CC-PVTZ AUX)
    Blend: AUG-CC-PVTZ-JKFIT

    Orbital Energies [Eh]
    ---------------------

    Doubly Occupied:

       1A    -92.215814     2A    -20.561316     3A    -20.557076
       4A    -15.657928     5A    -15.604274     6A    -15.589118
       7A    -11.341120     8A    -11.295240     9A    -11.275578
      10A    -11.269819    11A    -11.261546    12A     -9.180380
      13A     -6.865623    14A     -6.865269    15A     -6.864683
      16A     -1.465268    17A     -1.372593    18A     -1.349552
      19A     -1.250761    20A     -1.201103    21A     -1.052494
      22A     -0.976966    23A     -0.956859    24A     -0.877775
      25A     -0.843108    26A     -0.820445    27A     -0.750936
      28A     -0.710469    29A     -0.677224    30A     -0.667667
      31A     -0.642559    32A     -0.634177    33A     -0.625114
      34A     -0.617427    35A     -0.610045    36A     -0.572057
      37A     -0.567084    38A     -0.537934    39A     -0.513341
      40A     -0.511090    41A     -0.485839    42A     -0.481179
      43A     -0.470889    44A     -0.431500    45A     -0.413731
      46A     -0.347976

  @DF-RHF Final Energy:  -905.30152991381408

   => Energetics <=

    Nuclear Repulsion Energy =            797.8942332360152250
    One-Electron Energy =               -2826.7116345443528189
    Two-Electron Energy =                1123.5158713945236286
    Total Energy =                       -905.3015299138139653
  Basis Set: (AUG-CC-PVTZ AUX)
    Blend: AUG-CC-PVTZ-RI
    Molecular point group: c1

    Geometry (in Angstrom), charge = 0, multiplicity = 1:

       Center              X                  Y                   Z               Mass
    ------------   -----------------  -----------------  -----------------  -----------------
         S            0.763501877826    -0.683763445398    -0.289032777366    31.972071174400
         O            0.836531877826    -1.755177645398     0.712179522634    15.994914619570
         O            1.138799877826    -0.811329445398    -1.691886777366    15.994914619570
         N            1.736362877826     0.478589554602     0.385870222634    14.003074004430
         N           -1.849270122174    -0.745363445398     0.482705222634    14.003074004430
         N           -1.327314122174     1.112947554602    -0.647653777366    14.003074004430
         C           -0.881484122174    -0.047701445398    -0.175018777366    12.000000000000
         C            1.460400877826     0.770243554602     1.796008222634    12.000000000000
         C            1.960091877826     1.678787554602    -0.435076777366    12.000000000000
         C           -2.996882122174     0.000773554602     0.421321222634    12.000000000000
         C           -2.648377122174     1.143681554602    -0.276005777366    12.000000000000
         H            1.348126877826    -0.165618445398     2.342423222634     1.007825032230
         H            0.562189877826     1.391350554602     1.919620222634     1.007825032230
         H            2.323127877826     1.308549554602     2.194378222634     1.007825032230
         H            2.170553877826     1.374606554602    -1.458904777366     1.007825032230
         H            2.835762877826     2.188733554602    -0.026989777366     1.007825032230
         H            1.094151877826     2.350481554602    -0.418701777366     1.007825032230
         H           -1.701091122174    -1.651887445398     0.916542222634     1.007825032230
         H           -3.926495122174    -0.331938445398     0.859501222634     1.007825032230
         H           -3.280946122174     1.983563554602    -0.530244777366     1.007825032230

  Basis Set: AUG-CC-PVTZ
    Blend: AUG-CC-PVTZ
  Basis Set: (AUG-CC-PVTZ AUX)
    Blend: AUG-CC-PVTZ-JKFIT
	 Reference Energy          =    -905.3015299138140790 [Eh]
	 Singles Energy            =      -0.0000000000000000 [Eh]
	 Same-Spin Energy          =      -0.5980075359847465 [Eh]
	 Opposite-Spin Energy      =      -1.7764480428867413 [Eh]
	 Correlation Energy        =      -2.3744555788714878 [Eh]
	 Total Energy              =    -907.6759854926855269 [Eh]

	 ================> DF-SCS-MP2 Energies <==================
	-----------------------------------------------------------
	 SCS Same-Spin Scale       =       0.3333333333333333 [-]
	 SCS Opposite-Spin Scale   =       1.2000000000000000 [-]
	 SCS Same-Spin Energy      =      -0.1993358453282488 [Eh]
	 SCS Opposite-Spin Energy  =      -2.1317376514640896 [Eh]
	 SCS Correlation Energy    =      -2.3310734967923383 [Eh]
	 SCS Total Energy          =    -907.6326034106064071 [Eh]
	-----------------------------------------------------------

  Dipole Moment: [D]
     X:    -2.9856      Y:     1.6578      Z:     3.3302     Total:     4.7699

*** Psi4 exiting successfully. Buy a developer a beer!
