                               Psi4 1.3.2 release

  ==> Input File <==

--------------------------------------------------------------------------
#psi4
#
memory 32 gb

molecule  {
0 1
  S        0.7637890    -0.7221230    -0.3122950
  O        0.7504532    -1.8891755     0.5784904
  O        1.1390870    -0.8496890    -1.7151490
  N        1.7366500     0.4402300     0.3626080
  N       -1.8489830    -0.7837230     0.4594430
  N       -1.3270270     1.0745880    -0.6709160
  C       -0.8811970    -0.0860610    -0.1982810
  C        1.4606880     0.7318840     1.7727460
  C        1.9603790     1.6404280    -0.4583390
  C       -2.9965950    -0.0375860     0.3980590
  C       -2.6480900     1.1053220    -0.2992680
  H        1.3484140    -0.2039780     2.3191610
  H        0.5624770     1.3529910     1.8963580
  H        2.3234150     1.2701900     2.1711160
  H        2.1708410     1.3362470    -1.4821670
  H        2.8360500     2.1503740    -0.0502520
  H        1.0944390     2.3121220    -0.4419640
  H       -1.7008040    -1.6902470     0.8932800
  H       -3.9262080    -0.3702980     0.8362390
  H       -3.2806590     1.9452040    -0.5535070
units angstrom
no_reorient  #important for SAPT in psi4, default
symmetry c1  #important for SAPT in psi4, default
}

set PROPERTIES_ORIGIN ["COM"]
properties('MP2/aug-cc-pvtz', properties = ['dipole'])
--------------------------------------------------------------------------

    Molecular point group: c1
  Charge       = 0
  Multiplicity = 1
  Basis Set: AUG-CC-PVTZ
    Blend: AUG-CC-PVTZ
  Basis Set: (AUG-CC-PVTZ AUX)
    Blend: AUG-CC-PVTZ-JKFIT

    Orbital Energies [Eh]
    ---------------------

    Doubly Occupied:

       1A    -92.215484     2A    -20.558338     3A    -20.554215
       4A    -15.655618     5A    -15.611755     6A    -15.587110
       7A    -11.338035     8A    -11.293500     9A    -11.275893
      10A    -11.273909    11A    -11.266407    12A     -9.180043
      13A     -6.865263    14A     -6.864824    15A     -6.864454
      16A     -1.463848    17A     -1.370397    18A     -1.343876
      19A     -1.258597    20A     -1.199121    21A     -1.050512
      22A     -0.982149    23A     -0.960376    24A     -0.877413
      25A     -0.840958    26A     -0.818760    27A     -0.752918
      28A     -0.710402    29A     -0.677092    30A     -0.667793
      31A     -0.643037    32A     -0.632970    33A     -0.625451
      34A     -0.617044    35A     -0.608655    36A     -0.577811
      37A     -0.571469    38A     -0.542235    39A     -0.513859
      40A     -0.506659    41A     -0.485792    42A     -0.478759
      43A     -0.471734    44A     -0.429684    45A     -0.418459
      46A     -0.346462

  @DF-RHF Final Energy:  -905.30610198866907

   => Energetics <=

    Nuclear Repulsion Energy =            797.2541991023945229
    One-Electron Energy =               -2825.4223265208906923
    Two-Electron Energy =                1122.8620254298270993
    Total Energy =                       -905.3061019886690701
  Basis Set: (AUG-CC-PVTZ AUX)
    Blend: AUG-CC-PVTZ-RI
    Molecular point group: c1

    Geometry (in Angstrom), charge = 0, multiplicity = 1:

       Center              X                  Y                   Z               Mass
    ------------   -----------------  -----------------  -----------------  -----------------
         S            0.771393796146    -0.675024226265    -0.278942208239    31.972071174400
         O            0.758057996146    -1.842076726265     0.611843191761    15.994914619570
         O            1.146691796146    -0.802590226265    -1.681796208239    15.994914619570
         N            1.744254796146     0.487328773735     0.395960791761    14.003074004430
         N           -1.841378203854    -0.736624226265     0.492795791761    14.003074004430
         N           -1.319422203854     1.121686773735    -0.637563208239    14.003074004430
         C           -0.873592203854    -0.038962226265    -0.164928208239    12.000000000000
         C            1.468292796146     0.778982773735     1.806098791761    12.000000000000
         C            1.967983796146     1.687526773735    -0.424986208239    12.000000000000
         C           -2.988990203854     0.009512773735     0.431411791761    12.000000000000
         C           -2.640485203854     1.152420773735    -0.265915208239    12.000000000000
         H            1.356018796146    -0.156879226265     2.352513791761     1.007825032230
         H            0.570081796146     1.400089773735     1.929710791761     1.007825032230
         H            2.331019796146     1.317288773735     2.204468791761     1.007825032230
         H            2.178445796146     1.383345773735    -1.448814208239     1.007825032230
         H            2.843654796146     2.197472773735    -0.016899208239     1.007825032230
         H            1.102043796146     2.359220773735    -0.408611208239     1.007825032230
         H           -1.693199203854    -1.643148226265     0.926632791761     1.007825032230
         H           -3.918603203854    -0.323199226265     0.869591791761     1.007825032230
         H           -3.273054203854     1.992302773735    -0.520154208239     1.007825032230

  Basis Set: AUG-CC-PVTZ
    Blend: AUG-CC-PVTZ
  Basis Set: (AUG-CC-PVTZ AUX)
    Blend: AUG-CC-PVTZ-JKFIT
	 Reference Energy          =    -905.3061019886690701 [Eh]
	 Singles Energy            =      -0.0000000000000000 [Eh]
	 Same-Spin Energy          =      -0.5973903324547361 [Eh]
	 Opposite-Spin Energy      =      -1.7753108526056249 [Eh]
	 Correlation Energy        =      -2.3727011850603610 [Eh]
	 Total Energy              =    -907.6788031737294205 [Eh]

	 ================> DF-SCS-MP2 Energies <==================
	-----------------------------------------------------------
	 SCS Same-Spin Scale       =       0.3333333333333333 [-]
	 SCS Opposite-Spin Scale   =       1.2000000000000000 [-]
	 SCS Same-Spin Energy      =      -0.1991301108182453 [Eh]
	 SCS Opposite-Spin Energy  =      -2.1303730231267499 [Eh]
	 SCS Correlation Energy    =      -2.3295031339449954 [Eh]
	 SCS Total Energy          =    -907.6356051226140380 [Eh]
	-----------------------------------------------------------

  Dipole Moment: [D]
     X:    -2.7094      Y:     1.9338      Z:     3.6190     Total:     4.9170

*** Psi4 exiting successfully. Buy a developer a beer!
