                               Psi4 1.4a3.dev225

  ==> Input File <==

--------------------------------------------------------------------------
#psi4
#
memory 32 gb

molecule  {
0 1
  S        0.7637890    -0.7221230    -0.3122950
  O        0.7428910    -1.8740890     0.5977740
  O        1.1390870    -0.8496890    -1.7151490
  N        1.7366500     0.4402300     0.3626080
  N       -1.8489830    -0.7837230     0.4594430
  N       -1.3270270     1.0745880    -0.6709160
  C       -0.8811970    -0.0860610    -0.1982810
  C        1.4606880     0.7318840     1.7727460
  C        1.9603790     1.6404280    -0.4583390
  C       -2.9547181    -0.0648129     0.4002989
  C       -2.6480900     1.1053220    -0.2992680
  H        1.3484140    -0.2039780     2.3191610
  H        0.5624770     1.3529910     1.8963580
  H        2.3234150     1.2701900     2.1711160
  H        2.1708410     1.3362470    -1.4821670
  H        2.8360500     2.1503740    -0.0502520
  H        1.0944390     2.3121220    -0.4419640
  H       -1.7008040    -1.6902470     0.8932800
  H       -3.9262080    -0.3702980     0.8362390
  H       -3.2806590     1.9452040    -0.5535070
units angstrom
no_reorient  #important for SAPT in psi4, default
symmetry c1  #important for SAPT in psi4, default
}

set PROPERTIES_ORIGIN ["COM"]
properties('MP2/aug-cc-pvtz', properties = ['dipole'])
--------------------------------------------------------------------------

    Molecular point group: c1
  Charge       = 0
  Multiplicity = 1
  Basis Set: AUG-CC-PVTZ
    Blend: AUG-CC-PVTZ
  Basis Set: (AUG-CC-PVTZ AUX)
    Blend: AUG-CC-PVTZ-JKFIT

    Orbital Energies [Eh]
    ---------------------

    Doubly Occupied:

       1A    -92.214603     2A    -20.557750     3A    -20.554506
       4A    -15.658448     5A    -15.610117     6A    -15.588415
       7A    -11.333038     8A    -11.294344     9A    -11.274698
      10A    -11.272005    11A    -11.265467    12A     -9.179063
      13A     -6.864275    14A     -6.863889    15A     -6.863472
      16A     -1.463453    17A     -1.381447    18A     -1.344572
      19A     -1.257099    20A     -1.205942    21A     -1.048477
      22A     -0.981028    23A     -0.957808    24A     -0.875483
      25A     -0.845417    26A     -0.822868    27A     -0.752871
      28A     -0.710741    29A     -0.680936    30A     -0.667094
      31A     -0.645619    32A     -0.630966    33A     -0.622252
      34A     -0.619496    35A     -0.608354    36A     -0.576730
      37A     -0.570589    38A     -0.541293    39A     -0.513090
      40A     -0.507461    41A     -0.483940    42A     -0.479229
      43A     -0.470930    44A     -0.434048    45A     -0.417259
      46A     -0.340846

  @DF-RHF Final Energy:  -905.30320321204795

   => Energetics <=

    Nuclear Repulsion Energy =            798.5039894649966072
    One-Electron Energy =               -2827.9115296221466451
    Two-Electron Energy =                1124.1043369451019771
    Total Energy =                       -905.3032032120479471
  Basis Set: (AUG-CC-PVTZ AUX)
    Blend: AUG-CC-PVTZ-RI
    Molecular point group: c1

    Geometry (in Angstrom), charge = 0, multiplicity = 1:

       Center              X                  Y                   Z               Mass
    ------------   -----------------  -----------------  -----------------  -----------------
         S            0.769213936212    -0.674536253428    -0.280857858209    31.972071174400
         O            0.748315936212    -1.826502253428     0.629211141791    15.994914619570
         O            1.144511936212    -0.802102253428    -1.683711858209    15.994914619570
         N            1.742074936212     0.487816746572     0.394045141791    14.003074004430
         N           -1.843558063788    -0.736136253428     0.490880141791    14.003074004430
         N           -1.321602063788     1.122174746572    -0.639478858209    14.003074004430
         C           -0.875772063788    -0.038474253428    -0.166843858209    12.000000000000
         C            1.466112936212     0.779470746572     1.804183141791    12.000000000000
         C            1.965803936212     1.688014746572    -0.426901858209    12.000000000000
         C           -2.949293163788    -0.017226153428     0.431736041791    12.000000000000
         C           -2.642665063788     1.152908746572    -0.267830858209    12.000000000000
         H            1.353838936212    -0.156391253428     2.350598141791     1.007825032230
         H            0.567901936212     1.400577746572     1.927795141791     1.007825032230
         H            2.328839936212     1.317776746572     2.202553141791     1.007825032230
         H            2.176265936212     1.383833746572    -1.450729858209     1.007825032230
         H            2.841474936212     2.197960746572    -0.018814858209     1.007825032230
         H            1.099863936212     2.359708746572    -0.410526858209     1.007825032230
         H           -1.695379063788    -1.642660253428     0.924717141791     1.007825032230
         H           -3.920783063788    -0.322711253428     0.867676141791     1.007825032230
         H           -3.275234063788     1.992790746572    -0.522069858209     1.007825032230

  Basis Set: AUG-CC-PVTZ
    Blend: AUG-CC-PVTZ
  Basis Set: (AUG-CC-PVTZ AUX)
    Blend: AUG-CC-PVTZ-JKFIT
	 Reference Energy          =    -905.3032032120479471 [Eh]
	 Singles Energy            =      -0.0000000000000000 [Eh]
	 Same-Spin Energy          =      -0.5978632057384825 [Eh]
	 Opposite-Spin Energy      =      -1.7751760745802316 [Eh]
	 Correlation Energy        =      -2.3730392803187144 [Eh]
	 Total Energy              =    -907.6762424923666686 [Eh]

	 ================> DF-SCS-MP2 Energies <==================
	-----------------------------------------------------------
	 SCS Same-Spin Scale       =       0.3333333333333333 [-]
	 SCS Opposite-Spin Scale   =       1.2000000000000000 [-]
	 SCS Same-Spin Energy      =      -0.1992877352461608 [Eh]
	 SCS Opposite-Spin Energy  =      -2.1302112894962777 [Eh]
	 SCS Correlation Energy    =      -2.3294990247424385 [Eh]
	 SCS Total Energy          =    -907.6327022367903510 [Eh]
	-----------------------------------------------------------

  Dipole Moment: [D]
     X:    -2.7099      Y:     1.8468      Z:     3.5903     Total:     4.8625

*** Psi4 exiting successfully. Buy a developer a beer!
