                               Psi4 1.3.2 release

  ==> Input File <==

--------------------------------------------------------------------------
#psi4
#
memory 32 gb

molecule  {
0 1
  S        0.7637890    -0.7221230    -0.3122950
  O        0.7428910    -1.8740890     0.5977740
  O        1.1390870    -0.8496890    -1.7151490
  N        1.5920114     0.5323529     0.3900973
  N       -1.8489830    -0.7837230     0.4594430
  N       -1.3270270     1.0745880    -0.6709160
  C       -0.8811970    -0.0860610    -0.1982810
  C        1.4606880     0.7318840     1.7727460
  C        1.9603790     1.6404280    -0.4583390
  C       -2.9965950    -0.0375860     0.3980590
  C       -2.6480900     1.1053220    -0.2992680
  H        1.3484140    -0.2039780     2.3191610
  H        0.5624770     1.3529910     1.8963580
  H        2.3234150     1.2701900     2.1711160
  H        2.1708410     1.3362470    -1.4821670
  H        2.8360500     2.1503740    -0.0502520
  H        1.0944390     2.3121220    -0.4419640
  H       -1.7008040    -1.6902470     0.8932800
  H       -3.9262080    -0.3702980     0.8362390
  H       -3.2806590     1.9452040    -0.5535070
units angstrom
no_reorient  #important for SAPT in psi4, default
symmetry c1  #important for SAPT in psi4, default
}

set PROPERTIES_ORIGIN ["COM"]
properties('MP2/aug-cc-pvtz', properties = ['dipole'])
--------------------------------------------------------------------------

    Molecular point group: c1
  Charge       = 0
  Multiplicity = 1
  Basis Set: AUG-CC-PVTZ
    Blend: AUG-CC-PVTZ
  Basis Set: (AUG-CC-PVTZ AUX)
    Blend: AUG-CC-PVTZ-JKFIT

    Orbital Energies [Eh]
    ---------------------

    Doubly Occupied:

       1A    -92.220837     2A    -20.563329     3A    -20.562593
       4A    -15.651630     5A    -15.602199     6A    -15.582413
       7A    -11.333231     8A    -11.289076     9A    -11.271308
      10A    -11.270622    11A    -11.265639    12A     -9.184472
      13A     -6.869770    14A     -6.869308    15A     -6.869041
      16A     -1.467699    17A     -1.366995    18A     -1.349570
      19A     -1.273728    20A     -1.195364    21A     -1.048692
      22A     -0.992978    23A     -0.963948    24A     -0.869301
      25A     -0.837410    26A     -0.814343    27A     -0.756978
      28A     -0.717325    29A     -0.681229    30A     -0.673897
      31A     -0.646422    32A     -0.631341    33A     -0.624374
      34A     -0.618149    35A     -0.609043    36A     -0.576881
      37A     -0.570792    38A     -0.555513    39A     -0.520798
      40A     -0.511230    41A     -0.485774    42A     -0.484673
      43A     -0.467688    44A     -0.426484    45A     -0.399563
      46A     -0.340989

  @DF-RHF Final Energy:  -905.29640094111596

   => Energetics <=

    Nuclear Repulsion Energy =            799.5820296566988645
    One-Electron Energy =               -2829.9875857358920257
    Two-Electron Energy =                1125.1091551380770852
    Total Energy =                       -905.2964009411159623
  Basis Set: (AUG-CC-PVTZ AUX)
    Blend: AUG-CC-PVTZ-RI
    Molecular point group: c1

    Geometry (in Angstrom), charge = 0, multiplicity = 1:

       Center              X                  Y                   Z               Mass
    ------------   -----------------  -----------------  -----------------  -----------------
         S            0.783655695055    -0.683772498235    -0.282903406291    31.972071174400
         O            0.762757695055    -1.835738498235     0.627165593709    15.994914619570
         O            1.158953695055    -0.811338498235    -1.685757406291    15.994914619570
         N            1.611878095055     0.570703401765     0.419488893709    14.003074004430
         N           -1.829116304945    -0.745372498235     0.488834593709    14.003074004430
         N           -1.307160304945     1.112938501765    -0.641524406291    14.003074004430
         C           -0.861330304945    -0.047710498235    -0.168889406291    12.000000000000
         C            1.480554695055     0.770234501765     1.802137593709    12.000000000000
         C            1.980245695055     1.678778501765    -0.428947406291    12.000000000000
         C           -2.976728304945     0.000764501765     0.427450593709    12.000000000000
         C           -2.628223304945     1.143672501765    -0.269876406291    12.000000000000
         H            1.368280695055    -0.165627498235     2.348552593709     1.007825032230
         H            0.582343695055     1.391341501765     1.925749593709     1.007825032230
         H            2.343281695055     1.308540501765     2.200507593709     1.007825032230
         H            2.190707695055     1.374597501765    -1.452775406291     1.007825032230
         H            2.855916695055     2.188724501765    -0.020860406291     1.007825032230
         H            1.114305695055     2.350472501765    -0.412572406291     1.007825032230
         H           -1.680937304945    -1.651896498235     0.922671593709     1.007825032230
         H           -3.906341304945    -0.331947498235     0.865630593709     1.007825032230
         H           -3.260792304945     1.983554501765    -0.524115406291     1.007825032230

  Basis Set: AUG-CC-PVTZ
    Blend: AUG-CC-PVTZ
  Basis Set: (AUG-CC-PVTZ AUX)
    Blend: AUG-CC-PVTZ-JKFIT
	 Reference Energy          =    -905.2964009411159623 [Eh]
	 Singles Energy            =      -0.0000000000000000 [Eh]
	 Same-Spin Energy          =      -0.5981820766238172 [Eh]
	 Opposite-Spin Energy      =      -1.7755416041565906 [Eh]
	 Correlation Energy        =      -2.3737236807804076 [Eh]
	 Total Energy              =    -907.6701246218963206 [Eh]

	 ================> DF-SCS-MP2 Energies <==================
	-----------------------------------------------------------
	 SCS Same-Spin Scale       =       0.3333333333333333 [-]
	 SCS Opposite-Spin Scale   =       1.2000000000000000 [-]
	 SCS Same-Spin Energy      =      -0.1993940255412724 [Eh]
	 SCS Opposite-Spin Energy  =      -2.1306499249879085 [Eh]
	 SCS Correlation Energy    =      -2.3300439505291810 [Eh]
	 SCS Total Energy          =    -907.6264448916451784 [Eh]
	-----------------------------------------------------------

  Dipole Moment: [D]
     X:    -2.2078      Y:     1.5932      Z:     3.4331     Total:     4.3816

*** Psi4 exiting successfully. Buy a developer a beer!
