                               Psi4 1.3.2 release

  ==> Input File <==

--------------------------------------------------------------------------
#psi4
#
memory 32 gb

molecule  {
0 1
  S        0.7637890    -0.7221230    -0.3122950
  O        0.7428910    -1.8740890     0.5977740
  O        1.1390870    -0.8496890    -1.7151490
  N        1.7366500     0.4402300     0.3626080
  N       -1.8489830    -0.7837230     0.4594430
  N       -1.3270270     1.0745880    -0.6709160
  C       -0.8141616    -0.2605772    -0.1272152
  C        1.4606880     0.7318840     1.7727460
  C        1.9603790     1.6404280    -0.4583390
  C       -2.9965950    -0.0375860     0.3980590
  C       -2.6480900     1.1053220    -0.2992680
  H        1.3484140    -0.2039780     2.3191610
  H        0.5624770     1.3529910     1.8963580
  H        2.3234150     1.2701900     2.1711160
  H        2.1708410     1.3362470    -1.4821670
  H        2.8360500     2.1503740    -0.0502520
  H        1.0944390     2.3121220    -0.4419640
  H       -1.7008040    -1.6902470     0.8932800
  H       -3.9262080    -0.3702980     0.8362390
  H       -3.2806590     1.9452040    -0.5535070
units angstrom
no_reorient  #important for SAPT in psi4, default
symmetry c1  #important for SAPT in psi4, default
}

set PROPERTIES_ORIGIN ["COM"]
properties('MP2/aug-cc-pvtz', properties = ['dipole'])
--------------------------------------------------------------------------

    Molecular point group: c1
  Charge       = 0
  Multiplicity = 1
  Basis Set: AUG-CC-PVTZ
    Blend: AUG-CC-PVTZ
  Basis Set: (AUG-CC-PVTZ AUX)
    Blend: AUG-CC-PVTZ-JKFIT

    Orbital Energies [Eh]
    ---------------------

    Doubly Occupied:

       1A    -92.214100     2A    -20.556574     3A    -20.549309
       4A    -15.677238     5A    -15.613557     6A    -15.592086
       7A    -11.335216     8A    -11.293614     9A    -11.282028
      10A    -11.274697    11A    -11.264724    12A     -9.179766
      13A     -6.865296    14A     -6.864672    15A     -6.864027
      16A     -1.467446    17A     -1.372124    18A     -1.343342
      19A     -1.258235    20A     -1.169979    21A     -1.065078
      22A     -0.981084    23A     -0.967105    24A     -0.892517
      25A     -0.837606    26A     -0.826322    27A     -0.750953
      28A     -0.712289    29A     -0.682728    30A     -0.668732
      31A     -0.647002    32A     -0.629220    33A     -0.627224
      34A     -0.616820    35A     -0.595266    36A     -0.574757
      37A     -0.569866    38A     -0.541150    39A     -0.513013
      40A     -0.507367    41A     -0.482732    42A     -0.476472
      43A     -0.451741    44A     -0.424730    45A     -0.419041
      46A     -0.337123

  @DF-RHF Final Energy:  -905.25245562555790

   => Energetics <=

    Nuclear Repulsion Energy =            798.3391850725151926
    One-Electron Energy =               -2827.5113477085824343
    Two-Electron Energy =                1123.9197070105094554
    Total Energy =                       -905.2524556255577863
  Basis Set: (AUG-CC-PVTZ AUX)
    Blend: AUG-CC-PVTZ-RI
    Molecular point group: c1

    Geometry (in Angstrom), charge = 0, multiplicity = 1:

       Center              X                  Y                   Z               Mass
    ------------   -----------------  -----------------  -----------------  -----------------
         S            0.767489191407    -0.664438813003    -0.285576228280    31.972071174400
         O            0.746591191407    -1.816404813003     0.624492771720    15.994914619570
         O            1.142787191407    -0.792004813003    -1.688430228280    15.994914619570
         N            1.740350191407     0.497914186997     0.389326771720    14.003074004430
         N           -1.845282808593    -0.726038813003     0.486161771720    14.003074004430
         N           -1.323326808593     1.132272186997    -0.644197228280    14.003074004430
         C           -0.810461408593    -0.202893013003    -0.100496428280    12.000000000000
         C            1.464388191407     0.789568186997     1.799464771720    12.000000000000
         C            1.964079191407     1.698112186997    -0.431620228280    12.000000000000
         C           -2.992894808593     0.020098186997     0.424777771720    12.000000000000
         C           -2.644389808593     1.163006186997    -0.272549228280    12.000000000000
         H            1.352114191407    -0.146293813003     2.345879771720     1.007825032230
         H            0.566177191407     1.410675186997     1.923076771720     1.007825032230
         H            2.327115191407     1.327874186997     2.197834771720     1.007825032230
         H            2.174541191407     1.393931186997    -1.455448228280     1.007825032230
         H            2.839750191407     2.208058186997    -0.023533228280     1.007825032230
         H            1.098139191407     2.369806186997    -0.415245228280     1.007825032230
         H           -1.697103808593    -1.632562813003     0.919998771720     1.007825032230
         H           -3.922507808593    -0.312613813003     0.862957771720     1.007825032230
         H           -3.276958808593     2.002888186997    -0.526788228280     1.007825032230

  Basis Set: AUG-CC-PVTZ
    Blend: AUG-CC-PVTZ
  Basis Set: (AUG-CC-PVTZ AUX)
    Blend: AUG-CC-PVTZ-JKFIT
	 Reference Energy          =    -905.2524556255579000 [Eh]
	 Singles Energy            =      -0.0000000000000000 [Eh]
	 Same-Spin Energy          =      -0.6033730498335080 [Eh]
	 Opposite-Spin Energy      =      -1.7855990208534063 [Eh]
	 Correlation Energy        =      -2.3889720706869144 [Eh]
	 Total Energy              =    -907.6414276962448184 [Eh]

	 ================> DF-SCS-MP2 Energies <==================
	-----------------------------------------------------------
	 SCS Same-Spin Scale       =       0.3333333333333333 [-]
	 SCS Opposite-Spin Scale   =       1.2000000000000000 [-]
	 SCS Same-Spin Energy      =      -0.2011243499445027 [Eh]
	 SCS Opposite-Spin Energy  =      -2.1427188250240876 [Eh]
	 SCS Correlation Energy    =      -2.3438431749685904 [Eh]
	 SCS Total Energy          =    -907.5962988005264833 [Eh]
	-----------------------------------------------------------

  Dipole Moment: [D]
     X:    -3.0479      Y:     1.9536      Z:     3.6500     Total:     5.1409

*** Psi4 exiting successfully. Buy a developer a beer!
