                               Psi4 1.3.2 release

  ==> Input File <==

--------------------------------------------------------------------------
#psi4
#
memory 32 gb

molecule  {
0 1
  S        0.7637890    -0.7221230    -0.3122950
  O        0.7428910    -1.8740890     0.5977740
  O        1.1390870    -0.8496890    -1.7151490
  N        1.7366500     0.4402300     0.3626080
  N       -1.8489830    -0.7837230     0.4594430
  N       -1.3270270     1.0745880    -0.6709160
  C       -0.8811970    -0.0860610    -0.1982810
  C        1.4606880     0.7318840     1.7727460
  C        1.9603790     1.6404280    -0.4583390
  C       -2.9965950    -0.0375860     0.3980590
  C       -2.6984717     0.9400973    -0.1984588
  H        1.3484140    -0.2039780     2.3191610
  H        0.5624770     1.3529910     1.8963580
  H        2.3234150     1.2701900     2.1711160
  H        2.1708410     1.3362470    -1.4821670
  H        2.8360500     2.1503740    -0.0502520
  H        1.0944390     2.3121220    -0.4419640
  H       -1.7008040    -1.6902470     0.8932800
  H       -3.9262080    -0.3702980     0.8362390
  H       -3.2806590     1.9452040    -0.5535070
units angstrom
no_reorient  #important for SAPT in psi4, default
symmetry c1  #important for SAPT in psi4, default
}

set PROPERTIES_ORIGIN ["COM"]
properties('MP2/aug-cc-pvtz', properties = ['dipole'])
--------------------------------------------------------------------------

    Molecular point group: c1
  Charge       = 0
  Multiplicity = 1
  Basis Set: AUG-CC-PVTZ
    Blend: AUG-CC-PVTZ
  Basis Set: (AUG-CC-PVTZ AUX)
    Blend: AUG-CC-PVTZ-JKFIT

    Orbital Energies [Eh]
    ---------------------

    Doubly Occupied:

       1A    -92.217730     2A    -20.559810     3A    -20.558952
       4A    -15.639382     5A    -15.614142     6A    -15.587068
       7A    -11.346379     8A    -11.276913     9A    -11.267719
      10A    -11.265726    11A    -11.258050    12A     -9.182545
      13A     -6.867747    14A     -6.867331    15A     -6.866887
      16A     -1.466686    17A     -1.377329    18A     -1.347538
      19A     -1.260378    20A     -1.179761    21A     -1.086335
      22A     -0.983522    23A     -0.971056    24A     -0.887506
      25A     -0.819797    26A     -0.805685    27A     -0.756564
      28A     -0.712685    29A     -0.678512    30A     -0.670955
      31A     -0.648033    32A     -0.645540    33A     -0.631852
      34A     -0.616044    35A     -0.580422    36A     -0.572981
      37A     -0.546517    38A     -0.543497    39A     -0.514220
      40A     -0.507236    41A     -0.495056    42A     -0.482211
      43A     -0.471716    44A     -0.422307    45A     -0.413053
      46A     -0.388629

  @DF-RHF Final Energy:  -905.24349169858681

   => Energetics <=

    Nuclear Repulsion Energy =            799.7888040536848848
    One-Electron Energy =               -2830.3445791883486891
    Two-Electron Energy =                1125.3122834360769957
    Total Energy =                       -905.2434916985866948
  Basis Set: (AUG-CC-PVTZ AUX)
    Blend: AUG-CC-PVTZ-RI
    Molecular point group: c1

    Geometry (in Angstrom), charge = 0, multiplicity = 1:

       Center              X                  Y                   Z               Mass
    ------------   -----------------  -----------------  -----------------  -----------------
         S            0.775538738605    -0.665075793202    -0.287615291604    31.972071174400
         O            0.754640738605    -1.817041793202     0.622453708396    15.994914619570
         O            1.150836738605    -0.792641793202    -1.690469291604    15.994914619570
         N            1.748399738605     0.497277206798     0.387287708396    14.003074004430
         N           -1.837233261395    -0.726675793202     0.484122708396    14.003074004430
         N           -1.315277261395     1.131635206798    -0.646236291604    14.003074004430
         C           -0.869447261395    -0.029013793202    -0.173601291604    12.000000000000
         C            1.472437738605     0.788931206798     1.797425708396    12.000000000000
         C            1.972128738605     1.697475206798    -0.433659291604    12.000000000000
         C           -2.984845261395     0.019461206798     0.422738708396    12.000000000000
         C           -2.686721961395     0.997144506798    -0.173779091604    12.000000000000
         H            1.360163738605    -0.146930793202     2.343840708396     1.007825032230
         H            0.574226738605     1.410038206798     1.921037708396     1.007825032230
         H            2.335164738605     1.327237206798     2.195795708396     1.007825032230
         H            2.182590738605     1.393294206798    -1.457487291604     1.007825032230
         H            2.847799738605     2.207421206798    -0.025572291604     1.007825032230
         H            1.106188738605     2.369169206798    -0.417284291604     1.007825032230
         H           -1.689054261395    -1.633199793202     0.917959708396     1.007825032230
         H           -3.914458261395    -0.313250793202     0.860918708396     1.007825032230
         H           -3.268909261395     2.002251206798    -0.528827291604     1.007825032230

  Basis Set: AUG-CC-PVTZ
    Blend: AUG-CC-PVTZ
  Basis Set: (AUG-CC-PVTZ AUX)
    Blend: AUG-CC-PVTZ-JKFIT
	 Reference Energy          =    -905.2434916985868085 [Eh]
	 Singles Energy            =      -0.0000000000000000 [Eh]
	 Same-Spin Energy          =      -0.5955538306521235 [Eh]
	 Opposite-Spin Energy      =      -1.7743156672137630 [Eh]
	 Correlation Energy        =      -2.3698694978658867 [Eh]
	 Total Energy              =    -907.6133611964527290 [Eh]

	 ================> DF-SCS-MP2 Energies <==================
	-----------------------------------------------------------
	 SCS Same-Spin Scale       =       0.3333333333333333 [-]
	 SCS Opposite-Spin Scale   =       1.2000000000000000 [-]
	 SCS Same-Spin Energy      =      -0.1985179435507078 [Eh]
	 SCS Opposite-Spin Energy  =      -2.1291788006565153 [Eh]
	 SCS Correlation Energy    =      -2.3276967442072234 [Eh]
	 SCS Total Energy          =    -907.5711884427939822 [Eh]
	-----------------------------------------------------------

  Dipole Moment: [D]
     X:    -2.5378      Y:     1.7958      Z:     3.6087     Total:     4.7632

*** Psi4 exiting successfully. Buy a developer a beer!
