                               Psi4 1.3.2 release

  ==> Input File <==

--------------------------------------------------------------------------
#psi4
#
memory 32 gb

molecule  {
0 1
  S        0.7637890    -0.7221230    -0.3122950
  O        0.7428910    -1.8740890     0.5977740
  O        1.1390870    -0.8496890    -1.7151490
  N        1.7366500     0.4402300     0.3626080
  N       -1.7853957    -0.6781747     0.3860502
  N       -1.3270270     1.0745880    -0.6709160
  C       -0.8811970    -0.0860610    -0.1982810
  C        1.4606880     0.7318840     1.7727460
  C        1.9603790     1.6404280    -0.4583390
  C       -2.9965950    -0.0375860     0.3980590
  C       -2.6480900     1.1053220    -0.2992680
  H        1.3484140    -0.2039780     2.3191610
  H        0.5624770     1.3529910     1.8963580
  H        2.3234150     1.2701900     2.1711160
  H        2.1708410     1.3362470    -1.4821670
  H        2.8360500     2.1503740    -0.0502520
  H        1.0944390     2.3121220    -0.4419640
  H       -1.7008040    -1.6902470     0.8932800
  H       -3.9262080    -0.3702980     0.8362390
  H       -3.2806590     1.9452040    -0.5535070
units angstrom
no_reorient  #important for SAPT in psi4, default
symmetry c1  #important for SAPT in psi4, default
}

set PROPERTIES_ORIGIN ["COM"]
properties('MP2/aug-cc-pvtz', properties = ['dipole'])
--------------------------------------------------------------------------

    Molecular point group: c1
  Charge       = 0
  Multiplicity = 1
  Basis Set: AUG-CC-PVTZ
    Blend: AUG-CC-PVTZ
  Basis Set: (AUG-CC-PVTZ AUX)
    Blend: AUG-CC-PVTZ-JKFIT

    Orbital Energies [Eh]
    ---------------------

    Doubly Occupied:

       1A    -92.217524     2A    -20.560679     3A    -20.557767
       4A    -15.661351     5A    -15.612656     6A    -15.567081
       7A    -11.324219     8A    -11.282568     9A    -11.276285
      10A    -11.272102    11A    -11.265761    12A     -9.182195
      13A     -6.867410    14A     -6.867006    15A     -6.866567
      16A     -1.467789    17A     -1.405711    18A     -1.347461
      19A     -1.259096    20A     -1.184605    21A     -1.065632
      22A     -0.982282    23A     -0.962191    24A     -0.870144
      25A     -0.842321    26A     -0.815587    27A     -0.754559
      28A     -0.713358    29A     -0.685533    30A     -0.671017
      31A     -0.654760    32A     -0.639492    33A     -0.621133
      34A     -0.612662    35A     -0.594256    36A     -0.578091
      37A     -0.571295    38A     -0.542452    39A     -0.515585
      40A     -0.508949    41A     -0.483922    42A     -0.481655
      43A     -0.461804    44A     -0.418961    45A     -0.418632
      46A     -0.350848

  @DF-RHF Final Energy:  -905.27325168607990

   => Energetics <=

    Nuclear Repulsion Energy =            801.4835343700124213
    One-Electron Energy =               -2833.7876638391858251
    Two-Electron Energy =                1127.0308777830935014
    Total Energy =                       -905.2732516860799024
  Basis Set: (AUG-CC-PVTZ AUX)
    Blend: AUG-CC-PVTZ-RI
    Molecular point group: c1

    Geometry (in Angstrom), charge = 0, multiplicity = 1:

       Center              X                  Y                   Z               Mass
    ------------   -----------------  -----------------  -----------------  -----------------
         S            0.766997920227    -0.684846511075    -0.274832982266    31.972071174400
         O            0.746099920227    -1.836812511075     0.635236017734    15.994914619570
         O            1.142295920227    -0.812412511075    -1.677686982266    15.994914619570
         N            1.739858920227     0.477506488925     0.400070017734    14.003074004430
         N           -1.782186779773    -0.640898211075     0.423512217734    14.003074004430
         N           -1.323818079773     1.111864488925    -0.633453982266    14.003074004430
         C           -0.877988079773    -0.048784511075    -0.160818982266    12.000000000000
         C            1.463896920227     0.769160488925     1.810208017734    12.000000000000
         C            1.963587920227     1.677704488925    -0.420876982266    12.000000000000
         C           -2.993386079773    -0.000309511075     0.435521017734    12.000000000000
         C           -2.644881079773     1.142598488925    -0.261805982266    12.000000000000
         H            1.351622920227    -0.166701511075     2.356623017734     1.007825032230
         H            0.565685920227     1.390267488925     1.933820017734     1.007825032230
         H            2.326623920227     1.307466488925     2.208578017734     1.007825032230
         H            2.174049920227     1.373523488925    -1.444704982266     1.007825032230
         H            2.839258920227     2.187650488925    -0.012789982266     1.007825032230
         H            1.097647920227     2.349398488925    -0.404501982266     1.007825032230
         H           -1.697595079773    -1.652970511075     0.930742017734     1.007825032230
         H           -3.922999079773    -0.333021511075     0.873701017734     1.007825032230
         H           -3.277450079773     1.982480488925    -0.516044982266     1.007825032230

  Basis Set: AUG-CC-PVTZ
    Blend: AUG-CC-PVTZ
  Basis Set: (AUG-CC-PVTZ AUX)
    Blend: AUG-CC-PVTZ-JKFIT
	 Reference Energy          =    -905.2732516860799024 [Eh]
	 Singles Energy            =      -0.0000000000000000 [Eh]
	 Same-Spin Energy          =      -0.5983554944536089 [Eh]
	 Opposite-Spin Energy      =      -1.7754430787276636 [Eh]
	 Correlation Energy        =      -2.3737985731812725 [Eh]
	 Total Energy              =    -907.6470502592611638 [Eh]

	 ================> DF-SCS-MP2 Energies <==================
	-----------------------------------------------------------
	 SCS Same-Spin Scale       =       0.3333333333333333 [-]
	 SCS Opposite-Spin Scale   =       1.2000000000000000 [-]
	 SCS Same-Spin Energy      =      -0.1994518314845363 [Eh]
	 SCS Opposite-Spin Energy  =      -2.1305316944731962 [Eh]
	 SCS Correlation Energy    =      -2.3299835259577324 [Eh]
	 SCS Total Energy          =    -907.6032352120375890 [Eh]
	-----------------------------------------------------------

  Dipole Moment: [D]
     X:    -2.6080      Y:     1.6223      Z:     3.7044     Total:     4.8121

*** Psi4 exiting successfully. Buy a developer a beer!
