                               Psi4 1.3.2 release

  ==> Input File <==

--------------------------------------------------------------------------
#psi4
#
memory 32 gb

molecule  {
0 1
  S        0.7637890    -0.7221230    -0.3122950
  O        0.6977320    -1.7763696     0.7074542
  O        1.1390870    -0.8496890    -1.7151490
  N        1.7366500     0.4402300     0.3626080
  N       -1.8489830    -0.7837230     0.4594430
  N       -1.3270270     1.0745880    -0.6709160
  C       -0.8811970    -0.0860610    -0.1982810
  C        1.4606880     0.7318840     1.7727460
  C        1.9603790     1.6404280    -0.4583390
  C       -2.9965950    -0.0375860     0.3980590
  C       -2.6480900     1.1053220    -0.2992680
  H        1.3484140    -0.2039780     2.3191610
  H        0.5624770     1.3529910     1.8963580
  H        2.3234150     1.2701900     2.1711160
  H        2.1708410     1.3362470    -1.4821670
  H        2.8360500     2.1503740    -0.0502520
  H        1.0944390     2.3121220    -0.4419640
  H       -1.7008040    -1.6902470     0.8932800
  H       -3.9262080    -0.3702980     0.8362390
  H       -3.2806590     1.9452040    -0.5535070
units angstrom
no_reorient  #important for SAPT in psi4, default
symmetry c1  #important for SAPT in psi4, default
}

set PROPERTIES_ORIGIN ["COM"]
properties('MP2/aug-cc-pvtz', properties = ['dipole'])
--------------------------------------------------------------------------

    Molecular point group: c1
  Charge       = 0
  Multiplicity = 1
  Basis Set: AUG-CC-PVTZ
    Blend: AUG-CC-PVTZ
  Basis Set: (AUG-CC-PVTZ AUX)
    Blend: AUG-CC-PVTZ-JKFIT

    Orbital Energies [Eh]
    ---------------------

    Doubly Occupied:

       1A    -92.217773     2A    -20.565593     3A    -20.559207
       4A    -15.652271     5A    -15.608579     6A    -15.583940
       7A    -11.334374     8A    -11.290869     9A    -11.271438
      10A    -11.271174    11A    -11.264225    12A     -9.182107
      13A     -6.867305    14A     -6.867105    15A     -6.866391
      16A     -1.467568    17A     -1.368203    18A     -1.353715
      19A     -1.254286    20A     -1.196120    21A     -1.046840
      22A     -0.979046    23A     -0.957618    24A     -0.875483
      25A     -0.838241    26A     -0.816109    27A     -0.753043
      28A     -0.712646    29A     -0.675762    30A     -0.670279
      31A     -0.640472    32A     -0.630559    33A     -0.623379
      34A     -0.616930    35A     -0.609314    36A     -0.573672
      37A     -0.568937    38A     -0.540251    39A     -0.515166
      40A     -0.514808    41A     -0.486125    42A     -0.483191
      43A     -0.469628    44A     -0.427061    45A     -0.415564
      46A     -0.343744

  @DF-RHF Final Energy:  -905.30103920548959

   => Energetics <=

    Nuclear Repulsion Energy =            798.9226360859410079
    One-Electron Energy =               -2828.7951297946679006
    Two-Electron Energy =                1124.5714545032371916
    Total Energy =                       -905.3010392054895874
  Basis Set: (AUG-CC-PVTZ AUX)
    Blend: AUG-CC-PVTZ-RI
    Molecular point group: c1

    Geometry (in Angstrom), charge = 0, multiplicity = 1:

       Center              X                  Y                   Z               Mass
    ------------   -----------------  -----------------  -----------------  -----------------
         S            0.776211344343    -0.685332183219    -0.290726638833    31.972071174400
         O            0.710154344343    -1.739578783219     0.729022561167    15.994914619570
         O            1.151509344343    -0.812898183219    -1.693580638833    15.994914619570
         N            1.749072344343     0.477020816781     0.384176361167    14.003074004430
         N           -1.836560655657    -0.746932183219     0.481011361167    14.003074004430
         N           -1.314604655657     1.111378816781    -0.649347638833    14.003074004430
         C           -0.868774655657    -0.049270183219    -0.176712638833    12.000000000000
         C            1.473110344343     0.768674816781     1.794314361167    12.000000000000
         C            1.972801344343     1.677218816781    -0.436770638833    12.000000000000
         C           -2.984172655657    -0.000795183219     0.419627361167    12.000000000000
         C           -2.635667655657     1.142112816781    -0.277699638833    12.000000000000
         H            1.360836344343    -0.167187183219     2.340729361167     1.007825032230
         H            0.574899344343     1.389781816781     1.917926361167     1.007825032230
         H            2.335837344343     1.306980816781     2.192684361167     1.007825032230
         H            2.183263344343     1.373037816781    -1.460598638833     1.007825032230
         H            2.848472344343     2.187164816781    -0.028683638833     1.007825032230
         H            1.106861344343     2.348912816781    -0.420395638833     1.007825032230
         H           -1.688381655657    -1.653456183219     0.914848361167     1.007825032230
         H           -3.913785655657    -0.333507183219     0.857807361167     1.007825032230
         H           -3.268236655657     1.981994816781    -0.531938638833     1.007825032230

  Basis Set: AUG-CC-PVTZ
    Blend: AUG-CC-PVTZ
  Basis Set: (AUG-CC-PVTZ AUX)
    Blend: AUG-CC-PVTZ-JKFIT
	 Reference Energy          =    -905.3010392054895874 [Eh]
	 Singles Energy            =      -0.0000000000000000 [Eh]
	 Same-Spin Energy          =      -0.5981920567808732 [Eh]
	 Opposite-Spin Energy      =      -1.7767264656284643 [Eh]
	 Correlation Energy        =      -2.3749185224093372 [Eh]
	 Total Energy              =    -907.6759577278988900 [Eh]

	 ================> DF-SCS-MP2 Energies <==================
	-----------------------------------------------------------
	 SCS Same-Spin Scale       =       0.3333333333333333 [-]
	 SCS Opposite-Spin Scale   =       1.2000000000000000 [-]
	 SCS Same-Spin Energy      =      -0.1993973522602910 [Eh]
	 SCS Opposite-Spin Energy  =      -2.1320717587541571 [Eh]
	 SCS Correlation Energy    =      -2.3314691110144481 [Eh]
	 SCS Total Energy          =    -907.6325083165040724 [Eh]
	-----------------------------------------------------------

  Dipole Moment: [D]
     X:    -2.5118      Y:     1.6087      Z:     3.2864     Total:     4.4382

*** Psi4 exiting successfully. Buy a developer a beer!
