                               Psi4 1.3.2 release

  ==> Input File <==

--------------------------------------------------------------------------
#psi4
#
memory 32 gb

molecule  {
0 1
  S        0.7637890    -0.7221230    -0.3122950
  O        0.7428910    -1.8740890     0.5977740
  O        1.1390870    -0.8496890    -1.7151490
  N        1.7366500     0.4402300     0.3626080
  N       -1.8489830    -0.7837230     0.4594430
  N       -1.3270270     1.0745880    -0.6709160
  C       -0.8476793    -0.1733191    -0.1627481
  C        1.4606880     0.7318840     1.7727460
  C        1.9603790     1.6404280    -0.4583390
  C       -2.9965950    -0.0375860     0.3980590
  C       -2.6480900     1.1053220    -0.2992680
  H        1.3484140    -0.2039780     2.3191610
  H        0.5624770     1.3529910     1.8963580
  H        2.3234150     1.2701900     2.1711160
  H        2.1708410     1.3362470    -1.4821670
  H        2.8360500     2.1503740    -0.0502520
  H        1.0944390     2.3121220    -0.4419640
  H       -1.7008040    -1.6902470     0.8932800
  H       -3.9262080    -0.3702980     0.8362390
  H       -3.2806590     1.9452040    -0.5535070
units angstrom
no_reorient  #important for SAPT in psi4, default
symmetry c1  #important for SAPT in psi4, default
}

set PROPERTIES_ORIGIN ["COM"]
properties('MP2/aug-cc-pvtz', properties = ['dipole'])
--------------------------------------------------------------------------

    Molecular point group: c1
  Charge       = 0
  Multiplicity = 1
  Basis Set: AUG-CC-PVTZ
    Blend: AUG-CC-PVTZ
  Basis Set: (AUG-CC-PVTZ AUX)
    Blend: AUG-CC-PVTZ-JKFIT

    Orbital Energies [Eh]
    ---------------------

    Doubly Occupied:

       1A    -92.215588     2A    -20.556462     3A    -20.554147
       4A    -15.666579     5A    -15.612578     6A    -15.590043
       7A    -11.336534     8A    -11.292917     9A    -11.277629
      10A    -11.275026    11A    -11.265408    12A     -9.180565
      13A     -6.865883    14A     -6.865506    15A     -6.864909
      16A     -1.465889    17A     -1.369274    18A     -1.344449
      19A     -1.258274    20A     -1.181928    21A     -1.057929
      22A     -0.981442    23A     -0.962893    24A     -0.884910
      25A     -0.838247    26A     -0.822803    27A     -0.752189
      28A     -0.711581    29A     -0.678876    30A     -0.668549
      31A     -0.644808    32A     -0.628798    33A     -0.626774
      34A     -0.617331    35A     -0.604610    36A     -0.576403
      37A     -0.570499    38A     -0.541589    39A     -0.513534
      40A     -0.507670    41A     -0.481304    42A     -0.477876
      43A     -0.467112    44A     -0.421870    45A     -0.421532
      46A     -0.342712

  @DF-RHF Final Energy:  -905.28815720553348

   => Energetics <=

    Nuclear Repulsion Energy =            797.8657849881565198
    One-Electron Energy =               -2826.6210231965992534
    Two-Electron Energy =                1123.4670810029092536
    Total Energy =                       -905.2881572055334800
  Basis Set: (AUG-CC-PVTZ AUX)
    Blend: AUG-CC-PVTZ-RI
    Molecular point group: c1

    Geometry (in Angstrom), charge = 0, multiplicity = 1:

       Center              X                  Y                   Z               Mass
    ------------   -----------------  -----------------  -----------------  -----------------
         S            0.769787002442    -0.670420805356    -0.283140264902    31.972071174400
         O            0.748889002442    -1.822386805356     0.626928735098    15.994914619570
         O            1.145085002442    -0.797986805356    -1.685994264902    15.994914619570
         N            1.742648002442     0.491932194644     0.391762735098    14.003074004430
         N           -1.842984997558    -0.732020805356     0.488597735098    14.003074004430
         N           -1.321028997558     1.126290194644    -0.641761264902    14.003074004430
         C           -0.841681297558    -0.121616905356    -0.133593364902    12.000000000000
         C            1.466686002442     0.783586194644     1.801900735098    12.000000000000
         C            1.966377002442     1.692130194644    -0.429184264902    12.000000000000
         C           -2.990596997558     0.014116194644     0.427213735098    12.000000000000
         C           -2.642091997558     1.157024194644    -0.270113264902    12.000000000000
         H            1.354412002442    -0.152275805356     2.348315735098     1.007825032230
         H            0.568475002442     1.404693194644     1.925512735098     1.007825032230
         H            2.329413002442     1.321892194644     2.200270735098     1.007825032230
         H            2.176839002442     1.387949194644    -1.453012264902     1.007825032230
         H            2.842048002442     2.202076194644    -0.021097264902     1.007825032230
         H            1.100437002442     2.363824194644    -0.412809264902     1.007825032230
         H           -1.694805997558    -1.638544805356     0.922434735098     1.007825032230
         H           -3.920209997558    -0.318595805356     0.865393735098     1.007825032230
         H           -3.274660997558     1.996906194644    -0.524352264902     1.007825032230

  Basis Set: AUG-CC-PVTZ
    Blend: AUG-CC-PVTZ
  Basis Set: (AUG-CC-PVTZ AUX)
    Blend: AUG-CC-PVTZ-JKFIT
	 Reference Energy          =    -905.2881572055334800 [Eh]
	 Singles Energy            =      -0.0000000000000000 [Eh]
	 Same-Spin Energy          =      -0.6001936906088507 [Eh]
	 Opposite-Spin Energy      =      -1.7798338179413280 [Eh]
	 Correlation Energy        =      -2.3800275085501790 [Eh]
	 Total Energy              =    -907.6681847140836226 [Eh]

	 ================> DF-SCS-MP2 Energies <==================
	-----------------------------------------------------------
	 SCS Same-Spin Scale       =       0.3333333333333333 [-]
	 SCS Opposite-Spin Scale   =       1.2000000000000000 [-]
	 SCS Same-Spin Energy      =      -0.2000645635362836 [Eh]
	 SCS Opposite-Spin Energy  =      -2.1358005815295935 [Eh]
	 SCS Correlation Energy    =      -2.3358651450658772 [Eh]
	 SCS Total Energy          =    -907.6240223505993754 [Eh]
	-----------------------------------------------------------

  Dipole Moment: [D]
     X:    -2.8705      Y:     1.8964      Z:     3.6244     Total:     4.9973

*** Psi4 exiting successfully. Buy a developer a beer!
