                               Psi4 1.4a3.dev225

  ==> Input File <==

--------------------------------------------------------------------------
#psi4
#
memory 32 gb

molecule  {
0 1
  S        0.7637890    -0.7221230    -0.3122950
  O        0.7428910    -1.8740890     0.5977740
  O        1.1390870    -0.8496890    -1.7151490
  N        1.7366500     0.4402300     0.3626080
  N       -1.8489830    -0.7837230     0.4594430
  N       -1.3270270     1.0745880    -0.6709160
  C       -0.8811970    -0.0860610    -0.1982810
  C        1.4606880     0.7318840     1.7727460
  C        1.9603790     1.6404280    -0.4583390
  C       -2.9965950    -0.0375860     0.3980590
  C       -2.6480900     1.1053220    -0.2992680
  H        1.3484140    -0.2039780     2.3191610
  H        0.5624770     1.3529910     1.8963580
  H        2.3234150     1.2701900     2.1711160
  H        2.1708410     1.3362470    -1.4821670
  H        2.8360500     2.1503740    -0.0502520
  H        1.0944390     2.3121220    -0.4419640
  H       -1.7080973    -1.6456281     0.8719267
  H       -3.9262080    -0.3702980     0.8362390
  H       -3.2806590     1.9452040    -0.5535070
units angstrom
no_reorient  #important for SAPT in psi4, default
symmetry c1  #important for SAPT in psi4, default
}

set PROPERTIES_ORIGIN ["COM"]
properties('MP2/aug-cc-pvtz', properties = ['dipole'])
--------------------------------------------------------------------------

    Molecular point group: c1
  Charge       = 0
  Multiplicity = 1
  Basis Set: AUG-CC-PVTZ
    Blend: AUG-CC-PVTZ
  Basis Set: (AUG-CC-PVTZ AUX)
    Blend: AUG-CC-PVTZ-JKFIT

    Orbital Energies [Eh]
    ---------------------

    Doubly Occupied:

       1A    -92.216058     2A    -20.558575     3A    -20.556110
       4A    -15.651314     5A    -15.611520     6A    -15.587258
       7A    -11.338137     8A    -11.293753     9A    -11.275437
      10A    -11.274097    11A    -11.266292    12A     -9.180570
      13A     -6.865792    14A     -6.865383    15A     -6.864962
      16A     -1.464551    17A     -1.372754    18A     -1.345534
      19A     -1.258240    20A     -1.203690    21A     -1.050988
      22A     -0.981895    23A     -0.960893    24A     -0.882000
      25A     -0.846113    26A     -0.822742    27A     -0.753487
      28A     -0.710991    29A     -0.678016    30A     -0.668341
      31A     -0.643635    32A     -0.635663    33A     -0.625925
      34A     -0.617752    35A     -0.609257    36A     -0.577408
      37A     -0.571309    38A     -0.542111    39A     -0.514155
      40A     -0.508105    41A     -0.485827    42A     -0.480114
      43A     -0.471993    44A     -0.430459    45A     -0.418320
      46A     -0.346694

  @DF-RHF Final Energy:  -905.30569423809652

   => Energetics <=

    Nuclear Repulsion Energy =            797.7902026909678170
    One-Electron Energy =               -2826.4233562405161138
    Two-Electron Energy =                1123.3274593114517756
    Total Energy =                       -905.3056942380965211
  Basis Set: (AUG-CC-PVTZ AUX)
    Blend: AUG-CC-PVTZ-RI
    Molecular point group: c1

    Geometry (in Angstrom), charge = 0, multiplicity = 1:

       Center              X                  Y                   Z               Mass
    ------------   -----------------  -----------------  -----------------  -----------------
         S            0.772126805624    -0.676659696971    -0.280581357053    31.972071174400
         O            0.751228805624    -1.828625696971     0.629487642947    15.994914619570
         O            1.147424805624    -0.804225696971    -1.683435357053    15.994914619570
         N            1.744987805624     0.485693303029     0.394321642947    14.003074004430
         N           -1.840645194376    -0.738259696971     0.491156642947    14.003074004430
         N           -1.318689194376     1.120051303029    -0.639202357053    14.003074004430
         C           -0.872859194376    -0.040597696971    -0.166567357053    12.000000000000
         C            1.469025805624     0.777347303029     1.804459642947    12.000000000000
         C            1.968716805624     1.685891303029    -0.426625357053    12.000000000000
         C           -2.988257194376     0.007877303029     0.429772642947    12.000000000000
         C           -2.639752194376     1.150785303029    -0.267554357053    12.000000000000
         H            1.356751805624    -0.158514696971     2.350874642947     1.007825032230
         H            0.570814805624     1.398454303029     1.928071642947     1.007825032230
         H            2.331752805624     1.315653303029     2.202829642947     1.007825032230
         H            2.179178805624     1.381710303029    -1.450453357053     1.007825032230
         H            2.844387805624     2.195837303029    -0.018538357053     1.007825032230
         H            1.102776805624     2.357585303029    -0.410250357053     1.007825032230
         H           -1.699759494376    -1.600164796971     0.903640342947     1.007825032230
         H           -3.917870194376    -0.324834696971     0.867952642947     1.007825032230
         H           -3.272321194376     1.990667303029    -0.521793357053     1.007825032230

  Basis Set: AUG-CC-PVTZ
    Blend: AUG-CC-PVTZ
  Basis Set: (AUG-CC-PVTZ AUX)
    Blend: AUG-CC-PVTZ-JKFIT
	 Reference Energy          =    -905.3056942380965211 [Eh]
	 Singles Energy            =      -0.0000000000000000 [Eh]
	 Same-Spin Energy          =      -0.5970194114511078 [Eh]
	 Opposite-Spin Energy      =      -1.7746073312828297 [Eh]
	 Correlation Energy        =      -2.3716267427339375 [Eh]
	 Total Energy              =    -907.6773209808304728 [Eh]

	 ================> DF-SCS-MP2 Energies <==================
	-----------------------------------------------------------
	 SCS Same-Spin Scale       =       0.3333333333333333 [-]
	 SCS Opposite-Spin Scale   =       1.2000000000000000 [-]
	 SCS Same-Spin Energy      =      -0.1990064704837026 [Eh]
	 SCS Opposite-Spin Energy  =      -2.1295287975393955 [Eh]
	 SCS Correlation Energy    =      -2.3285352680230980 [Eh]
	 SCS Total Energy          =    -907.6342295061195955 [Eh]
	-----------------------------------------------------------

  Dipole Moment: [D]
     X:    -2.6864      Y:     1.9570      Z:     3.5387     Total:     4.8548

*** Psi4 exiting successfully. Buy a developer a beer!
