                               Psi4 1.3.2 release

  ==> Input File <==

--------------------------------------------------------------------------
#psi4
#
memory 32 gb

molecule  {
0 1
  S        0.7637890    -0.7221230    -0.3122950
  O        0.7428910    -1.8740890     0.5977740
  O        1.1390870    -0.8496890    -1.7151490
  N        1.7366500     0.4402300     0.3626080
  N       -1.8489830    -0.7837230     0.4594430
  N       -1.3270270     1.0745880    -0.6709160
  C       -0.8811970    -0.0860610    -0.1982810
  C        1.4606880     0.7318840     1.7727460
  C        1.9603790     1.6404280    -0.4583390
  C       -2.9965950    -0.0375860     0.3980590
  C       -2.4556118     1.1008441    -0.3534169
  H        1.3484140    -0.2039780     2.3191610
  H        0.5624770     1.3529910     1.8963580
  H        2.3234150     1.2701900     2.1711160
  H        2.1708410     1.3362470    -1.4821670
  H        2.8360500     2.1503740    -0.0502520
  H        1.0944390     2.3121220    -0.4419640
  H       -1.7008040    -1.6902470     0.8932800
  H       -3.9262080    -0.3702980     0.8362390
  H       -3.2806590     1.9452040    -0.5535070
units angstrom
no_reorient  #important for SAPT in psi4, default
symmetry c1  #important for SAPT in psi4, default
}

set PROPERTIES_ORIGIN ["COM"]
properties('MP2/aug-cc-pvtz', properties = ['dipole'])
--------------------------------------------------------------------------

    Molecular point group: c1
  Charge       = 0
  Multiplicity = 1
  Basis Set: AUG-CC-PVTZ
    Blend: AUG-CC-PVTZ
  Basis Set: (AUG-CC-PVTZ AUX)
    Blend: AUG-CC-PVTZ-JKFIT

    Orbital Energies [Eh]
    ---------------------

    Doubly Occupied:

       1A    -92.212523     2A    -20.555330     3A    -20.552598
       4A    -15.672295     5A    -15.608800     6A    -15.578693
       7A    -11.329857     8A    -11.293796     9A    -11.278745
      10A    -11.274572    11A    -11.266264    12A     -9.176787
      13A     -6.862000    14A     -6.861639    15A     -6.861232
      16A     -1.462034    17A     -1.405999    18A     -1.342988
      19A     -1.257239    20A     -1.251727    21A     -1.039605
      22A     -0.981074    23A     -0.953567    24A     -0.893437
      25A     -0.840349    26A     -0.821318    27A     -0.750649
      28A     -0.710271    29A     -0.679681    30A     -0.668253
      31A     -0.654155    32A     -0.647578    33A     -0.632788
      34A     -0.612526    35A     -0.601875    36A     -0.576530
      37A     -0.570439    38A     -0.541339    39A     -0.511448
      40A     -0.506222    41A     -0.478142    42A     -0.475818
      43A     -0.471400    44A     -0.458279    45A     -0.417580
      46A     -0.322556

  @DF-RHF Final Energy:  -905.24607004812651

   => Energetics <=

    Nuclear Repulsion Energy =            801.6855903586537124
    One-Electron Energy =               -2834.0193308744505885
    Two-Electron Energy =                1127.0876704676702502
    Total Energy =                       -905.2460700481265121
  Basis Set: (AUG-CC-PVTZ AUX)
    Blend: AUG-CC-PVTZ-RI
    Molecular point group: c1

    Geometry (in Angstrom), charge = 0, multiplicity = 1:

       Center              X                  Y                   Z               Mass
    ------------   -----------------  -----------------  -----------------  -----------------
         S            0.758889441121    -0.676095814592    -0.276992115425    31.972071174400
         O            0.737991441121    -1.828061814592     0.633076884575    15.994914619570
         O            1.134187441121    -0.803661814592    -1.679846115425    15.994914619570
         N            1.731750441121     0.486257185408     0.397910884575    14.003074004430
         N           -1.853882558879    -0.737695814592     0.494745884575    14.003074004430
         N           -1.331926558879     1.120615185408    -0.635613115425    14.003074004430
         C           -0.886096558879    -0.040033814592    -0.162978115425    12.000000000000
         C            1.455788441121     0.777911185408     1.808048884575    12.000000000000
         C            1.955479441121     1.686455185408    -0.423036115425    12.000000000000
         C           -3.001494558879     0.008441185408     0.433361884575    12.000000000000
         C           -2.460511358879     1.146871285408    -0.318114015425    12.000000000000
         H            1.343514441121    -0.157950814592     2.354463884575     1.007825032230
         H            0.557577441121     1.399018185408     1.931660884575     1.007825032230
         H            2.318515441121     1.316217185408     2.206418884575     1.007825032230
         H            2.165941441121     1.382274185408    -1.446864115425     1.007825032230
         H            2.831150441121     2.196401185408    -0.014949115425     1.007825032230
         H            1.089539441121     2.358149185408    -0.406661115425     1.007825032230
         H           -1.705703558879    -1.644219814592     0.928582884575     1.007825032230
         H           -3.931107558879    -0.324270814592     0.871541884575     1.007825032230
         H           -3.285558558879     1.991231185408    -0.518204115425     1.007825032230

  Basis Set: AUG-CC-PVTZ
    Blend: AUG-CC-PVTZ
  Basis Set: (AUG-CC-PVTZ AUX)
    Blend: AUG-CC-PVTZ-JKFIT
	 Reference Energy          =    -905.2460700481265121 [Eh]
	 Singles Energy            =      -0.0000000000000000 [Eh]
	 Same-Spin Energy          =      -0.5999790902642184 [Eh]
	 Opposite-Spin Energy      =      -1.7774557685515484 [Eh]
	 Correlation Energy        =      -2.3774348588157670 [Eh]
	 Total Energy              =    -907.6235049069422303 [Eh]

	 ================> DF-SCS-MP2 Energies <==================
	-----------------------------------------------------------
	 SCS Same-Spin Scale       =       0.3333333333333333 [-]
	 SCS Opposite-Spin Scale   =       1.2000000000000000 [-]
	 SCS Same-Spin Energy      =      -0.1999930300880728 [Eh]
	 SCS Opposite-Spin Energy  =      -2.1329469222618580 [Eh]
	 SCS Correlation Energy    =      -2.3329399523499310 [Eh]
	 SCS Total Energy          =    -907.5790100004763872 [Eh]
	-----------------------------------------------------------

  Dipole Moment: [D]
     X:    -2.5615      Y:     1.9004      Z:     3.5053     Total:     4.7392

*** Psi4 exiting successfully. Buy a developer a beer!
