                               Psi4 1.3.2 release

  ==> Input File <==

--------------------------------------------------------------------------
#psi4
#
memory 32 gb

molecule  {
0 1
  S        0.7637890    -0.7221230    -0.3122950
  O        0.7183066    -1.8691722     0.6030725
  O        1.1390870    -0.8496890    -1.7151490
  N        1.7366500     0.4402300     0.3626080
  N       -1.8489830    -0.7837230     0.4594430
  N       -1.3270270     1.0745880    -0.6709160
  C       -0.8811970    -0.0860610    -0.1982810
  C        1.4606880     0.7318840     1.7727460
  C        1.9603790     1.6404280    -0.4583390
  C       -2.9965950    -0.0375860     0.3980590
  C       -2.6480900     1.1053220    -0.2992680
  H        1.3484140    -0.2039780     2.3191610
  H        0.5624770     1.3529910     1.8963580
  H        2.3234150     1.2701900     2.1711160
  H        2.1708410     1.3362470    -1.4821670
  H        2.8360500     2.1503740    -0.0502520
  H        1.0944390     2.3121220    -0.4419640
  H       -1.7008040    -1.6902470     0.8932800
  H       -3.9262080    -0.3702980     0.8362390
  H       -3.2806590     1.9452040    -0.5535070
units angstrom
no_reorient  #important for SAPT in psi4, default
symmetry c1  #important for SAPT in psi4, default
}

set PROPERTIES_ORIGIN ["COM"]
properties('MP2/aug-cc-pvtz', properties = ['dipole'])
--------------------------------------------------------------------------

    Molecular point group: c1
  Charge       = 0
  Multiplicity = 1
  Basis Set: AUG-CC-PVTZ
    Blend: AUG-CC-PVTZ
  Basis Set: (AUG-CC-PVTZ AUX)
    Blend: AUG-CC-PVTZ-JKFIT

    Orbital Energies [Eh]
    ---------------------

    Doubly Occupied:

       1A    -92.216214     2A    -20.558890     3A    -20.556870
       4A    -15.654131     5A    -15.611951     6A    -15.585737
       7A    -11.336286     8A    -11.292346     9A    -11.275476
      10A    -11.272733    11A    -11.266507    12A     -9.180691
      13A     -6.865908    14A     -6.865524    15A     -6.865076
      16A     -1.464821    17A     -1.369174    18A     -1.346431
      19A     -1.258502    20A     -1.197798    21A     -1.048977
      22A     -0.982012    23A     -0.960068    24A     -0.876698
      25A     -0.839696    26A     -0.817602    27A     -0.753289
      28A     -0.711143    29A     -0.676568    30A     -0.668691
      31A     -0.642322    32A     -0.631981    33A     -0.624746
      34A     -0.616820    35A     -0.608848    36A     -0.577436
      37A     -0.571368    38A     -0.542295    39A     -0.514403
      40A     -0.508794    41A     -0.485002    42A     -0.480999
      43A     -0.471148    44A     -0.428526    45A     -0.418267
      46A     -0.345333

  @DF-RHF Final Energy:  -905.30568042378309

   => Energetics <=

    Nuclear Repulsion Energy =            797.6796536687351136
    One-Electron Energy =               -2826.2824737404448570
    Two-Electron Energy =                1123.2971396479265422
    Total Energy =                       -905.3056804237830875
  Basis Set: (AUG-CC-PVTZ AUX)
    Blend: AUG-CC-PVTZ-RI
    Molecular point group: c1

    Geometry (in Angstrom), charge = 0, multiplicity = 1:

       Center              X                  Y                   Z               Mass
    ------------   -----------------  -----------------  -----------------  -----------------
         S            0.774331282297    -0.676852084163    -0.281188466889    31.972071174400
         O            0.728848882297    -1.823901284163     0.634179033111    15.994914619570
         O            1.149629282297    -0.804418084163    -1.684042466889    15.994914619570
         N            1.747192282297     0.485500915837     0.393714533111    14.003074004430
         N           -1.838440717703    -0.738452084163     0.490549533111    14.003074004430
         N           -1.316484717703     1.119858915837    -0.639809466889    14.003074004430
         C           -0.870654717703    -0.040790084163    -0.167174466889    12.000000000000
         C            1.471230282297     0.777154915837     1.803852533111    12.000000000000
         C            1.970921282297     1.685698915837    -0.427232466889    12.000000000000
         C           -2.986052717703     0.007684915837     0.429165533111    12.000000000000
         C           -2.637547717703     1.150592915837    -0.268161466889    12.000000000000
         H            1.358956282297    -0.158707084163     2.350267533111     1.007825032230
         H            0.573019282297     1.398261915837     1.927464533111     1.007825032230
         H            2.333957282297     1.315460915837     2.202222533111     1.007825032230
         H            2.181383282297     1.381517915837    -1.451060466889     1.007825032230
         H            2.846592282297     2.195644915837    -0.019145466889     1.007825032230
         H            1.104981282297     2.357392915837    -0.410857466889     1.007825032230
         H           -1.690261717703    -1.644976084163     0.924386533111     1.007825032230
         H           -3.915665717703    -0.325027084163     0.867345533111     1.007825032230
         H           -3.270116717703     1.990474915837    -0.522400466889     1.007825032230

  Basis Set: AUG-CC-PVTZ
    Blend: AUG-CC-PVTZ
  Basis Set: (AUG-CC-PVTZ AUX)
    Blend: AUG-CC-PVTZ-JKFIT
	 Reference Energy          =    -905.3056804237830875 [Eh]
	 Singles Energy            =      -0.0000000000000000 [Eh]
	 Same-Spin Energy          =      -0.5975267564911763 [Eh]
	 Opposite-Spin Energy      =      -1.7755345561688292 [Eh]
	 Correlation Energy        =      -2.3730613126600053 [Eh]
	 Total Energy              =    -907.6787417364430439 [Eh]

	 ================> DF-SCS-MP2 Energies <==================
	-----------------------------------------------------------
	 SCS Same-Spin Scale       =       0.3333333333333333 [-]
	 SCS Opposite-Spin Scale   =       1.2000000000000000 [-]
	 SCS Same-Spin Energy      =      -0.1991755854970587 [Eh]
	 SCS Opposite-Spin Energy  =      -2.1306414674025951 [Eh]
	 SCS Correlation Energy    =      -2.3298170528996538 [Eh]
	 SCS Total Energy          =    -907.6354974766827581 [Eh]
	-----------------------------------------------------------

  Dipole Moment: [D]
     X:    -2.5975      Y:     1.8756      Z:     3.5562     Total:     4.7866

*** Psi4 exiting successfully. Buy a developer a beer!
