                               Psi4 1.3.2 release

  ==> Input File <==

--------------------------------------------------------------------------
#psi4
#
memory 32 gb

molecule  {
0 1
  S        0.7637890    -0.7221230    -0.3122950
  O        0.7428910    -1.8740890     0.5977740
  O        1.1390870    -0.8496890    -1.7151490
  N        1.7366500     0.4402300     0.3626080
  N       -1.8489830    -0.7837230     0.4594430
  N       -1.3270270     1.0745880    -0.6709160
  C       -0.8811970    -0.0860610    -0.1982810
  C        1.4606880     0.7318840     1.7727460
  C        1.9603790     1.6404280    -0.4583390
  C       -2.9965950    -0.0375860     0.3980590
  C       -2.6480900     1.1053220    -0.2992680
  H        1.3484140    -0.2039780     2.3191610
  H        0.5624770     1.3529910     1.8963580
  H        2.3234150     1.2701900     2.1711160
  H        2.1708410     1.3362470    -1.4821670
  H        2.8360500     2.1503740    -0.0502520
  H        1.0944390     2.3121220    -0.4419640
  H       -1.7299773    -1.5117716     0.8078667
  H       -3.9262080    -0.3702980     0.8362390
  H       -3.2806590     1.9452040    -0.5535070
units angstrom
no_reorient  #important for SAPT in psi4, default
symmetry c1  #important for SAPT in psi4, default
}

set PROPERTIES_ORIGIN ["COM"]
properties('MP2/aug-cc-pvtz', properties = ['dipole'])
--------------------------------------------------------------------------

    Molecular point group: c1
  Charge       = 0
  Multiplicity = 1
  Basis Set: AUG-CC-PVTZ
    Blend: AUG-CC-PVTZ
  Basis Set: (AUG-CC-PVTZ AUX)
    Blend: AUG-CC-PVTZ-JKFIT

    Orbital Energies [Eh]
    ---------------------

    Doubly Occupied:

       1A    -92.216687     2A    -20.558690     3A    -20.556701
       4A    -15.637444     5A    -15.612097     6A    -15.589026
       7A    -11.340093     8A    -11.295603     9A    -11.275854
      10A    -11.275753    11A    -11.266792    12A     -9.181177
      13A     -6.866407    14A     -6.865988    15A     -6.865563
      16A     -1.465181    17A     -1.384509    18A     -1.345805
      19A     -1.258967    20A     -1.223209    21A     -1.054373
      22A     -0.982379    23A     -0.965620    24A     -0.909224
      25A     -0.858397    26A     -0.829105    27A     -0.754782
      28A     -0.711757    29A     -0.681490    30A     -0.668809
      31A     -0.648160    32A     -0.641063    33A     -0.628192
      34A     -0.619425    35A     -0.610281    36A     -0.577879
      37A     -0.571835    38A     -0.542541    39A     -0.514436
      40A     -0.508517    41A     -0.486867    42A     -0.480344
      43A     -0.473393    44A     -0.433996    45A     -0.419013
      46A     -0.348396

  @DF-RHF Final Energy:  -905.26249095634012

   => Energetics <=

    Nuclear Repulsion Energy =            798.8899231388409135
    One-Electron Energy =               -2828.3011908838416275
    Two-Electron Energy =                1124.1487767886605980
    Total Energy =                       -905.2624909563401161
  Basis Set: (AUG-CC-PVTZ AUX)
    Blend: AUG-CC-PVTZ-RI
    Molecular point group: c1

    Geometry (in Angstrom), charge = 0, multiplicity = 1:

       Center              X                  Y                   Z               Mass
    ------------   -----------------  -----------------  -----------------  -----------------
         S            0.772252782639    -0.677430393604    -0.280212523068    31.972071174400
         O            0.751354782639    -1.829396393604     0.629856476932    15.994914619570
         O            1.147550782639    -0.804996393604    -1.683066523068    15.994914619570
         N            1.745113782639     0.484922606396     0.394690476932    14.003074004430
         N           -1.840519217361    -0.739030393604     0.491525476932    14.003074004430
         N           -1.318563217361     1.119280606396    -0.638833523068    14.003074004430
         C           -0.872733217361    -0.041368393604    -0.166198523068    12.000000000000
         C            1.469151782639     0.776576606396     1.804828476932    12.000000000000
         C            1.968842782639     1.685120606396    -0.426256523068    12.000000000000
         C           -2.988131217361     0.007106606396     0.430141476932    12.000000000000
         C           -2.639626217361     1.150014606396    -0.267185523068    12.000000000000
         H            1.356877782639    -0.159285393604     2.351243476932     1.007825032230
         H            0.570940782639     1.397683606396     1.928440476932     1.007825032230
         H            2.331878782639     1.314882606396     2.203198476932     1.007825032230
         H            2.179304782639     1.380939606396    -1.450084523068     1.007825032230
         H            2.844513782639     2.195066606396    -0.018169523068     1.007825032230
         H            1.102902782639     2.356814606396    -0.409881523068     1.007825032230
         H           -1.721513517361    -1.467078993604     0.839949176932     1.007825032230
         H           -3.917744217361    -0.325605393604     0.868321476932     1.007825032230
         H           -3.272195217361     1.989896606396    -0.521424523068     1.007825032230

  Basis Set: AUG-CC-PVTZ
    Blend: AUG-CC-PVTZ
  Basis Set: (AUG-CC-PVTZ AUX)
    Blend: AUG-CC-PVTZ-JKFIT
	 Reference Energy          =    -905.2624909563401161 [Eh]
	 Singles Energy            =      -0.0000000000000000 [Eh]
	 Same-Spin Energy          =      -0.5958675843244963 [Eh]
	 Opposite-Spin Energy      =      -1.7728725009587816 [Eh]
	 Correlation Energy        =      -2.3687400852832781 [Eh]
	 Total Energy              =    -907.6312310416234368 [Eh]

	 ================> DF-SCS-MP2 Energies <==================
	-----------------------------------------------------------
	 SCS Same-Spin Scale       =       0.3333333333333333 [-]
	 SCS Opposite-Spin Scale   =       1.2000000000000000 [-]
	 SCS Same-Spin Energy      =      -0.1986225281081654 [Eh]
	 SCS Opposite-Spin Energy  =      -2.1274470011505380 [Eh]
	 SCS Correlation Energy    =      -2.3260695292587035 [Eh]
	 SCS Total Energy          =    -907.5885604855988049 [Eh]
	-----------------------------------------------------------

  Dipole Moment: [D]
     X:    -2.6973      Y:     2.1475      Z:     3.4495     Total:     4.8771

*** Psi4 exiting successfully. Buy a developer a beer!
