                               Psi4 1.3.2 release

  ==> Input File <==

--------------------------------------------------------------------------
#psi4
#
memory 32 gb

molecule  {
0 1
  S        0.7637890    -0.7221230    -0.3122950
  O        0.7428910    -1.8740890     0.5977740
  O        1.1390870    -0.8496890    -1.7151490
  N        1.7366500     0.4402300     0.3626080
  N       -1.8489830    -0.7837230     0.4594430
  N       -1.3204989     0.9890308    -0.6282857
  C       -0.8811970    -0.0860610    -0.1982810
  C        1.4606880     0.7318840     1.7727460
  C        1.9603790     1.6404280    -0.4583390
  C       -2.9965950    -0.0375860     0.3980590
  C       -2.6480900     1.1053220    -0.2992680
  H        1.3484140    -0.2039780     2.3191610
  H        0.5624770     1.3529910     1.8963580
  H        2.3234150     1.2701900     2.1711160
  H        2.1708410     1.3362470    -1.4821670
  H        2.8360500     2.1503740    -0.0502520
  H        1.0944390     2.3121220    -0.4419640
  H       -1.7008040    -1.6902470     0.8932800
  H       -3.9262080    -0.3702980     0.8362390
  H       -3.2806590     1.9452040    -0.5535070
units angstrom
no_reorient  #important for SAPT in psi4, default
symmetry c1  #important for SAPT in psi4, default
}

set PROPERTIES_ORIGIN ["COM"]
properties('MP2/aug-cc-pvtz', properties = ['dipole'])
--------------------------------------------------------------------------

    Molecular point group: c1
  Charge       = 0
  Multiplicity = 1
  Basis Set: AUG-CC-PVTZ
    Blend: AUG-CC-PVTZ
  Basis Set: (AUG-CC-PVTZ AUX)
    Blend: AUG-CC-PVTZ-JKFIT

    Orbital Energies [Eh]
    ---------------------

    Doubly Occupied:

       1A    -92.214258     2A    -20.557566     3A    -20.555577
       4A    -15.642809     5A    -15.611123     6A    -15.572028
       7A    -11.325483     8A    -11.294158     9A    -11.275391
      10A    -11.271647    11A    -11.266485    12A     -9.179065
      13A     -6.864257    14A     -6.863840    15A     -6.863434
      16A     -1.464181    17A     -1.384036    18A     -1.345060
      19A     -1.257970    20A     -1.205195    21A     -1.055234
      22A     -0.981859    23A     -0.960685    24A     -0.873297
      25A     -0.847832    26A     -0.814450    27A     -0.754527
      28A     -0.711035    29A     -0.681230    30A     -0.667939
      31A     -0.645890    32A     -0.632899    33A     -0.627996
      34A     -0.621262    35A     -0.611980    36A     -0.577517
      37A     -0.571273    38A     -0.542046    39A     -0.515485
      40A     -0.507441    41A     -0.489740    42A     -0.479391
      43A     -0.458846    44A     -0.433628    45A     -0.415113
      46A     -0.350853

  @DF-RHF Final Energy:  -905.30431595166988

   => Energetics <=

    Nuclear Repulsion Energy =            800.4032054687054369
    One-Electron Energy =               -2831.7290220615118415
    Two-Electron Energy =                1126.0215006411365266
    Total Energy =                       -905.3043159516698779
  Basis Set: (AUG-CC-PVTZ AUX)
    Blend: AUG-CC-PVTZ-RI
    Molecular point group: c1

    Geometry (in Angstrom), charge = 0, multiplicity = 1:

       Center              X                  Y                   Z               Mass
    ------------   -----------------  -----------------  -----------------  -----------------
         S            0.771562574795    -0.669558343814    -0.284114664683    31.972071174400
         O            0.750664574795    -1.821524343814     0.625954335317    15.994914619570
         O            1.146860574795    -0.797124343814    -1.686968664683    15.994914619570
         N            1.744423574795     0.492794656186     0.390788335317    14.003074004430
         N           -1.841209425205    -0.731158343814     0.487623335317    14.003074004430
         N           -1.312725325205     1.041595456186    -0.600105364683    14.003074004430
         C           -0.873423425205    -0.033496343814    -0.170100664683    12.000000000000
         C            1.468461574795     0.784448656186     1.800926335317    12.000000000000
         C            1.968152574795     1.692992656186    -0.430158664683    12.000000000000
         C           -2.988821425205     0.014978656186     0.426239335317    12.000000000000
         C           -2.640316425205     1.157886656186    -0.271087664683    12.000000000000
         H            1.356187574795    -0.151413343814     2.347341335317     1.007825032230
         H            0.570250574795     1.405555656186     1.924538335317     1.007825032230
         H            2.331188574795     1.322754656186     2.199296335317     1.007825032230
         H            2.178614574795     1.388811656186    -1.453986664683     1.007825032230
         H            2.843823574795     2.202938656186    -0.022071664683     1.007825032230
         H            1.102212574795     2.364686656186    -0.413783664683     1.007825032230
         H           -1.693030425205    -1.637682343814     0.921460335317     1.007825032230
         H           -3.918434425205    -0.317733343814     0.864419335317     1.007825032230
         H           -3.272885425205     1.997768656186    -0.525326664683     1.007825032230

  Basis Set: AUG-CC-PVTZ
    Blend: AUG-CC-PVTZ
  Basis Set: (AUG-CC-PVTZ AUX)
    Blend: AUG-CC-PVTZ-JKFIT
	 Reference Energy          =    -905.3043159516698779 [Eh]
	 Singles Energy            =      -0.0000000000000000 [Eh]
	 Same-Spin Energy          =      -0.5953527229822726 [Eh]
	 Opposite-Spin Energy      =      -1.7710814066469873 [Eh]
	 Correlation Energy        =      -2.3664341296292601 [Eh]
	 Total Energy              =    -907.6707500812991611 [Eh]

	 ================> DF-SCS-MP2 Energies <==================
	-----------------------------------------------------------
	 SCS Same-Spin Scale       =       0.3333333333333333 [-]
	 SCS Opposite-Spin Scale   =       1.2000000000000000 [-]
	 SCS Same-Spin Energy      =      -0.1984509076607575 [Eh]
	 SCS Opposite-Spin Energy  =      -2.1252976879763845 [Eh]
	 SCS Correlation Energy    =      -2.3237485956371420 [Eh]
	 SCS Total Energy          =    -907.6280645473070763 [Eh]
	-----------------------------------------------------------

  Dipole Moment: [D]
     X:    -2.6192      Y:     2.0963      Z:     3.4518     Total:     4.8135

*** Psi4 exiting successfully. Buy a developer a beer!
