                               Psi4 1.3.2 release

  ==> Input File <==

--------------------------------------------------------------------------
#psi4
#
memory 32 gb

molecule  {
0 1
  S        0.7637890    -0.7221230    -0.3122950
  O        0.7428910    -1.8740890     0.5977740
  O        1.1390870    -0.8496890    -1.7151490
  N        1.7366500     0.4402300     0.3626080
  N       -1.8489830    -0.7837230     0.4594430
  N       -1.3399911     1.1602949    -0.7117357
  C       -0.8811970    -0.0860610    -0.1982810
  C        1.4606880     0.7318840     1.7727460
  C        1.9603790     1.6404280    -0.4583390
  C       -2.9965950    -0.0375860     0.3980590
  C       -2.6480900     1.1053220    -0.2992680
  H        1.3484140    -0.2039780     2.3191610
  H        0.5624770     1.3529910     1.8963580
  H        2.3234150     1.2701900     2.1711160
  H        2.1708410     1.3362470    -1.4821670
  H        2.8360500     2.1503740    -0.0502520
  H        1.0944390     2.3121220    -0.4419640
  H       -1.7008040    -1.6902470     0.8932800
  H       -3.9262080    -0.3702980     0.8362390
  H       -3.2806590     1.9452040    -0.5535070
units angstrom
no_reorient  #important for SAPT in psi4, default
symmetry c1  #important for SAPT in psi4, default
}

set PROPERTIES_ORIGIN ["COM"]
properties('MP2/aug-cc-pvtz', properties = ['dipole'])
--------------------------------------------------------------------------

    Molecular point group: c1
  Charge       = 0
  Multiplicity = 1
  Basis Set: AUG-CC-PVTZ
    Blend: AUG-CC-PVTZ
  Basis Set: (AUG-CC-PVTZ AUX)
    Blend: AUG-CC-PVTZ-JKFIT

    Orbital Energies [Eh]
    ---------------------

    Doubly Occupied:

       1A    -92.216658     2A    -20.559063     3A    -20.556085
       4A    -15.666899     5A    -15.611469     6A    -15.599882
       7A    -11.347453     8A    -11.292084     9A    -11.276187
      10A    -11.275212    11A    -11.265923    12A     -9.181000
      13A     -6.866227    14A     -6.865839    15A     -6.865405
      16A     -1.464440    17A     -1.361964    18A     -1.345323
      19A     -1.258027    20A     -1.191742    21A     -1.045412
      22A     -0.981654    23A     -0.959798    24A     -0.882298
      25A     -0.835417    26A     -0.819353    27A     -0.751273
      28A     -0.710490    29A     -0.673839    30A     -0.668352
      31A     -0.641285    32A     -0.635191    33A     -0.622710
      34A     -0.614260    35A     -0.598564    36A     -0.576619
      37A     -0.570995    38A     -0.541931    39A     -0.513489
      40A     -0.508364    41A     -0.485540    42A     -0.480449
      43A     -0.477404    44A     -0.427501    45A     -0.419485
      46A     -0.340326

  @DF-RHF Final Energy:  -905.28892194208754

   => Energetics <=

    Nuclear Repulsion Energy =            794.6646376430330747
    One-Electron Energy =               -2820.2093620659584303
    Two-Electron Energy =                1120.2558024808377013
    Total Energy =                       -905.2889219420876543
  Basis Set: (AUG-CC-PVTZ AUX)
    Blend: AUG-CC-PVTZ-RI
    Molecular point group: c1

    Geometry (in Angstrom), charge = 0, multiplicity = 1:

       Center              X                  Y                   Z               Mass
    ------------   -----------------  -----------------  -----------------  -----------------
         S            0.773121922976    -0.683259227392    -0.277438783779    31.972071174400
         O            0.752223922976    -1.835225227392     0.632630216221    15.994914619570
         O            1.148419922976    -0.810825227392    -1.680292783779    15.994914619570
         N            1.745982922976     0.479093772608     0.397464216221    14.003074004430
         N           -1.839650077024    -0.744859227392     0.494299216221    14.003074004430
         N           -1.330658177024     1.199158672608    -0.676879483779    14.003074004430
         C           -0.871864077024    -0.047197227392    -0.163424783779    12.000000000000
         C            1.470020922976     0.770747772608     1.807602216221    12.000000000000
         C            1.969711922976     1.679291772608    -0.423482783779    12.000000000000
         C           -2.987262077024     0.001277772608     0.432915216221    12.000000000000
         C           -2.638757077024     1.144185772608    -0.264411783779    12.000000000000
         H            1.357746922976    -0.165114227392     2.354017216221     1.007825032230
         H            0.571809922976     1.391854772608     1.931214216221     1.007825032230
         H            2.332747922976     1.309053772608     2.205972216221     1.007825032230
         H            2.180173922976     1.375110772608    -1.447310783779     1.007825032230
         H            2.845382922976     2.189237772608    -0.015395783779     1.007825032230
         H            1.103771922976     2.350985772608    -0.407107783779     1.007825032230
         H           -1.691471077024    -1.651383227392     0.928136216221     1.007825032230
         H           -3.916875077024    -0.331434227392     0.871095216221     1.007825032230
         H           -3.271326077024     1.984067772608    -0.518650783779     1.007825032230

  Basis Set: AUG-CC-PVTZ
    Blend: AUG-CC-PVTZ
  Basis Set: (AUG-CC-PVTZ AUX)
    Blend: AUG-CC-PVTZ-JKFIT
	 Reference Energy          =    -905.2889219420875406 [Eh]
	 Singles Energy            =      -0.0000000000000000 [Eh]
	 Same-Spin Energy          =      -0.5999698980207493 [Eh]
	 Opposite-Spin Energy      =      -1.7807909196792702 [Eh]
	 Correlation Energy        =      -2.3807608177000192 [Eh]
	 Total Energy              =    -907.6696827597875199 [Eh]

	 ================> DF-SCS-MP2 Energies <==================
	-----------------------------------------------------------
	 SCS Same-Spin Scale       =       0.3333333333333333 [-]
	 SCS Opposite-Spin Scale   =       1.2000000000000000 [-]
	 SCS Same-Spin Energy      =      -0.1999899660069164 [Eh]
	 SCS Opposite-Spin Energy  =      -2.1369491036151240 [Eh]
	 SCS Correlation Energy    =      -2.3369390696220407 [Eh]
	 SCS Total Energy          =    -907.6258610117096168 [Eh]
	-----------------------------------------------------------

  Dipole Moment: [D]
     X:    -2.7437      Y:     1.7418      Z:     3.6564     Total:     4.8919

*** Psi4 exiting successfully. Buy a developer a beer!
