                               Psi4 1.3.2 release

  ==> Input File <==

--------------------------------------------------------------------------
#psi4
#
memory 32 gb

molecule  {
0 1
  S        0.7637890    -0.7221230    -0.3122950
  O        0.7428910    -1.8740890     0.5977740
  O        1.1390870    -0.8496890    -1.7151490
  N        1.7366500     0.4402300     0.3626080
  N       -1.8489830    -0.7837230     0.4594430
  N       -1.3270270     1.0745880    -0.6709160
  C       -1.0673490    -0.0140821    -0.1853788
  C        1.4606880     0.7318840     1.7727460
  C        1.9603790     1.6404280    -0.4583390
  C       -2.9965950    -0.0375860     0.3980590
  C       -2.6480900     1.1053220    -0.2992680
  H        1.3484140    -0.2039780     2.3191610
  H        0.5624770     1.3529910     1.8963580
  H        2.3234150     1.2701900     2.1711160
  H        2.1708410     1.3362470    -1.4821670
  H        2.8360500     2.1503740    -0.0502520
  H        1.0944390     2.3121220    -0.4419640
  H       -1.7008040    -1.6902470     0.8932800
  H       -3.9262080    -0.3702980     0.8362390
  H       -3.2806590     1.9452040    -0.5535070
units angstrom
no_reorient  #important for SAPT in psi4, default
symmetry c1  #important for SAPT in psi4, default
}

set PROPERTIES_ORIGIN ["COM"]
properties('MP2/aug-cc-pvtz', properties = ['dipole'])
--------------------------------------------------------------------------

    Molecular point group: c1
  Charge       = 0
  Multiplicity = 1
  Basis Set: AUG-CC-PVTZ
    Blend: AUG-CC-PVTZ
  Basis Set: (AUG-CC-PVTZ AUX)
    Blend: AUG-CC-PVTZ-JKFIT

    Orbital Energies [Eh]
    ---------------------

    Doubly Occupied:

       1A    -92.201098     2A    -20.553213     3A    -20.550119
       4A    -15.651355     5A    -15.607281     6A    -15.576719
       7A    -11.342021     8A    -11.289065     9A    -11.277522
      10A    -11.273988    11A    -11.264323    12A     -9.165956
      13A     -6.850873    14A     -6.850335    15A     -6.850113
      16A     -1.454933    17A     -1.419788    18A     -1.338663
      19A     -1.254897    20A     -1.247699    21A     -1.038245
      22A     -0.979637    23A     -0.949115    24A     -0.872071
      25A     -0.851824    26A     -0.830637    27A     -0.750061
      28A     -0.704974    29A     -0.674131    30A     -0.664426
      31A     -0.659189    32A     -0.650191    33A     -0.624022
      34A     -0.613738    35A     -0.608321    36A     -0.574344
      37A     -0.569845    38A     -0.539848    39A     -0.511899
      40A     -0.502530    41A     -0.501009    42A     -0.474678
      43A     -0.452612    44A     -0.446916    45A     -0.400863
      46A     -0.353342

  @DF-RHF Final Energy:  -905.26733780266159

   => Energetics <=

    Nuclear Repulsion Energy =            796.7769621065979209
    One-Electron Energy =               -2824.4517356046844725
    Two-Electron Energy =                1122.4074356954249652
    Total Energy =                       -905.2673378026615865
  Basis Set: (AUG-CC-PVTZ AUX)
    Blend: AUG-CC-PVTZ-RI
    Molecular point group: c1

    Geometry (in Angstrom), charge = 0, multiplicity = 1:

       Center              X                  Y                   Z               Mass
    ------------   -----------------  -----------------  -----------------  -----------------
         S            0.784846492229    -0.681337322177    -0.281588813812    31.972071174400
         O            0.763948492229    -1.833303322177     0.628480186188    15.994914619570
         O            1.160144492229    -0.808903322177    -1.684442813812    15.994914619570
         N            1.757707492229     0.481015677823     0.393314186188    14.003074004430
         N           -1.827925507771    -0.742937322177     0.490149186188    14.003074004430
         N           -1.305969507771     1.115373677823    -0.640209813812    14.003074004430
         C           -1.046291507771     0.026703577823    -0.154672613812    12.000000000000
         C            1.481745492229     0.772669677823     1.803452186188    12.000000000000
         C            1.981436492229     1.681213677823    -0.427632813812    12.000000000000
         C           -2.975537507771     0.003199677823     0.428765186188    12.000000000000
         C           -2.627032507771     1.146107677823    -0.268561813812    12.000000000000
         H            1.369471492229    -0.163192322177     2.349867186188     1.007825032230
         H            0.583534492229     1.393776677823     1.927064186188     1.007825032230
         H            2.344472492229     1.310975677823     2.201822186188     1.007825032230
         H            2.191898492229     1.377032677823    -1.451460813812     1.007825032230
         H            2.857107492229     2.191159677823    -0.019545813812     1.007825032230
         H            1.115496492229     2.352907677823    -0.411257813812     1.007825032230
         H           -1.679746507771    -1.649461322177     0.923986186188     1.007825032230
         H           -3.905150507771    -0.329512322177     0.866945186188     1.007825032230
         H           -3.259601507771     1.985989677823    -0.522800813812     1.007825032230

  Basis Set: AUG-CC-PVTZ
    Blend: AUG-CC-PVTZ
  Basis Set: (AUG-CC-PVTZ AUX)
    Blend: AUG-CC-PVTZ-JKFIT
	 Reference Energy          =    -905.2673378026615865 [Eh]
	 Singles Energy            =      -0.0000000000000000 [Eh]
	 Same-Spin Energy          =      -0.5947837018642157 [Eh]
	 Opposite-Spin Energy      =      -1.7714244771959369 [Eh]
	 Correlation Energy        =      -2.3662081790601528 [Eh]
	 Total Energy              =    -907.6335459817217952 [Eh]

	 ================> DF-SCS-MP2 Energies <==================
	-----------------------------------------------------------
	 SCS Same-Spin Scale       =       0.3333333333333333 [-]
	 SCS Opposite-Spin Scale   =       1.2000000000000000 [-]
	 SCS Same-Spin Energy      =      -0.1982612339547385 [Eh]
	 SCS Opposite-Spin Energy  =      -2.1257093726351242 [Eh]
	 SCS Correlation Energy    =      -2.3239706065898629 [Eh]
	 SCS Total Energy          =    -907.5913084092514964 [Eh]
	-----------------------------------------------------------

  Dipole Moment: [D]
     X:    -2.6966      Y:     1.8996      Z:     3.5361     Total:     4.8357

*** Psi4 exiting successfully. Buy a developer a beer!
