                               Psi4 1.3.2 release

  ==> Input File <==

--------------------------------------------------------------------------
#psi4
#
memory 32 gb

molecule  {
0 1
  S        0.7637890    -0.7221230    -0.3122950
  O        0.7428910    -1.8740890     0.5977740
  O        1.1390870    -0.8496890    -1.7151490
  N        1.7366500     0.4402300     0.3626080
  N       -1.8489830    -0.7837230     0.4594430
  N       -1.3270270     1.0745880    -0.6709160
  C       -0.8811970    -0.0860610    -0.1982810
  C        1.4606880     0.7318840     1.7727460
  C        1.9603790     1.6404280    -0.4583390
  C       -2.9472296     0.0281961     0.3492454
  C       -2.6480900     1.1053220    -0.2992680
  H        1.3484140    -0.2039780     2.3191610
  H        0.5624770     1.3529910     1.8963580
  H        2.3234150     1.2701900     2.1711160
  H        2.1708410     1.3362470    -1.4821670
  H        2.8360500     2.1503740    -0.0502520
  H        1.0944390     2.3121220    -0.4419640
  H       -1.7008040    -1.6902470     0.8932800
  H       -3.9262080    -0.3702980     0.8362390
  H       -3.2806590     1.9452040    -0.5535070
units angstrom
no_reorient  #important for SAPT in psi4, default
symmetry c1  #important for SAPT in psi4, default
}

set PROPERTIES_ORIGIN ["COM"]
properties('MP2/aug-cc-pvtz', properties = ['dipole'])
--------------------------------------------------------------------------

    Molecular point group: c1
  Charge       = 0
  Multiplicity = 1
  Basis Set: AUG-CC-PVTZ
    Blend: AUG-CC-PVTZ
  Basis Set: (AUG-CC-PVTZ AUX)
    Blend: AUG-CC-PVTZ-JKFIT

    Orbital Energies [Eh]
    ---------------------

    Doubly Occupied:

       1A    -92.215829     2A    -20.559167     3A    -20.556128
       4A    -15.649569     5A    -15.611499     6A    -15.583335
       7A    -11.338844     8A    -11.287939     9A    -11.275533
      10A    -11.266073    11A    -11.260552    12A     -9.180467
      13A     -6.865683    14A     -6.865257    15A     -6.864855
      16A     -1.464815    17A     -1.376116    18A     -1.345931
      19A     -1.258196    20A     -1.197034    21A     -1.060187
      22A     -0.981849    23A     -0.962885    24A     -0.880956
      25A     -0.841571    26A     -0.809910    27A     -0.751311
      28A     -0.711578    29A     -0.676757    30A     -0.666696
      31A     -0.648741    32A     -0.636648    33A     -0.627884
      34A     -0.615948    35A     -0.592053    36A     -0.576993
      37A     -0.571272    38A     -0.542073    39A     -0.514353
      40A     -0.508038    41A     -0.484805    42A     -0.480365
      43A     -0.470079    44A     -0.427679    45A     -0.418467
      46A     -0.360221

  @DF-RHF Final Energy:  -905.29472667289212

   => Energetics <=

    Nuclear Repulsion Energy =            799.3150193188840831
    One-Electron Energy =               -2829.5352134062723053
    Two-Electron Energy =                1124.9254674144960973
    Total Energy =                       -905.2947266728922386
  Basis Set: (AUG-CC-PVTZ AUX)
    Blend: AUG-CC-PVTZ-RI
    Molecular point group: c1

    Geometry (in Angstrom), charge = 0, multiplicity = 1:

       Center              X                  Y                   Z               Mass
    ------------   -----------------  -----------------  -----------------  -----------------
         S            0.768700560952    -0.680912499608    -0.277357877730    31.972071174400
         O            0.747802560952    -1.832878499608     0.632711122270    15.994914619570
         O            1.143998560952    -0.808478499608    -1.680211877730    15.994914619570
         N            1.741561560952     0.481440500392     0.397545122270    14.003074004430
         N           -1.844071439048    -0.742512499608     0.494380122270    14.003074004430
         N           -1.322115439048     1.115798500392    -0.635978877730    14.003074004430
         C           -0.876285439048    -0.044850499608    -0.163343877730    12.000000000000
         C            1.465599560952     0.773094500392     1.807683122270    12.000000000000
         C            1.965290560952     1.681638500392    -0.423401877730    12.000000000000
         C           -2.942318039048     0.069406600392     0.384182522270    12.000000000000
         C           -2.643178439048     1.146532500392    -0.264330877730    12.000000000000
         H            1.353325560952    -0.162767499608     2.354098122270     1.007825032230
         H            0.567388560952     1.394201500392     1.931295122270     1.007825032230
         H            2.328326560952     1.311400500392     2.206053122270     1.007825032230
         H            2.175752560952     1.377457500392    -1.447229877730     1.007825032230
         H            2.840961560952     2.191584500392    -0.015314877730     1.007825032230
         H            1.099350560952     2.353332500392    -0.407026877730     1.007825032230
         H           -1.695892439048    -1.649036499608     0.928217122270     1.007825032230
         H           -3.921296439048    -0.329087499608     0.871176122270     1.007825032230
         H           -3.275747439048     1.986414500392    -0.518569877730     1.007825032230

  Basis Set: AUG-CC-PVTZ
    Blend: AUG-CC-PVTZ
  Basis Set: (AUG-CC-PVTZ AUX)
    Blend: AUG-CC-PVTZ-JKFIT
	 Reference Energy          =    -905.2947266728921250 [Eh]
	 Singles Energy            =      -0.0000000000000000 [Eh]
	 Same-Spin Energy          =      -0.5965365659685505 [Eh]
	 Opposite-Spin Energy      =      -1.7740151762084908 [Eh]
	 Correlation Energy        =      -2.3705517421770415 [Eh]
	 Total Energy              =    -907.6652784150691105 [Eh]

	 ================> DF-SCS-MP2 Energies <==================
	-----------------------------------------------------------
	 SCS Same-Spin Scale       =       0.3333333333333333 [-]
	 SCS Opposite-Spin Scale   =       1.2000000000000000 [-]
	 SCS Same-Spin Energy      =      -0.1988455219895168 [Eh]
	 SCS Opposite-Spin Energy  =      -2.1288182114501888 [Eh]
	 SCS Correlation Energy    =      -2.3276637334397057 [Eh]
	 SCS Total Energy          =    -907.6223904063318741 [Eh]
	-----------------------------------------------------------

  Dipole Moment: [D]
     X:    -2.6547      Y:     1.9367      Z:     3.5349     Total:     4.8264

*** Psi4 exiting successfully. Buy a developer a beer!
