                               Psi4 1.4a3.dev225

  ==> Input File <==

--------------------------------------------------------------------------
#psi4
#
memory 32 gb

molecule  {
0 1
  S        0.7637890    -0.7221230    -0.3122950
  O        0.7428910    -1.8740890     0.5977740
  O        1.1390870    -0.8496890    -1.7151490
  N        1.7366500     0.4402300     0.3626080
  N       -1.8489830    -0.7837230     0.4594430
  N       -1.3270270     1.0745880    -0.6709160
  C       -0.8979558    -0.0424319    -0.2160475
  C        1.4606880     0.7318840     1.7727460
  C        1.9603790     1.6404280    -0.4583390
  C       -2.9965950    -0.0375860     0.3980590
  C       -2.6480900     1.1053220    -0.2992680
  H        1.3484140    -0.2039780     2.3191610
  H        0.5624770     1.3529910     1.8963580
  H        2.3234150     1.2701900     2.1711160
  H        2.1708410     1.3362470    -1.4821670
  H        2.8360500     2.1503740    -0.0502520
  H        1.0944390     2.3121220    -0.4419640
  H       -1.7008040    -1.6902470     0.8932800
  H       -3.9262080    -0.3702980     0.8362390
  H       -3.2806590     1.9452040    -0.5535070
units angstrom
no_reorient  #important for SAPT in psi4, default
symmetry c1  #important for SAPT in psi4, default
}

set PROPERTIES_ORIGIN ["COM"]
properties('MP2/aug-cc-pvtz', properties = ['dipole'])
--------------------------------------------------------------------------

    Molecular point group: c1
  Charge       = 0
  Multiplicity = 1
  Basis Set: AUG-CC-PVTZ
    Blend: AUG-CC-PVTZ
  Basis Set: (AUG-CC-PVTZ AUX)
    Blend: AUG-CC-PVTZ-JKFIT

    Orbital Energies [Eh]
    ---------------------

    Doubly Occupied:

       1A    -92.215237     2A    -20.560301     3A    -20.555359
       4A    -15.649262     5A    -15.610523     6A    -15.584496
       7A    -11.337623     8A    -11.293615     9A    -11.275349
      10A    -11.271864    11A    -11.266454    12A     -9.179642
      13A     -6.864841    14A     -6.864343    15A     -6.864044
      16A     -1.463458    17A     -1.373302    18A     -1.345625
      19A     -1.257725    20A     -1.208157    21A     -1.046045
      22A     -0.981799    23A     -0.958843    24A     -0.873158
      25A     -0.842604    26A     -0.815923    27A     -0.752887
      28A     -0.710186    29A     -0.676727    30A     -0.667834
      31A     -0.643360    32A     -0.633229    33A     -0.624422
      34A     -0.616615    35A     -0.609820    36A     -0.577447
      37A     -0.571411    38A     -0.542070    39A     -0.514491
      40A     -0.507914    41A     -0.491694    42A     -0.480124
      43A     -0.468674    44A     -0.435617    45A     -0.415555
      46A     -0.346655

  @DF-RHF Final Energy:  -905.30595764595716

   => Energetics <=

    Nuclear Repulsion Energy =            797.3270862528448788
    One-Electron Energy =               -2825.5734340759172483
    Two-Electron Energy =                1122.9403901771154324
    Total Energy =                       -905.3059576459570508
  Basis Set: (AUG-CC-PVTZ AUX)
    Blend: AUG-CC-PVTZ-RI
    Molecular point group: c1

    Geometry (in Angstrom), charge = 0, multiplicity = 1:

       Center              X                  Y                   Z               Mass
    ------------   -----------------  -----------------  -----------------  -----------------
         S            0.773233715568    -0.679393797314    -0.279486316406    31.972071174400
         O            0.752335715568    -1.831359797314     0.630582683594    15.994914619570
         O            1.148531715568    -0.806959797314    -1.682340316406    15.994914619570
         N            1.746094715568     0.482959202686     0.395416683594    14.003074004430
         N           -1.839538284432    -0.740993797314     0.492251683594    14.003074004430
         N           -1.317582284432     1.117317202686    -0.638107316406    14.003074004430
         C           -0.888511084432     0.000297302686    -0.183238816406    12.000000000000
         C            1.470132715568     0.774613202686     1.805554683594    12.000000000000
         C            1.969823715568     1.683157202686    -0.425530316406    12.000000000000
         C           -2.987150284432     0.005143202686     0.430867683594    12.000000000000
         C           -2.638645284432     1.148051202686    -0.266459316406    12.000000000000
         H            1.357858715568    -0.161248797314     2.351969683594     1.007825032230
         H            0.571921715568     1.395720202686     1.929166683594     1.007825032230
         H            2.332859715568     1.312919202686     2.203924683594     1.007825032230
         H            2.180285715568     1.378976202686    -1.449358316406     1.007825032230
         H            2.845494715568     2.193103202686    -0.017443316406     1.007825032230
         H            1.103883715568     2.354851202686    -0.409155316406     1.007825032230
         H           -1.691359284432    -1.647517797314     0.926088683594     1.007825032230
         H           -3.916763284432    -0.327568797314     0.869047683594     1.007825032230
         H           -3.271214284432     1.987933202686    -0.520698316406     1.007825032230

  Basis Set: AUG-CC-PVTZ
    Blend: AUG-CC-PVTZ
  Basis Set: (AUG-CC-PVTZ AUX)
    Blend: AUG-CC-PVTZ-JKFIT
	 Reference Energy          =    -905.3059576459571645 [Eh]
	 Singles Energy            =      -0.0000000000000000 [Eh]
	 Same-Spin Energy          =      -0.5962805100637092 [Eh]
	 Opposite-Spin Energy      =      -1.7737523245945737 [Eh]
	 Correlation Energy        =      -2.3700328346582831 [Eh]
	 Total Energy              =    -907.6759904806154964 [Eh]

	 ================> DF-SCS-MP2 Energies <==================
	-----------------------------------------------------------
	 SCS Same-Spin Scale       =       0.3333333333333333 [-]
	 SCS Opposite-Spin Scale   =       1.2000000000000000 [-]
	 SCS Same-Spin Energy      =      -0.1987601700212364 [Eh]
	 SCS Opposite-Spin Energy  =      -2.1285027895134885 [Eh]
	 SCS Correlation Energy    =      -2.3272629595347247 [Eh]
	 SCS Total Energy          =    -907.6332206054919425 [Eh]
	-----------------------------------------------------------

  Dipole Moment: [D]
     X:    -2.5920      Y:     1.9170      Z:     3.5276     Total:     4.7789

*** Psi4 exiting successfully. Buy a developer a beer!
