                               Psi4 1.3.2 release

  ==> Input File <==

--------------------------------------------------------------------------
#psi4
#
memory 32 gb

molecule  {
0 1
  S        0.7637890    -0.7221230    -0.3122950
  O        0.7428910    -1.8740890     0.5977740
  O        1.1390870    -0.8496890    -1.7151490
  N        1.7366500     0.4402300     0.3626080
  N       -1.8489830    -0.7837230     0.4594430
  N       -1.3270270     1.0745880    -0.6709160
  C       -0.9798602     0.0142090    -0.2216391
  C        1.4606880     0.7318840     1.7727460
  C        1.9603790     1.6404280    -0.4583390
  C       -2.9965950    -0.0375860     0.3980590
  C       -2.6480900     1.1053220    -0.2992680
  H        1.3484140    -0.2039780     2.3191610
  H        0.5624770     1.3529910     1.8963580
  H        2.3234150     1.2701900     2.1711160
  H        2.1708410     1.3362470    -1.4821670
  H        2.8360500     2.1503740    -0.0502520
  H        1.0944390     2.3121220    -0.4419640
  H       -1.7008040    -1.6902470     0.8932800
  H       -3.9262080    -0.3702980     0.8362390
  H       -3.2806590     1.9452040    -0.5535070
units angstrom
no_reorient  #important for SAPT in psi4, default
symmetry c1  #important for SAPT in psi4, default
}

set PROPERTIES_ORIGIN ["COM"]
properties('MP2/aug-cc-pvtz', properties = ['dipole'])
--------------------------------------------------------------------------

    Molecular point group: c1
  Charge       = 0
  Multiplicity = 1
  Basis Set: AUG-CC-PVTZ
    Blend: AUG-CC-PVTZ
  Basis Set: (AUG-CC-PVTZ AUX)
    Blend: AUG-CC-PVTZ-JKFIT

    Orbital Energies [Eh]
    ---------------------

    Doubly Occupied:

       1A    -92.208822     2A    -20.558973     3A    -20.552761
       4A    -15.643914     5A    -15.608426     6A    -15.578358
       7A    -11.337935     8A    -11.292587     9A    -11.274878
      10A    -11.272427    11A    -11.266016    12A     -9.173312
      13A     -6.858376    14A     -6.857731    15A     -6.857661
      16A     -1.458813    17A     -1.397300    18A     -1.342874
      19A     -1.255756    20A     -1.232713    21A     -1.038775
      22A     -0.981035    23A     -0.953846    24A     -0.863058
      25A     -0.847657    26A     -0.824162    27A     -0.751289
      28A     -0.707462    29A     -0.675135    30A     -0.665386
      31A     -0.649462    32A     -0.640372    33A     -0.625143
      34A     -0.615980    35A     -0.610042    36A     -0.576383
      37A     -0.571168    38A     -0.541316    39A     -0.514600
      40A     -0.505535    41A     -0.501877    42A     -0.478115
      43A     -0.458467    44A     -0.448737    45A     -0.407262
      46A     -0.349177

  @DF-RHF Final Energy:  -905.28701602188778

   => Energetics <=

    Nuclear Repulsion Energy =            797.0001715772093576
    One-Electron Energy =               -2824.9122237119831880
    Two-Electron Energy =                1122.6250361128859367
    Total Energy =                       -905.2870160218878937
  Basis Set: (AUG-CC-PVTZ AUX)
    Blend: AUG-CC-PVTZ-RI
    Molecular point group: c1

    Geometry (in Angstrom), charge = 0, multiplicity = 1:

       Center              X                  Y                   Z               Mass
    ------------   -----------------  -----------------  -----------------  -----------------
         S            0.778848684201    -0.683276822852    -0.279102983415    31.972071174400
         O            0.757950684201    -1.835242822852     0.630966016585    15.994914619570
         O            1.154146684201    -0.810842822852    -1.681956983415    15.994914619570
         N            1.751709684201     0.479076177148     0.395800016585    14.003074004430
         N           -1.833923315799    -0.744876822852     0.492635016585    14.003074004430
         N           -1.311967315799     1.113434177148    -0.637723983415    14.003074004430
         C           -0.964800515799     0.053055177148    -0.188447083415    12.000000000000
         C            1.475747684201     0.770730177148     1.805938016585    12.000000000000
         C            1.975438684201     1.679274177148    -0.425146983415    12.000000000000
         C           -2.981535315799     0.001260177148     0.431251016585    12.000000000000
         C           -2.633030315799     1.144168177148    -0.266075983415    12.000000000000
         H            1.363473684201    -0.165131822852     2.352353016585     1.007825032230
         H            0.577536684201     1.391837177148     1.929550016585     1.007825032230
         H            2.338474684201     1.309036177148     2.204308016585     1.007825032230
         H            2.185900684201     1.375093177148    -1.448974983415     1.007825032230
         H            2.851109684201     2.189220177148    -0.017059983415     1.007825032230
         H            1.109498684201     2.350968177148    -0.408771983415     1.007825032230
         H           -1.685744315799    -1.651400822852     0.926472016585     1.007825032230
         H           -3.911148315799    -0.331451822852     0.869431016585     1.007825032230
         H           -3.265599315799     1.984050177148    -0.520314983415     1.007825032230

  Basis Set: AUG-CC-PVTZ
    Blend: AUG-CC-PVTZ
  Basis Set: (AUG-CC-PVTZ AUX)
    Blend: AUG-CC-PVTZ-JKFIT
	 Reference Energy          =    -905.2870160218877800 [Eh]
	 Singles Energy            =      -0.0000000000000000 [Eh]
	 Same-Spin Energy          =      -0.5943657834539310 [Eh]
	 Opposite-Spin Energy      =      -1.7710573774181111 [Eh]
	 Correlation Energy        =      -2.3654231608720422 [Eh]
	 Total Energy              =    -907.6524391827598492 [Eh]

	 ================> DF-SCS-MP2 Energies <==================
	-----------------------------------------------------------
	 SCS Same-Spin Scale       =       0.3333333333333333 [-]
	 SCS Opposite-Spin Scale   =       1.2000000000000000 [-]
	 SCS Same-Spin Energy      =      -0.1981219278179770 [Eh]
	 SCS Opposite-Spin Energy  =      -2.1252688529017334 [Eh]
	 SCS Correlation Energy    =      -2.3233907807197105 [Eh]
	 SCS Total Energy          =    -907.6104068026074856 [Eh]
	-----------------------------------------------------------

  Dipole Moment: [D]
     X:    -2.5465      Y:     1.9703      Z:     3.4707     Total:     4.7342

*** Psi4 exiting successfully. Buy a developer a beer!
