                               Psi4 1.3.2 release

  ==> Input File <==

--------------------------------------------------------------------------
#psi4
#
memory 32 gb

molecule  {
0 1
  S        0.7637890    -0.7221230    -0.3122950
  O        0.7428910    -1.8740890     0.5977740
  O        1.1390870    -0.8496890    -1.7151490
  N        1.8539171     0.5803382     0.4439598
  N       -1.8489830    -0.7837230     0.4594430
  N       -1.3270270     1.0745880    -0.6709160
  C       -0.8811970    -0.0860610    -0.1982810
  C        1.4606880     0.7318840     1.7727460
  C        1.9603790     1.6404280    -0.4583390
  C       -2.9965950    -0.0375860     0.3980590
  C       -2.6480900     1.1053220    -0.2992680
  H        1.3484140    -0.2039780     2.3191610
  H        0.5624770     1.3529910     1.8963580
  H        2.3234150     1.2701900     2.1711160
  H        2.1708410     1.3362470    -1.4821670
  H        2.8360500     2.1503740    -0.0502520
  H        1.0944390     2.3121220    -0.4419640
  H       -1.7008040    -1.6902470     0.8932800
  H       -3.9262080    -0.3702980     0.8362390
  H       -3.2806590     1.9452040    -0.5535070
units angstrom
no_reorient  #important for SAPT in psi4, default
symmetry c1  #important for SAPT in psi4, default
}

set PROPERTIES_ORIGIN ["COM"]
properties('MP2/aug-cc-pvtz', properties = ['dipole'])
--------------------------------------------------------------------------

    Molecular point group: c1
  Charge       = 0
  Multiplicity = 1
  Basis Set: AUG-CC-PVTZ
    Blend: AUG-CC-PVTZ
  Basis Set: (AUG-CC-PVTZ AUX)
    Blend: AUG-CC-PVTZ-JKFIT

    Orbital Energies [Eh]
    ---------------------

    Doubly Occupied:

       1A    -92.210761     2A    -20.563904     3A    -20.561491
       4A    -15.658743     5A    -15.615030     6A    -15.590388
       7A    -11.342064     8A    -11.296760     9A    -11.276262
      10A    -11.266876    11A    -11.257187    12A     -9.176706
      13A     -6.861441    14A     -6.860980    15A     -6.860683
      16A     -1.459615    17A     -1.373190    18A     -1.348006
      19A     -1.267314    20A     -1.202084    21A     -1.053106
      22A     -0.999631    23A     -0.938124    24A     -0.859957
      25A     -0.842559    26A     -0.821555    27A     -0.756957
      28A     -0.715879    29A     -0.675720    30A     -0.663168
      31A     -0.651339    32A     -0.638825    33A     -0.632354
      34A     -0.624445    35A     -0.613585    36A     -0.576758
      37A     -0.571056    38A     -0.557424    39A     -0.510719
      40A     -0.508670    41A     -0.483191    42A     -0.479587
      43A     -0.455096    44A     -0.431714    45A     -0.397171
      46A     -0.349417

  @DF-RHF Final Energy:  -905.26968903006309

   => Energetics <=

    Nuclear Repulsion Energy =            792.8450612623621510
    One-Electron Energy =               -2816.5145144137190982
    Two-Electron Energy =                1118.3997641212938561
    Total Energy =                       -905.2696890300630912
  Basis Set: (AUG-CC-PVTZ AUX)
    Blend: AUG-CC-PVTZ-RI
    Molecular point group: c1

    Geometry (in Angstrom), charge = 0, multiplicity = 1:

       Center              X                  Y                   Z               Mass
    ------------   -----------------  -----------------  -----------------  -----------------
         S            0.762703612837    -0.687611253753    -0.287212329421    31.972071174400
         O            0.741805612837    -1.839577253753     0.622856670579    15.994914619570
         O            1.138001612837    -0.815177253753    -1.690066329421    15.994914619570
         N            1.852831712837     0.614849946247     0.469042470579    14.003074004430
         N           -1.850068387163    -0.749211253753     0.484525670579    14.003074004430
         N           -1.328112387163     1.109099746247    -0.645833329421    14.003074004430
         C           -0.882282387163    -0.051549253753    -0.173198329421    12.000000000000
         C            1.459602612837     0.766395746247     1.797828670579    12.000000000000
         C            1.959293612837     1.674939746247    -0.433256329421    12.000000000000
         C           -2.997680387163    -0.003074253753     0.423141670579    12.000000000000
         C           -2.649175387163     1.139833746247    -0.274185329421    12.000000000000
         H            1.347328612837    -0.169466253753     2.344243670579     1.007825032230
         H            0.561391612837     1.387502746247     1.921440670579     1.007825032230
         H            2.322329612837     1.304701746247     2.196198670579     1.007825032230
         H            2.169755612837     1.370758746247    -1.457084329421     1.007825032230
         H            2.834964612837     2.184885746247    -0.025169329421     1.007825032230
         H            1.093353612837     2.346633746247    -0.416881329421     1.007825032230
         H           -1.701889387163    -1.655735253753     0.918362670579     1.007825032230
         H           -3.927293387163    -0.335786253753     0.861321670579     1.007825032230
         H           -3.281744387163     1.979715746247    -0.528424329421     1.007825032230

  Basis Set: AUG-CC-PVTZ
    Blend: AUG-CC-PVTZ
  Basis Set: (AUG-CC-PVTZ AUX)
    Blend: AUG-CC-PVTZ-JKFIT
	 Reference Energy          =    -905.2696890300630912 [Eh]
	 Singles Energy            =      -0.0000000000000000 [Eh]
	 Same-Spin Energy          =      -0.6001555874563984 [Eh]
	 Opposite-Spin Energy      =      -1.7806954442211356 [Eh]
	 Correlation Energy        =      -2.3808510316775342 [Eh]
	 Total Energy              =    -907.6505400617405712 [Eh]

	 ================> DF-SCS-MP2 Energies <==================
	-----------------------------------------------------------
	 SCS Same-Spin Scale       =       0.3333333333333333 [-]
	 SCS Opposite-Spin Scale   =       1.2000000000000000 [-]
	 SCS Same-Spin Energy      =      -0.2000518624854661 [Eh]
	 SCS Opposite-Spin Energy  =      -2.1368345330653624 [Eh]
	 SCS Correlation Energy    =      -2.3368863955508283 [Eh]
	 SCS Total Energy          =    -907.6065754256138689 [Eh]
	-----------------------------------------------------------

  Dipole Moment: [D]
     X:    -3.2654      Y:     1.3530      Z:     3.2523     Total:     4.8032

*** Psi4 exiting successfully. Buy a developer a beer!
