                               Psi4 1.3.2 release

  ==> Input File <==

--------------------------------------------------------------------------
#psi4
#
memory 32 gb

molecule  {
0 1
  S        0.7637890    -0.7221230    -0.3122950
  O        0.7428910    -1.8740890     0.5977740
  O        1.1390870    -0.8496890    -1.7151490
  N        1.7366500     0.4402300     0.3626080
  N       -1.8489830    -0.7837230     0.4594430
  N       -1.3270270     1.0745880    -0.6709160
  C       -0.8811970    -0.0860610    -0.1982810
  C        1.4606880     0.7318840     1.7727460
  C        1.9603790     1.6404280    -0.4583390
  C       -2.9205244     0.0596231     0.3250251
  C       -2.6480900     1.1053220    -0.2992680
  H        1.3484140    -0.2039780     2.3191610
  H        0.5624770     1.3529910     1.8963580
  H        2.3234150     1.2701900     2.1711160
  H        2.1708410     1.3362470    -1.4821670
  H        2.8360500     2.1503740    -0.0502520
  H        1.0944390     2.3121220    -0.4419640
  H       -1.7008040    -1.6902470     0.8932800
  H       -3.9262080    -0.3702980     0.8362390
  H       -3.2806590     1.9452040    -0.5535070
units angstrom
no_reorient  #important for SAPT in psi4, default
symmetry c1  #important for SAPT in psi4, default
}

set PROPERTIES_ORIGIN ["COM"]
properties('MP2/aug-cc-pvtz', properties = ['dipole'])
--------------------------------------------------------------------------

    Molecular point group: c1
  Charge       = 0
  Multiplicity = 1
  Basis Set: AUG-CC-PVTZ
    Blend: AUG-CC-PVTZ
  Basis Set: (AUG-CC-PVTZ AUX)
    Blend: AUG-CC-PVTZ-JKFIT

    Orbital Energies [Eh]
    ---------------------

    Doubly Occupied:

       1A    -92.215935     2A    -20.559586     3A    -20.556336
       4A    -15.647327     5A    -15.611682     6A    -15.582149
       7A    -11.339774     8A    -11.285513     9A    -11.275738
      10A    -11.266149    11A    -11.253934    12A     -9.180629
      13A     -6.865844    14A     -6.865408    15A     -6.865013
      16A     -1.465157    17A     -1.380091    18A     -1.346273
      19A     -1.258377    20A     -1.197148    21A     -1.066324
      22A     -0.982001    23A     -0.964646    24A     -0.883207
      25A     -0.842736    26A     -0.805318    27A     -0.751081
      28A     -0.712289    29A     -0.679968    30A     -0.666610
      31A     -0.652856    32A     -0.639249    33A     -0.629715
      34A     -0.615817    35A     -0.580863    36A     -0.573456
      37A     -0.571393    38A     -0.542214    39A     -0.514576
      40A     -0.508094    41A     -0.484116    42A     -0.480613
      43A     -0.469019    44A     -0.427914    45A     -0.418834
      46A     -0.367443

  @DF-RHF Final Energy:  -905.27692481565794

   => Energetics <=

    Nuclear Repulsion Energy =            800.3248221297350256
    One-Electron Energy =               -2831.5066668483191279
    Two-Electron Energy =                1125.9049199029263946
    Total Energy =                       -905.2769248156578215
  Basis Set: (AUG-CC-PVTZ AUX)
    Blend: AUG-CC-PVTZ-RI
    Molecular point group: c1

    Geometry (in Angstrom), charge = 0, multiplicity = 1:

       Center              X                  Y                   Z               Mass
    ------------   -----------------  -----------------  -----------------  -----------------
         S            0.766869781893    -0.683066982386    -0.275697451370    31.972071174400
         O            0.745971781893    -1.835032982386     0.634371548630    15.994914619570
         O            1.142167781893    -0.810632982386    -1.678551451370    15.994914619570
         N            1.739730781893     0.479286017614     0.399205548630    14.003074004430
         N           -1.845902218107    -0.744666982386     0.496040548630    14.003074004430
         N           -1.323946218107     1.113644017614    -0.634318451370    14.003074004430
         C           -0.878116218107    -0.047004982386    -0.161683451370    12.000000000000
         C            1.463768781893     0.770940017614     1.809343548630    12.000000000000
         C            1.963459781893     1.679484017614    -0.421741451370    12.000000000000
         C           -2.917443618107     0.098679117614     0.361622648630    12.000000000000
         C           -2.645009218107     1.144378017614    -0.262670451370    12.000000000000
         H            1.351494781893    -0.164921982386     2.355758548630     1.007825032230
         H            0.565557781893     1.392047017614     1.932955548630     1.007825032230
         H            2.326495781893     1.309246017614     2.207713548630     1.007825032230
         H            2.173921781893     1.375303017614    -1.445569451370     1.007825032230
         H            2.839130781893     2.189430017614    -0.013654451370     1.007825032230
         H            1.097519781893     2.351178017614    -0.405366451370     1.007825032230
         H           -1.697723218107    -1.651190982386     0.929877548630     1.007825032230
         H           -3.923127218107    -0.331241982386     0.872836548630     1.007825032230
         H           -3.277578218107     1.984260017614    -0.516909451370     1.007825032230

  Basis Set: AUG-CC-PVTZ
    Blend: AUG-CC-PVTZ
  Basis Set: (AUG-CC-PVTZ AUX)
    Blend: AUG-CC-PVTZ-JKFIT
	 Reference Energy          =    -905.2769248156579351 [Eh]
	 Singles Energy            =      -0.0000000000000000 [Eh]
	 Same-Spin Energy          =      -0.5963100008134691 [Eh]
	 Opposite-Spin Energy      =      -1.7738449881513398 [Eh]
	 Correlation Energy        =      -2.3701549889648090 [Eh]
	 Total Energy              =    -907.6470798046227628 [Eh]

	 ================> DF-SCS-MP2 Energies <==================
	-----------------------------------------------------------
	 SCS Same-Spin Scale       =       0.3333333333333333 [-]
	 SCS Opposite-Spin Scale   =       1.2000000000000000 [-]
	 SCS Same-Spin Energy      =      -0.1987700002711563 [Eh]
	 SCS Opposite-Spin Energy  =      -2.1286139857816075 [Eh]
	 SCS Correlation Energy    =      -2.3273839860527641 [Eh]
	 SCS Total Energy          =    -907.6043088017106584 [Eh]
	-----------------------------------------------------------

  Dipole Moment: [D]
     X:    -2.6124      Y:     1.9739      Z:     3.5032     Total:     4.7951

*** Psi4 exiting successfully. Buy a developer a beer!
