                               Psi4 1.3.2 release

  ==> Input File <==

--------------------------------------------------------------------------
#psi4
#
memory 32 gb

molecule  {
0 1
  S        0.7637890    -0.7221230    -0.3122950
  O        0.7428910    -1.8740890     0.5977740
  O        1.1390870    -0.8496890    -1.7151490
  N        1.7366500     0.4402300     0.3626080
  N       -1.8374914    -0.7666691     0.4472359
  N       -1.3270270     1.0745880    -0.6709160
  C       -0.8811970    -0.0860610    -0.1982810
  C        1.4606880     0.7318840     1.7727460
  C        1.9603790     1.6404280    -0.4583390
  C       -2.9965950    -0.0375860     0.3980590
  C       -2.6480900     1.1053220    -0.2992680
  H        1.3484140    -0.2039780     2.3191610
  H        0.5624770     1.3529910     1.8963580
  H        2.3234150     1.2701900     2.1711160
  H        2.1708410     1.3362470    -1.4821670
  H        2.8360500     2.1503740    -0.0502520
  H        1.0944390     2.3121220    -0.4419640
  H       -1.7008040    -1.6902470     0.8932800
  H       -3.9262080    -0.3702980     0.8362390
  H       -3.2806590     1.9452040    -0.5535070
units angstrom
no_reorient  #important for SAPT in psi4, default
symmetry c1  #important for SAPT in psi4, default
}

set PROPERTIES_ORIGIN ["COM"]
properties('MP2/aug-cc-pvtz', properties = ['dipole'])
--------------------------------------------------------------------------

    Molecular point group: c1
  Charge       = 0
  Multiplicity = 1
  Basis Set: AUG-CC-PVTZ
    Blend: AUG-CC-PVTZ
  Basis Set: (AUG-CC-PVTZ AUX)
    Blend: AUG-CC-PVTZ-JKFIT

    Orbital Energies [Eh]
    ---------------------

    Doubly Occupied:

       1A    -92.216037     2A    -20.558821     3A    -20.556123
       4A    -15.656381     5A    -15.611458     6A    -15.583439
       7A    -11.335432     8A    -11.291229     9A    -11.275406
      10A    -11.273247    11A    -11.266015    12A     -9.180579
      13A     -6.865797    14A     -6.865393    15A     -6.864971
      16A     -1.464766    17A     -1.375022    18A     -1.345722
      19A     -1.258136    20A     -1.196252    21A     -1.052089
      22A     -0.981766    23A     -0.960001    24A     -0.875184
      25A     -0.838586    26A     -0.821244    27A     -0.753087
      28A     -0.710969    29A     -0.677352    30A     -0.668455
      31A     -0.643549    32A     -0.630970    33A     -0.627650
      34A     -0.616191    35A     -0.608791    36A     -0.577354
      37A     -0.571113    38A     -0.541993    39A     -0.514274
      40A     -0.508095    41A     -0.484848    42A     -0.480249
      43A     -0.470330    44A     -0.427366    45A     -0.418184
      46A     -0.346962

  @DF-RHF Final Energy:  -905.30538432943069

   => Energetics <=

    Nuclear Repulsion Energy =            798.1239065296970239
    One-Electron Energy =               -2827.1648277745630367
    Two-Electron Energy =                1123.7355369154354321
    Total Energy =                       -905.3053843294305807
  Basis Set: (AUG-CC-PVTZ AUX)
    Blend: AUG-CC-PVTZ-RI
    Molecular point group: c1

    Geometry (in Angstrom), charge = 0, multiplicity = 1:

       Center              X                  Y                   Z               Mass
    ------------   -----------------  -----------------  -----------------  -----------------
         S            0.771165501878    -0.677767085371    -0.279727750944    31.972071174400
         O            0.750267501878    -1.829733085371     0.630341249056    15.994914619570
         O            1.146463501878    -0.805333085371    -1.682581750944    15.994914619570
         N            1.744026501878     0.484585914629     0.395175249056    14.003074004430
         N           -1.830114898122    -0.722313185371     0.479803149056    14.003074004430
         N           -1.319650498122     1.118943914629    -0.638348750944    14.003074004430
         C           -0.873820498122    -0.041705085371    -0.165713750944    12.000000000000
         C            1.468064501878     0.776239914629     1.805313249056    12.000000000000
         C            1.967755501878     1.684783914629    -0.425771750944    12.000000000000
         C           -2.989218498122     0.006769914629     0.430626249056    12.000000000000
         C           -2.640713498122     1.149677914629    -0.266700750944    12.000000000000
         H            1.355790501878    -0.159622085371     2.351728249056     1.007825032230
         H            0.569853501878     1.397346914629     1.928925249056     1.007825032230
         H            2.330791501878     1.314545914629     2.203683249056     1.007825032230
         H            2.178217501878     1.380602914629    -1.449599750944     1.007825032230
         H            2.843426501878     2.194729914629    -0.017684750944     1.007825032230
         H            1.101815501878     2.356477914629    -0.409396750944     1.007825032230
         H           -1.693427498122    -1.645891085371     0.925847249056     1.007825032230
         H           -3.918831498122    -0.325942085371     0.868806249056     1.007825032230
         H           -3.273282498122     1.989559914629    -0.520939750944     1.007825032230

  Basis Set: AUG-CC-PVTZ
    Blend: AUG-CC-PVTZ
  Basis Set: (AUG-CC-PVTZ AUX)
    Blend: AUG-CC-PVTZ-JKFIT
	 Reference Energy          =    -905.3053843294306944 [Eh]
	 Singles Energy            =      -0.0000000000000000 [Eh]
	 Same-Spin Energy          =      -0.5975455223610284 [Eh]
	 Opposite-Spin Energy      =      -1.7752415916870974 [Eh]
	 Correlation Energy        =      -2.3727871140481258 [Eh]
	 Total Energy              =    -907.6781714434788455 [Eh]

	 ================> DF-SCS-MP2 Energies <==================
	-----------------------------------------------------------
	 SCS Same-Spin Scale       =       0.3333333333333333 [-]
	 SCS Opposite-Spin Scale   =       1.2000000000000000 [-]
	 SCS Same-Spin Energy      =      -0.1991818407870095 [Eh]
	 SCS Opposite-Spin Energy  =      -2.1302899100245170 [Eh]
	 SCS Correlation Energy    =      -2.3294717508115266 [Eh]
	 SCS Total Energy          =    -907.6348560802422298 [Eh]
	-----------------------------------------------------------

  Dipole Moment: [D]
     X:    -2.6804      Y:     1.8410      Z:     3.5961     Total:     4.8482

*** Psi4 exiting successfully. Buy a developer a beer!
