                               Psi4 1.3.2 release

  ==> Input File <==

--------------------------------------------------------------------------
#psi4
#
memory 32 gb

molecule  {
0 1
  S        0.7637890    -0.7221230    -0.3122950
  O        0.7428910    -1.8740890     0.5977740
  O        1.1390870    -0.8496890    -1.7151490
  N        1.7366500     0.4402300     0.3626080
  N       -1.8489830    -0.7837230     0.4594430
  N       -1.3270270     1.0745880    -0.6709160
  C       -0.8811970    -0.0860610    -0.1982810
  C        1.4606880     0.7318840     1.7727460
  C        1.9603790     1.6404280    -0.4583390
  C       -3.0191950    -0.0718610     0.4225929
  C       -2.6480900     1.1053220    -0.2992680
  H        1.3484140    -0.2039780     2.3191610
  H        0.5624770     1.3529910     1.8963580
  H        2.3234150     1.2701900     2.1711160
  H        2.1708410     1.3362470    -1.4821670
  H        2.8360500     2.1503740    -0.0502520
  H        1.0944390     2.3121220    -0.4419640
  H       -1.7008040    -1.6902470     0.8932800
  H       -3.9262080    -0.3702980     0.8362390
  H       -3.2806590     1.9452040    -0.5535070
units angstrom
no_reorient  #important for SAPT in psi4, default
symmetry c1  #important for SAPT in psi4, default
}

set PROPERTIES_ORIGIN ["COM"]
properties('MP2/aug-cc-pvtz', properties = ['dipole'])
--------------------------------------------------------------------------

    Molecular point group: c1
  Charge       = 0
  Multiplicity = 1
  Basis Set: AUG-CC-PVTZ
    Blend: AUG-CC-PVTZ
  Basis Set: (AUG-CC-PVTZ AUX)
    Blend: AUG-CC-PVTZ-JKFIT

    Orbital Energies [Eh]
    ---------------------

    Doubly Occupied:

       1A    -92.215910     2A    -20.558262     3A    -20.555849
       4A    -15.658421     5A    -15.611285     6A    -15.588647
       7A    -11.337016     8A    -11.295760     9A    -11.279628
      10A    -11.275220    11A    -11.266205    12A     -9.180365
      13A     -6.865586    14A     -6.865191    15A     -6.864762
      16A     -1.464198    17A     -1.367759    18A     -1.345230
      19A     -1.258000    20A     -1.200167    21A     -1.046133
      22A     -0.981722    23A     -0.958988    24A     -0.876161
      25A     -0.840753    26A     -0.821650    27A     -0.754588
      28A     -0.710628    29A     -0.682190    30A     -0.668343
      31A     -0.643844    32A     -0.632090    33A     -0.624477
      34A     -0.613345    35A     -0.609449    36A     -0.577199
      37A     -0.571098    38A     -0.541957    39A     -0.513939
      40A     -0.507887    41A     -0.485385    42A     -0.479911
      43A     -0.471939    44A     -0.430785    45A     -0.418043
      46A     -0.339505

  @DF-RHF Final Energy:  -905.30056873226852

   => Energetics <=

    Nuclear Repulsion Energy =            796.6373726021439552
    One-Electron Energy =               -2824.1649429617286842
    Two-Electron Energy =                1122.2270016273162128
    Total Energy =                       -905.3005687322686299
  Basis Set: (AUG-CC-PVTZ AUX)
    Blend: AUG-CC-PVTZ-RI
    Molecular point group: c1

    Geometry (in Angstrom), charge = 0, multiplicity = 1:

       Center              X                  Y                   Z               Mass
    ------------   -----------------  -----------------  -----------------  -----------------
         S            0.773634159925    -0.674053069857    -0.282386226779    31.972071174400
         O            0.752736159925    -1.826019069857     0.627682773221    15.994914619570
         O            1.148932159925    -0.801619069857    -1.685240226779    15.994914619570
         N            1.746495159925     0.488299930143     0.392516773221    14.003074004430
         N           -1.839137840075    -0.735653069857     0.489351773221    14.003074004430
         N           -1.317181840075     1.122657930143    -0.641007226779    14.003074004430
         C           -0.871351840075    -0.037991069857    -0.168372226779    12.000000000000
         C            1.470533159925     0.779953930143     1.802654773221    12.000000000000
         C            1.970224159925     1.688497930143    -0.428430226779    12.000000000000
         C           -3.009349840075    -0.023791069857     0.452501673221    12.000000000000
         C           -2.638244840075     1.153391930143    -0.269359226779    12.000000000000
         H            1.358259159925    -0.155908069857     2.349069773221     1.007825032230
         H            0.572322159925     1.401060930143     1.926266773221     1.007825032230
         H            2.333260159925     1.318259930143     2.201024773221     1.007825032230
         H            2.180686159925     1.384316930143    -1.452258226779     1.007825032230
         H            2.845895159925     2.198443930143    -0.020343226779     1.007825032230
         H            1.104284159925     2.360191930143    -0.412055226779     1.007825032230
         H           -1.690958840075    -1.642177069857     0.923188773221     1.007825032230
         H           -3.916362840075    -0.322228069857     0.866147773221     1.007825032230
         H           -3.270813840075     1.993273930143    -0.523598226779     1.007825032230

  Basis Set: AUG-CC-PVTZ
    Blend: AUG-CC-PVTZ
  Basis Set: (AUG-CC-PVTZ AUX)
    Blend: AUG-CC-PVTZ-JKFIT
	 Reference Energy          =    -905.3005687322685162 [Eh]
	 Singles Energy            =      -0.0000000000000000 [Eh]
	 Same-Spin Energy          =      -0.5981667230546921 [Eh]
	 Opposite-Spin Energy      =      -1.7767405265725320 [Eh]
	 Correlation Energy        =      -2.3749072496272241 [Eh]
	 Total Energy              =    -907.6754759818957154 [Eh]

	 ================> DF-SCS-MP2 Energies <==================
	-----------------------------------------------------------
	 SCS Same-Spin Scale       =       0.3333333333333333 [-]
	 SCS Opposite-Spin Scale   =       1.2000000000000000 [-]
	 SCS Same-Spin Energy      =      -0.1993889076848974 [Eh]
	 SCS Opposite-Spin Energy  =      -2.1320886318870382 [Eh]
	 SCS Correlation Energy    =      -2.3314775395719356 [Eh]
	 SCS Total Energy          =    -907.6320462718404087 [Eh]
	-----------------------------------------------------------

  Dipole Moment: [D]
     X:    -2.6713      Y:     1.8788      Z:     3.5754     Total:     4.8424

*** Psi4 exiting successfully. Buy a developer a beer!
