                               Psi4 1.3.2 release

  ==> Input File <==

--------------------------------------------------------------------------
#psi4
#
memory 32 gb

molecule  {
0 1
  S        0.7547937    -0.7473744    -0.2970334
  O        0.7428910    -1.8740890     0.5977740
  O        1.1390870    -0.8496890    -1.7151490
  N        1.7366500     0.4402300     0.3626080
  N       -1.8489830    -0.7837230     0.4594430
  N       -1.3270270     1.0745880    -0.6709160
  C       -0.8811970    -0.0860610    -0.1982810
  C        1.4606880     0.7318840     1.7727460
  C        1.9603790     1.6404280    -0.4583390
  C       -2.9965950    -0.0375860     0.3980590
  C       -2.6480900     1.1053220    -0.2992680
  H        1.3484140    -0.2039780     2.3191610
  H        0.5624770     1.3529910     1.8963580
  H        2.3234150     1.2701900     2.1711160
  H        2.1708410     1.3362470    -1.4821670
  H        2.8360500     2.1503740    -0.0502520
  H        1.0944390     2.3121220    -0.4419640
  H       -1.7008040    -1.6902470     0.8932800
  H       -3.9262080    -0.3702980     0.8362390
  H       -3.2806590     1.9452040    -0.5535070
units angstrom
no_reorient  #important for SAPT in psi4, default
symmetry c1  #important for SAPT in psi4, default
}

set PROPERTIES_ORIGIN ["COM"]
properties('MP2/aug-cc-pvtz', properties = ['dipole'])
--------------------------------------------------------------------------

    Molecular point group: c1
  Charge       = 0
  Multiplicity = 1
  Basis Set: AUG-CC-PVTZ
    Blend: AUG-CC-PVTZ
  Basis Set: (AUG-CC-PVTZ AUX)
    Blend: AUG-CC-PVTZ-JKFIT

    Orbital Energies [Eh]
    ---------------------

    Doubly Occupied:

       1A    -92.215941     2A    -20.566222     3A    -20.552733
       4A    -15.655711     5A    -15.608368     6A    -15.586996
       7A    -11.337953     8A    -11.293335     9A    -11.274033
      10A    -11.273480    11A    -11.263746    12A     -9.180564
      13A     -6.865760    14A     -6.865469    15A     -6.864920
      16A     -1.471594    17A     -1.370408    18A     -1.349643
      19A     -1.252279    20A     -1.199130    21A     -1.050593
      22A     -0.979161    23A     -0.956662    24A     -0.876048
      25A     -0.841752    26A     -0.818206    27A     -0.753185
      28A     -0.711736    29A     -0.676142    30A     -0.668458
      31A     -0.642943    32A     -0.632552    33A     -0.625149
      34A     -0.618137    35A     -0.609864    36A     -0.577895
      37A     -0.569289    38A     -0.540354    39A     -0.516092
      40A     -0.512690    41A     -0.484609    42A     -0.481870
      43A     -0.470376    44A     -0.429566    45A     -0.414294
      46A     -0.346193

  @DF-RHF Final Energy:  -905.30483040624904

   => Energetics <=

    Nuclear Repulsion Energy =            797.3269629416969337
    One-Electron Energy =               -2825.5593807122845647
    Two-Electron Energy =                1122.9275873643387058
    Total Energy =                       -905.3048304062490388
  Basis Set: (AUG-CC-PVTZ AUX)
    Blend: AUG-CC-PVTZ-RI
    Molecular point group: c1

    Geometry (in Angstrom), charge = 0, multiplicity = 1:

       Center              X                  Y                   Z               Mass
    ------------   -----------------  -----------------  -----------------  -----------------
         S            0.764732542665    -0.697041923832    -0.268230296627    31.972071174400
         O            0.752829842665    -1.823756523832     0.626577103373    15.994914619570
         O            1.149025842665    -0.799356523832    -1.686345896627    15.994914619570
         N            1.746588842665     0.490562476168     0.391411103373    14.003074004430
         N           -1.839044157335    -0.733390523832     0.488246103373    14.003074004430
         N           -1.317088157335     1.124920476168    -0.642112896627    14.003074004430
         C           -0.871258157335    -0.035728523832    -0.169477896627    12.000000000000
         C            1.470626842665     0.782216476168     1.801549103373    12.000000000000
         C            1.970317842665     1.690760476168    -0.429535896627    12.000000000000
         C           -2.986656157335     0.012746476168     0.426862103373    12.000000000000
         C           -2.638151157335     1.155654476168    -0.270464896627    12.000000000000
         H            1.358352842665    -0.153645523832     2.347964103373     1.007825032230
         H            0.572415842665     1.403323476168     1.925161103373     1.007825032230
         H            2.333353842665     1.320522476168     2.199919103373     1.007825032230
         H            2.180779842665     1.386579476168    -1.453363896627     1.007825032230
         H            2.845988842665     2.200706476168    -0.021448896627     1.007825032230
         H            1.104377842665     2.362454476168    -0.413160896627     1.007825032230
         H           -1.690865157335    -1.639914523832     0.922083103373     1.007825032230
         H           -3.916269157335    -0.319965523832     0.865042103373     1.007825032230
         H           -3.270720157335     1.995536476168    -0.524703896627     1.007825032230

  Basis Set: AUG-CC-PVTZ
    Blend: AUG-CC-PVTZ
  Basis Set: (AUG-CC-PVTZ AUX)
    Blend: AUG-CC-PVTZ-JKFIT
	 Reference Energy          =    -905.3048304062490388 [Eh]
	 Singles Energy            =      -0.0000000000000000 [Eh]
	 Same-Spin Energy          =      -0.5973209389950558 [Eh]
	 Opposite-Spin Energy      =      -1.7752711267325743 [Eh]
	 Correlation Energy        =      -2.3725920657276300 [Eh]
	 Total Energy              =    -907.6774224719766835 [Eh]

	 ================> DF-SCS-MP2 Energies <==================
	-----------------------------------------------------------
	 SCS Same-Spin Scale       =       0.3333333333333333 [-]
	 SCS Opposite-Spin Scale   =       1.2000000000000000 [-]
	 SCS Same-Spin Energy      =      -0.1991069796650186 [Eh]
	 SCS Opposite-Spin Energy  =      -2.1303253520790890 [Eh]
	 SCS Correlation Energy    =      -2.3294323317441075 [Eh]
	 SCS Total Energy          =    -907.6342627379931400 [Eh]
	-----------------------------------------------------------

  Dipole Moment: [D]
     X:    -2.7870      Y:     1.6564      Z:     3.6775     Total:     4.9025

*** Psi4 exiting successfully. Buy a developer a beer!
