                               Psi4 1.3.2 release

  ==> Input File <==

--------------------------------------------------------------------------
#psi4
#
memory 32 gb

molecule  {
0 1
  S        0.7637890    -0.7221230    -0.3122950
  O        0.7428910    -1.8740890     0.5977740
  O        1.1390870    -0.8496890    -1.7151490
  N        1.6193829     0.3001218     0.2812562
  N       -1.8489830    -0.7837230     0.4594430
  N       -1.3270270     1.0745880    -0.6709160
  C       -0.8811970    -0.0860610    -0.1982810
  C        1.4606880     0.7318840     1.7727460
  C        1.9603790     1.6404280    -0.4583390
  C       -2.9965950    -0.0375860     0.3980590
  C       -2.6480900     1.1053220    -0.2992680
  H        1.3484140    -0.2039780     2.3191610
  H        0.5624770     1.3529910     1.8963580
  H        2.3234150     1.2701900     2.1711160
  H        2.1708410     1.3362470    -1.4821670
  H        2.8360500     2.1503740    -0.0502520
  H        1.0944390     2.3121220    -0.4419640
  H       -1.7008040    -1.6902470     0.8932800
  H       -3.9262080    -0.3702980     0.8362390
  H       -3.2806590     1.9452040    -0.5535070
units angstrom
no_reorient  #important for SAPT in psi4, default
symmetry c1  #important for SAPT in psi4, default
}

set PROPERTIES_ORIGIN ["COM"]
properties('MP2/aug-cc-pvtz', properties = ['dipole'])
--------------------------------------------------------------------------

    Molecular point group: c1
  Charge       = 0
  Multiplicity = 1
  Basis Set: AUG-CC-PVTZ
    Blend: AUG-CC-PVTZ
  Basis Set: (AUG-CC-PVTZ AUX)
    Blend: AUG-CC-PVTZ-JKFIT

    Orbital Energies [Eh]
    ---------------------

    Doubly Occupied:

       1A    -92.198486     2A    -20.542575     3A    -20.539821
       4A    -15.646610     5A    -15.608774     6A    -15.578374
       7A    -11.326382     8A    -11.296501     9A    -11.288126
      10A    -11.285401    11A    -11.267343    12A     -9.166070
      13A     -6.852397    14A     -6.850608    15A     -6.850291
      16A     -1.472151    17A     -1.362433    18A     -1.334213
      19A     -1.270115    20A     -1.191171    21A     -1.041782
      22A     -0.992465    23A     -0.975129    24A     -0.880522
      25A     -0.833705    26A     -0.810822    27A     -0.748327
      28A     -0.700834    29A     -0.680385    30A     -0.676875
      31A     -0.635354    32A     -0.626036    33A     -0.618018
      34A     -0.609402    35A     -0.602003    36A     -0.596558
      37A     -0.581939    38A     -0.523319    39A     -0.514259
      40A     -0.493037    41A     -0.481954    42A     -0.469369
      43A     -0.466623    44A     -0.442494    45A     -0.422419
      46A     -0.338341

  @DF-RHF Final Energy:  -905.26899335097448

   => Energetics <=

    Nuclear Repulsion Energy =            803.0825112367339216
    One-Electron Energy =               -2837.3233835976484443
    Two-Electron Energy =                1128.9718790099402668
    Total Energy =                       -905.2689933509743696
  Basis Set: (AUG-CC-PVTZ AUX)
    Blend: AUG-CC-PVTZ-RI
    Molecular point group: c1

    Geometry (in Angstrom), charge = 0, multiplicity = 1:

       Center              X                  Y                   Z               Mass
    ------------   -----------------  -----------------  -----------------  -----------------
         S            0.781466014119    -0.665194341667    -0.274196273625    31.972071174400
         O            0.760568014119    -1.817160341667     0.635872726375    15.994914619570
         O            1.156764014119    -0.792760341667    -1.677050273625    15.994914619570
         N            1.637059914119     0.357050458333     0.319354926375    14.003074004430
         N           -1.831305985881    -0.726794341667     0.497541726375    14.003074004430
         N           -1.309349985881     1.131516658333    -0.632817273625    14.003074004430
         C           -0.863519985881    -0.029132341667    -0.160182273625    12.000000000000
         C            1.478365014119     0.788812658333     1.810844726375    12.000000000000
         C            1.978056014119     1.697356658333    -0.420240273625    12.000000000000
         C           -2.978917985881     0.019342658333     0.436157726375    12.000000000000
         C           -2.630412985881     1.162250658333    -0.261169273625    12.000000000000
         H            1.366091014119    -0.147049341667     2.357259726375     1.007825032230
         H            0.580154014119     1.409919658333     1.934456726375     1.007825032230
         H            2.341092014119     1.327118658333     2.209214726375     1.007825032230
         H            2.188518014119     1.393175658333    -1.444068273625     1.007825032230
         H            2.853727014119     2.207302658333    -0.012153273625     1.007825032230
         H            1.112116014119     2.369050658333    -0.403865273625     1.007825032230
         H           -1.683126985881    -1.633318341667     0.931378726375     1.007825032230
         H           -3.908530985881    -0.313369341667     0.874337726375     1.007825032230
         H           -3.262981985881     2.002132658333    -0.515408273625     1.007825032230

  Basis Set: AUG-CC-PVTZ
    Blend: AUG-CC-PVTZ
  Basis Set: (AUG-CC-PVTZ AUX)
    Blend: AUG-CC-PVTZ-JKFIT
	 Reference Energy          =    -905.2689933509744833 [Eh]
	 Singles Energy            =      -0.0000000000000000 [Eh]
	 Same-Spin Energy          =      -0.5965014954704995 [Eh]
	 Opposite-Spin Energy      =      -1.7736080456897672 [Eh]
	 Correlation Energy        =      -2.3701095411602666 [Eh]
	 Total Energy              =    -907.6391028921347015 [Eh]

	 ================> DF-SCS-MP2 Energies <==================
	-----------------------------------------------------------
	 SCS Same-Spin Scale       =       0.3333333333333333 [-]
	 SCS Opposite-Spin Scale   =       1.2000000000000000 [-]
	 SCS Same-Spin Energy      =      -0.1988338318234998 [Eh]
	 SCS Opposite-Spin Energy  =      -2.1283296548277204 [Eh]
	 SCS Correlation Energy    =      -2.3271634866512203 [Eh]
	 SCS Total Energy          =    -907.5961568376256992 [Eh]
	-----------------------------------------------------------

  Dipole Moment: [D]
     X:    -1.7884      Y:     2.7693      Z:     4.0608     Total:     5.2304

*** Psi4 exiting successfully. Buy a developer a beer!
