                               Psi4 1.3.2 release

  ==> Input File <==

--------------------------------------------------------------------------
#psi4
#
memory 32 gb

molecule  {
0 1
  S        0.7637890    -0.7221230    -0.3122950
  O        0.7428910    -1.8740890     0.5977740
  O        1.1390870    -0.8496890    -1.7151490
  N        1.7366500     0.4402300     0.3626080
  N       -1.8984531    -0.8496962     0.5078914
  N       -1.3270270     1.0745880    -0.6709160
  C       -0.8811970    -0.0860610    -0.1982810
  C        1.4606880     0.7318840     1.7727460
  C        1.9603790     1.6404280    -0.4583390
  C       -2.9965950    -0.0375860     0.3980590
  C       -2.6480900     1.1053220    -0.2992680
  H        1.3484140    -0.2039780     2.3191610
  H        0.5624770     1.3529910     1.8963580
  H        2.3234150     1.2701900     2.1711160
  H        2.1708410     1.3362470    -1.4821670
  H        2.8360500     2.1503740    -0.0502520
  H        1.0944390     2.3121220    -0.4419640
  H       -1.7008040    -1.6902470     0.8932800
  H       -3.9262080    -0.3702980     0.8362390
  H       -3.2806590     1.9452040    -0.5535070
units angstrom
no_reorient  #important for SAPT in psi4, default
symmetry c1  #important for SAPT in psi4, default
}

set PROPERTIES_ORIGIN ["COM"]
properties('MP2/aug-cc-pvtz', properties = ['dipole'])
--------------------------------------------------------------------------

    Molecular point group: c1
  Charge       = 0
  Multiplicity = 1
  Basis Set: AUG-CC-PVTZ
    Blend: AUG-CC-PVTZ
  Basis Set: (AUG-CC-PVTZ AUX)
    Blend: AUG-CC-PVTZ-JKFIT

    Orbital Energies [Eh]
    ---------------------

    Doubly Occupied:

       1A    -92.215353     2A    -20.557537     3A    -20.555356
       4A    -15.649716     5A    -15.611064     6A    -15.599020
       7A    -11.344972     8A    -11.301195     9A    -11.274988
      10A    -11.274759    11A    -11.266665    12A     -9.179779
      13A     -6.865003    14A     -6.864592    15A     -6.864173
      16A     -1.463133    17A     -1.353898    18A     -1.344225
      19A     -1.257825    20A     -1.208518    21A     -1.043997
      22A     -0.981743    23A     -0.961460    24A     -0.887333
      25A     -0.848285    26A     -0.803684    27A     -0.752828
      28A     -0.710558    29A     -0.681273    30A     -0.667092
      31A     -0.647618    32A     -0.627212    33A     -0.620849
      34A     -0.612900    35A     -0.605470    36A     -0.576861
      37A     -0.571288    38A     -0.541984    39A     -0.513306
      40A     -0.507312    41A     -0.489427    42A     -0.479284
      43A     -0.474035    44A     -0.437361    45A     -0.417690
      46A     -0.342607

  @DF-RHF Final Energy:  -905.29099831994233

   => Energetics <=

    Nuclear Repulsion Energy =            794.9396561872337088
    One-Electron Energy =               -2820.7508498159959345
    Two-Electron Energy =                1120.5201953088201208
    Total Energy =                       -905.2909983199422186
  Basis Set: (AUG-CC-PVTZ AUX)
    Blend: AUG-CC-PVTZ-RI
    Molecular point group: c1

    Geometry (in Angstrom), charge = 0, multiplicity = 1:

       Center              X                  Y                   Z               Mass
    ------------   -----------------  -----------------  -----------------  -----------------
         S            0.776042350876    -0.671125035864    -0.284580104379    31.972071174400
         O            0.755144350876    -1.823091035864     0.625488895621    15.994914619570
         O            1.151340350876    -0.798691035864    -1.687434104379    15.994914619570
         N            1.748903350876     0.491227964136     0.390322895621    14.003074004430
         N           -1.886199749124    -0.798698235864     0.535606295621    14.003074004430
         N           -1.314773649124     1.125585964136    -0.643201104379    14.003074004430
         C           -0.868943649124    -0.035063035864    -0.170566104379    12.000000000000
         C            1.472941350876     0.782881964136     1.800460895621    12.000000000000
         C            1.972632350876     1.691425964136    -0.430624104379    12.000000000000
         C           -2.984341649124     0.013411964136     0.425773895621    12.000000000000
         C           -2.635836649124     1.156319964136    -0.271553104379    12.000000000000
         H            1.360667350876    -0.152980035864     2.346875895621     1.007825032230
         H            0.574730350876     1.403988964136     1.924072895621     1.007825032230
         H            2.335668350876     1.321187964136     2.198830895621     1.007825032230
         H            2.183094350876     1.387244964136    -1.454452104379     1.007825032230
         H            2.848303350876     2.201371964136    -0.022537104379     1.007825032230
         H            1.106692350876     2.363119964136    -0.414249104379     1.007825032230
         H           -1.688550649124    -1.639249035864     0.920994895621     1.007825032230
         H           -3.913954649124    -0.319300035864     0.863953895621     1.007825032230
         H           -3.268405649124     1.996201964136    -0.525792104379     1.007825032230

  Basis Set: AUG-CC-PVTZ
    Blend: AUG-CC-PVTZ
  Basis Set: (AUG-CC-PVTZ AUX)
    Blend: AUG-CC-PVTZ-JKFIT
	 Reference Energy          =    -905.2909983199423323 [Eh]
	 Singles Energy            =      -0.0000000000000000 [Eh]
	 Same-Spin Energy          =      -0.5975445669019066 [Eh]
	 Opposite-Spin Energy      =      -1.7771865895116330 [Eh]
	 Correlation Energy        =      -2.3747311564135396 [Eh]
	 Total Energy              =    -907.6657294763558639 [Eh]

	 ================> DF-SCS-MP2 Energies <==================
	-----------------------------------------------------------
	 SCS Same-Spin Scale       =       0.3333333333333333 [-]
	 SCS Opposite-Spin Scale   =       1.2000000000000000 [-]
	 SCS Same-Spin Energy      =      -0.1991815223006355 [Eh]
	 SCS Opposite-Spin Energy  =      -2.1326239074139597 [Eh]
	 SCS Correlation Energy    =      -2.3318054297145951 [Eh]
	 SCS Total Energy          =    -907.6228037496568959 [Eh]
	-----------------------------------------------------------

  Dipole Moment: [D]
     X:    -2.6452      Y:     2.0958      Z:     3.4551     Total:     4.8299

*** Psi4 exiting successfully. Buy a developer a beer!
