                               Psi4 1.3.2 release

  ==> Input File <==

--------------------------------------------------------------------------
#psi4
#
memory 32 gb

molecule  {
0 1
  S        0.7637890    -0.7221230    -0.3122950
  O        0.7428910    -1.8740890     0.5977740
  O        1.1390870    -0.8496890    -1.7151490
  N        1.7366500     0.4402300     0.3626080
  N       -1.8489830    -0.7837230     0.4594430
  N       -1.3270270     1.0745880    -0.6709160
  C       -0.8811970    -0.0860610    -0.1982810
  C        1.4606880     0.7318840     1.7727460
  C        1.9603790     1.6404280    -0.4583390
  C       -3.0415285    -0.0203754     0.4021383
  C       -2.6480900     1.1053220    -0.2992680
  H        1.3484140    -0.2039780     2.3191610
  H        0.5624770     1.3529910     1.8963580
  H        2.3234150     1.2701900     2.1711160
  H        2.1708410     1.3362470    -1.4821670
  H        2.8360500     2.1503740    -0.0502520
  H        1.0944390     2.3121220    -0.4419640
  H       -1.7008040    -1.6902470     0.8932800
  H       -3.9262080    -0.3702980     0.8362390
  H       -3.2806590     1.9452040    -0.5535070
units angstrom
no_reorient  #important for SAPT in psi4, default
symmetry c1  #important for SAPT in psi4, default
}

set PROPERTIES_ORIGIN ["COM"]
properties('MP2/aug-cc-pvtz', properties = ['dipole'])
--------------------------------------------------------------------------

    Molecular point group: c1
  Charge       = 0
  Multiplicity = 1
  Basis Set: AUG-CC-PVTZ
    Blend: AUG-CC-PVTZ
  Basis Set: (AUG-CC-PVTZ AUX)
    Blend: AUG-CC-PVTZ-JKFIT

    Orbital Energies [Eh]
    ---------------------

    Doubly Occupied:

       1A    -92.216899     2A    -20.559092     3A    -20.557084
       4A    -15.652602     5A    -15.612340     6A    -15.585676
       7A    -11.341285     8A    -11.293217     9A    -11.276921
      10A    -11.275772    11A    -11.266701    12A     -9.181452
      13A     -6.866679    14A     -6.866259    15A     -6.865832
      16A     -1.465118    17A     -1.360692    18A     -1.345952
      19A     -1.258816    20A     -1.192644    21A     -1.050340
      22A     -0.982321    23A     -0.961714    24A     -0.878656
      25A     -0.837520    26A     -0.815656    27A     -0.753043
      28A     -0.710774    29A     -0.675118    30A     -0.669452
      31A     -0.642898    32A     -0.639468    33A     -0.621877
      34A     -0.613501    35A     -0.605365    36A     -0.577572
      37A     -0.571555    38A     -0.542525    39A     -0.514816
      40A     -0.508228    41A     -0.486665    42A     -0.480656
      43A     -0.472088    44A     -0.425631    45A     -0.418760
      46A     -0.349082

  @DF-RHF Final Energy:  -905.30208984855051

   => Energetics <=

    Nuclear Repulsion Energy =            796.3310546830249450
    One-Electron Energy =               -2823.5736587303899796
    Two-Electron Energy =                1121.9405141988145260
    Total Energy =                       -905.3020898485506223
  Basis Set: (AUG-CC-PVTZ AUX)
    Blend: AUG-CC-PVTZ-RI
    Molecular point group: c1

    Geometry (in Angstrom), charge = 0, multiplicity = 1:

       Center              X                  Y                   Z               Mass
    ------------   -----------------  -----------------  -----------------  -----------------
         S            0.775165236423    -0.677582673018    -0.280983958557    31.972071174400
         O            0.754267236423    -1.829548673018     0.629085041443    15.994914619570
         O            1.150463236423    -0.805148673018    -1.683837958557    15.994914619570
         N            1.748026236423     0.484770326982     0.393919041443    14.003074004430
         N           -1.837606763577    -0.739182673018     0.490754041443    14.003074004430
         N           -1.315650763577     1.119128326982    -0.639604958557    14.003074004430
         C           -0.869820763577    -0.041520673018    -0.166969958557    12.000000000000
         C            1.472064236423     0.776424326982     1.804057041443    12.000000000000
         C            1.971755236423     1.684968326982    -0.427027958557    12.000000000000
         C           -3.030152263577     0.024164926982     0.433449341443    12.000000000000
         C           -2.636713763577     1.149862326982    -0.267956958557    12.000000000000
         H            1.359790236423    -0.159437673018     2.350472041443     1.007825032230
         H            0.573853236423     1.397531326982     1.927669041443     1.007825032230
         H            2.334791236423     1.314730326982     2.202427041443     1.007825032230
         H            2.182217236423     1.380787326982    -1.450855958557     1.007825032230
         H            2.847426236423     2.194914326982    -0.018940958557     1.007825032230
         H            1.105815236423     2.356662326982    -0.410652958557     1.007825032230
         H           -1.689427763577    -1.645706673018     0.924591041443     1.007825032230
         H           -3.914831763577    -0.325757673018     0.867550041443     1.007825032230
         H           -3.269282763577     1.989744326982    -0.522195958557     1.007825032230

  Basis Set: AUG-CC-PVTZ
    Blend: AUG-CC-PVTZ
  Basis Set: (AUG-CC-PVTZ AUX)
    Blend: AUG-CC-PVTZ-JKFIT
	 Reference Energy          =    -905.3020898485505086 [Eh]
	 Singles Energy            =      -0.0000000000000000 [Eh]
	 Same-Spin Energy          =      -0.5973141904974719 [Eh]
	 Opposite-Spin Energy      =      -1.7761393286746316 [Eh]
	 Correlation Energy        =      -2.3734535191721036 [Eh]
	 Total Energy              =    -907.6755433677226392 [Eh]

	 ================> DF-SCS-MP2 Energies <==================
	-----------------------------------------------------------
	 SCS Same-Spin Scale       =       0.3333333333333333 [-]
	 SCS Opposite-Spin Scale   =       1.2000000000000000 [-]
	 SCS Same-Spin Energy      =      -0.1991047301658240 [Eh]
	 SCS Opposite-Spin Energy  =      -2.1313671944095578 [Eh]
	 SCS Correlation Energy    =      -2.3304719245753818 [Eh]
	 SCS Total Energy          =    -907.6325617731258717 [Eh]
	-----------------------------------------------------------

  Dipole Moment: [D]
     X:    -2.6563      Y:     1.9253      Z:     3.5541     Total:     4.8368

*** Psi4 exiting successfully. Buy a developer a beer!
