                               Psi4 1.3.2 release

  ==> Input File <==

--------------------------------------------------------------------------
#psi4
#
memory 32 gb

molecule  {
0 1
  S        0.7637890    -0.7221230    -0.3122950
  O        0.7428910    -1.8740890     0.5977740
  O        1.1390870    -0.8496890    -1.7151490
  N        1.7366500     0.4402300     0.3626080
  N       -1.8489830    -0.7837230     0.4594430
  N       -1.3270270     1.0745880    -0.6709160
  C       -0.8811970    -0.0860610    -0.1982810
  C        1.4606880     0.7318840     1.7727460
  C        1.9603790     1.6404280    -0.4583390
  C       -2.8594684    -0.0807876     0.3807485
  C       -2.6480900     1.1053220    -0.2992680
  H        1.3484140    -0.2039780     2.3191610
  H        0.5624770     1.3529910     1.8963580
  H        2.3234150     1.2701900     2.1711160
  H        2.1708410     1.3362470    -1.4821670
  H        2.8360500     2.1503740    -0.0502520
  H        1.0944390     2.3121220    -0.4419640
  H       -1.7008040    -1.6902470     0.8932800
  H       -3.9262080    -0.3702980     0.8362390
  H       -3.2806590     1.9452040    -0.5535070
units angstrom
no_reorient  #important for SAPT in psi4, default
symmetry c1  #important for SAPT in psi4, default
}

set PROPERTIES_ORIGIN ["COM"]
properties('MP2/aug-cc-pvtz', properties = ['dipole'])
--------------------------------------------------------------------------

    Molecular point group: c1
  Charge       = 0
  Multiplicity = 1
  Basis Set: AUG-CC-PVTZ
    Blend: AUG-CC-PVTZ
  Basis Set: (AUG-CC-PVTZ AUX)
    Blend: AUG-CC-PVTZ-JKFIT

    Orbital Energies [Eh]
    ---------------------

    Doubly Occupied:

       1A    -92.212504     2A    -20.556799     3A    -20.552214
       4A    -15.661081     5A    -15.608157     6A    -15.590580
       7A    -11.325942     8A    -11.295554     9A    -11.273863
      10A    -11.265429    11A    -11.264392    12A     -9.176909
      13A     -6.862108    14A     -6.861744    15A     -6.861340
      16A     -1.462597    17A     -1.409894    18A     -1.343244
      19A     -1.255676    20A     -1.218705    21A     -1.049047
      22A     -0.979948    23A     -0.955203    24A     -0.876508
      25A     -0.858751    26A     -0.828552    27A     -0.750859
      28A     -0.711748    29A     -0.688106    30A     -0.666701
      31A     -0.655643    32A     -0.641038    33A     -0.625677
      34A     -0.614161    35A     -0.586022    36A     -0.575577
      37A     -0.569749    38A     -0.540258    39A     -0.511546
      40A     -0.506770    41A     -0.480326    42A     -0.478034
      43A     -0.469415    44A     -0.442103    45A     -0.415981
      46A     -0.337284

  @DF-RHF Final Energy:  -905.27703101241912

   => Energetics <=

    Nuclear Repulsion Energy =            801.2583787959496249
    One-Electron Energy =               -2833.3233392742063188
    Two-Electron Energy =                1126.7879294658373510
    Total Energy =                       -905.2770310124192292
  Basis Set: (AUG-CC-PVTZ AUX)
    Blend: AUG-CC-PVTZ-RI
    Molecular point group: c1

    Geometry (in Angstrom), charge = 0, multiplicity = 1:

       Center              X                  Y                   Z               Mass
    ------------   -----------------  -----------------  -----------------  -----------------
         S            0.762684078501    -0.673441105433    -0.279517577555    31.972071174400
         O            0.741786078501    -1.825407105433     0.630551422445    15.994914619570
         O            1.137982078501    -0.801007105433    -1.682371577555    15.994914619570
         N            1.735545078501     0.488911894567     0.395385422445    14.003074004430
         N           -1.850087921499    -0.735041105433     0.492220422445    14.003074004430
         N           -1.328131921499     1.123269894567    -0.638138577555    14.003074004430
         C           -0.882301921499    -0.037379105433    -0.165503577555    12.000000000000
         C            1.459583078501     0.780565894567     1.805523422445    12.000000000000
         C            1.959274078501     1.689109894567    -0.425561577555    12.000000000000
         C           -2.860573321499    -0.032105705433     0.413525922445    12.000000000000
         C           -2.649194921499     1.154003894567    -0.266490577555    12.000000000000
         H            1.347309078501    -0.155296105433     2.351938422445     1.007825032230
         H            0.561372078501     1.401672894567     1.929135422445     1.007825032230
         H            2.322310078501     1.318871894567     2.203893422445     1.007825032230
         H            2.169736078501     1.384928894567    -1.449389577555     1.007825032230
         H            2.834945078501     2.199055894567    -0.017474577555     1.007825032230
         H            1.093334078501     2.360803894567    -0.409186577555     1.007825032230
         H           -1.701908921499    -1.641565105433     0.926057422445     1.007825032230
         H           -3.927312921499    -0.321616105433     0.869016422445     1.007825032230
         H           -3.281763921499     1.993885894567    -0.520729577555     1.007825032230

  Basis Set: AUG-CC-PVTZ
    Blend: AUG-CC-PVTZ
  Basis Set: (AUG-CC-PVTZ AUX)
    Blend: AUG-CC-PVTZ-JKFIT
	 Reference Energy          =    -905.2770310124191155 [Eh]
	 Singles Energy            =      -0.0000000000000000 [Eh]
	 Same-Spin Energy          =      -0.5981994962840993 [Eh]
	 Opposite-Spin Energy      =      -1.7744463744268821 [Eh]
	 Correlation Energy        =      -2.3726458707109814 [Eh]
	 Total Energy              =    -907.6496768831300415 [Eh]

	 ================> DF-SCS-MP2 Energies <==================
	-----------------------------------------------------------
	 SCS Same-Spin Scale       =       0.3333333333333333 [-]
	 SCS Opposite-Spin Scale   =       1.2000000000000000 [-]
	 SCS Same-Spin Energy      =      -0.1993998320946997 [Eh]
	 SCS Opposite-Spin Energy  =      -2.1293356493122584 [Eh]
	 SCS Correlation Energy    =      -2.3287354814069583 [Eh]
	 SCS Total Energy          =    -907.6057664938260814 [Eh]
	-----------------------------------------------------------

  Dipole Moment: [D]
     X:    -2.7332      Y:     1.7824      Z:     3.6113     Total:     4.8671

*** Psi4 exiting successfully. Buy a developer a beer!
