                               Psi4 1.3.2 release

  ==> Input File <==

--------------------------------------------------------------------------
#psi4
#
memory 32 gb

molecule  {
0 1
  S        0.7637890    -0.7221230    -0.3122950
  O        0.5957418    -1.8393805     0.6253530
  O        1.1390870    -0.8496890    -1.7151490
  N        1.7366500     0.4402300     0.3626080
  N       -1.8489830    -0.7837230     0.4594430
  N       -1.3270270     1.0745880    -0.6709160
  C       -0.8811970    -0.0860610    -0.1982810
  C        1.4606880     0.7318840     1.7727460
  C        1.9603790     1.6404280    -0.4583390
  C       -2.9965950    -0.0375860     0.3980590
  C       -2.6480900     1.1053220    -0.2992680
  H        1.3484140    -0.2039780     2.3191610
  H        0.5624770     1.3529910     1.8963580
  H        2.3234150     1.2701900     2.1711160
  H        2.1708410     1.3362470    -1.4821670
  H        2.8360500     2.1503740    -0.0502520
  H        1.0944390     2.3121220    -0.4419640
  H       -1.7008040    -1.6902470     0.8932800
  H       -3.9262080    -0.3702980     0.8362390
  H       -3.2806590     1.9452040    -0.5535070
units angstrom
no_reorient  #important for SAPT in psi4, default
symmetry c1  #important for SAPT in psi4, default
}

set PROPERTIES_ORIGIN ["COM"]
properties('MP2/aug-cc-pvtz', properties = ['dipole'])
--------------------------------------------------------------------------

    Molecular point group: c1
  Charge       = 0
  Multiplicity = 1
  Basis Set: AUG-CC-PVTZ
    Blend: AUG-CC-PVTZ
  Basis Set: (AUG-CC-PVTZ AUX)
    Blend: AUG-CC-PVTZ-JKFIT

    Orbital Energies [Eh]
    ---------------------

    Doubly Occupied:

       1A    -92.218065     2A    -20.561668     3A    -20.560448
       4A    -15.648717     5A    -15.615080     6A    -15.580825
       7A    -11.330019     8A    -11.288177     9A    -11.276493
      10A    -11.268547    11A    -11.268431    12A     -9.182379
      13A     -6.867593    14A     -6.867292    15A     -6.866710
      16A     -1.467357    17A     -1.365387    18A     -1.350650
      19A     -1.260883    20A     -1.193076    21A     -1.043574
      22A     -0.983469    23A     -0.960667    24A     -0.874369
      25A     -0.835108    26A     -0.813500    27A     -0.755216
      28A     -0.713327    29A     -0.675318    30A     -0.671064
      31A     -0.640504    32A     -0.629287    33A     -0.622570
      34A     -0.615805    35A     -0.607830    36A     -0.578496
      37A     -0.572555    38A     -0.543992    39A     -0.516412
      40A     -0.512761    41A     -0.485743    42A     -0.481972
      43A     -0.469097    44A     -0.424464    45A     -0.418803
      46A     -0.341251

  @DF-RHF Final Energy:  -905.30164349663266

   => Energetics <=

    Nuclear Repulsion Energy =            798.8354378672038365
    One-Electron Energy =               -2828.6242637235845905
    Two-Electron Energy =                1124.4871823597479761
    Total Energy =                       -905.3016434966327779
  Basis Set: (AUG-CC-PVTZ AUX)
    Blend: AUG-CC-PVTZ-RI
    Molecular point group: c1

    Geometry (in Angstrom), charge = 0, multiplicity = 1:

       Center              X                  Y                   Z               Mass
    ------------   -----------------  -----------------  -----------------  -----------------
         S            0.785530986235    -0.679574384692    -0.283224410355    31.972071174400
         O            0.617483786235    -1.796831884692     0.654423589645    15.994914619570
         O            1.160828986235    -0.807140384692    -1.686078410355    15.994914619570
         N            1.758391986235     0.482778615308     0.391678589645    14.003074004430
         N           -1.827241013765    -0.741174384692     0.488513589645    14.003074004430
         N           -1.305285013765     1.117136615308    -0.641845410355    14.003074004430
         C           -0.859455013765    -0.043512384692    -0.169210410355    12.000000000000
         C            1.482429986235     0.774432615308     1.801816589645    12.000000000000
         C            1.982120986235     1.682976615308    -0.429268410355    12.000000000000
         C           -2.974853013765     0.004962615308     0.427129589645    12.000000000000
         C           -2.626348013765     1.147870615308    -0.270197410355    12.000000000000
         H            1.370155986235    -0.161429384692     2.348231589645     1.007825032230
         H            0.584218986235     1.395539615308     1.925428589645     1.007825032230
         H            2.345156986235     1.312738615308     2.200186589645     1.007825032230
         H            2.192582986235     1.378795615308    -1.453096410355     1.007825032230
         H            2.857791986235     2.192922615308    -0.021181410355     1.007825032230
         H            1.116180986235     2.354670615308    -0.412893410355     1.007825032230
         H           -1.679062013765    -1.647698384692     0.922350589645     1.007825032230
         H           -3.904466013765    -0.327749384692     0.865309589645     1.007825032230
         H           -3.258917013765     1.987752615308    -0.524436410355     1.007825032230

  Basis Set: AUG-CC-PVTZ
    Blend: AUG-CC-PVTZ
  Basis Set: (AUG-CC-PVTZ AUX)
    Blend: AUG-CC-PVTZ-JKFIT
	 Reference Energy          =    -905.3016434966326642 [Eh]
	 Singles Energy            =      -0.0000000000000000 [Eh]
	 Same-Spin Energy          =      -0.5979198669364379 [Eh]
	 Opposite-Spin Energy      =      -1.7761954625551915 [Eh]
	 Correlation Energy        =      -2.3741153294916293 [Eh]
	 Total Energy              =    -907.6757588261242518 [Eh]

	 ================> DF-SCS-MP2 Energies <==================
	-----------------------------------------------------------
	 SCS Same-Spin Scale       =       0.3333333333333333 [-]
	 SCS Opposite-Spin Scale   =       1.2000000000000000 [-]
	 SCS Same-Spin Energy      =      -0.1993066223121460 [Eh]
	 SCS Opposite-Spin Energy  =      -2.1314345550662295 [Eh]
	 SCS Correlation Energy    =      -2.3307411773783753 [Eh]
	 SCS Total Energy          =    -907.6323846740110639 [Eh]
	-----------------------------------------------------------

  Dipole Moment: [D]
     X:    -2.1676      Y:     1.7870      Z:     3.4968     Total:     4.4855

*** Psi4 exiting successfully. Buy a developer a beer!
