                               Psi4 1.4a3.dev225

  ==> Input File <==

--------------------------------------------------------------------------
#psi4
#
memory 32 gb

molecule  {
0 1
  S        0.7637890    -0.7221230    -0.3122950
  O        0.7428910    -1.8740890     0.5977740
  O        1.1390870    -0.8496890    -1.7151490
  N        1.7366500     0.4402300     0.3626080
  N       -1.8489830    -0.7837230     0.4594430
  N       -1.3270270     1.0745880    -0.6709160
  C       -0.9167165    -0.1116665    -0.1741413
  C        1.4606880     0.7318840     1.7727460
  C        1.9603790     1.6404280    -0.4583390
  C       -2.9965950    -0.0375860     0.3980590
  C       -2.6480900     1.1053220    -0.2992680
  H        1.3484140    -0.2039780     2.3191610
  H        0.5624770     1.3529910     1.8963580
  H        2.3234150     1.2701900     2.1711160
  H        2.1708410     1.3362470    -1.4821670
  H        2.8360500     2.1503740    -0.0502520
  H        1.0944390     2.3121220    -0.4419640
  H       -1.7008040    -1.6902470     0.8932800
  H       -3.9262080    -0.3702980     0.8362390
  H       -3.2806590     1.9452040    -0.5535070
units angstrom
no_reorient  #important for SAPT in psi4, default
symmetry c1  #important for SAPT in psi4, default
}

set PROPERTIES_ORIGIN ["COM"]
properties('MP2/aug-cc-pvtz', properties = ['dipole'])
--------------------------------------------------------------------------

    Molecular point group: c1
  Charge       = 0
  Multiplicity = 1
  Basis Set: AUG-CC-PVTZ
    Blend: AUG-CC-PVTZ
  Basis Set: (AUG-CC-PVTZ AUX)
    Blend: AUG-CC-PVTZ-JKFIT

    Orbital Energies [Eh]
    ---------------------

    Doubly Occupied:

       1A    -92.215535     2A    -20.556834     3A    -20.556812
       4A    -15.658509     5A    -15.612559     6A    -15.583489
       7A    -11.337018     8A    -11.288819     9A    -11.275655
      10A    -11.274424    11A    -11.265988    12A     -9.179838
      13A     -6.864986    14A     -6.864668    15A     -6.864205
      16A     -1.463613    17A     -1.381489    18A     -1.345036
      19A     -1.258234    20A     -1.199584    21A     -1.048560
      22A     -0.981927    23A     -0.958449    24A     -0.873882
      25A     -0.841227    26A     -0.829517    27A     -0.752525
      28A     -0.710427    29A     -0.675058    30A     -0.667945
      31A     -0.643398    32A     -0.634806    33A     -0.629988
      34A     -0.617048    35A     -0.607688    36A     -0.577217
      37A     -0.571203    38A     -0.542114    39A     -0.512448
      40A     -0.507676    41A     -0.482280    42A     -0.479866
      43A     -0.471212    44A     -0.428132    45A     -0.418608
      46A     -0.345743

  @DF-RHF Final Energy:  -905.30366711503393

   => Energetics <=

    Nuclear Repulsion Energy =            797.3319648455952802
    One-Electron Energy =               -2825.5587859542793012
    Two-Electron Energy =                1122.9231539936499757
    Total Energy =                       -905.3036671150339316
  Basis Set: (AUG-CC-PVTZ AUX)
    Blend: AUG-CC-PVTZ-RI
    Molecular point group: c1

    Geometry (in Angstrom), charge = 0, multiplicity = 1:

       Center              X                  Y                   Z               Mass
    ------------   -----------------  -----------------  -----------------  -----------------
         S            0.774519858218    -0.674647408752    -0.282359202338    31.972071174400
         O            0.753621858218    -1.826613408752     0.627709797662    15.994914619570
         O            1.149817858218    -0.802213408752    -1.685213202338    15.994914619570
         N            1.747380858218     0.487705591248     0.392543797662    14.003074004430
         N           -1.838252141782    -0.736247408752     0.489378797662    14.003074004430
         N           -1.316296141782     1.122063591248    -0.640980202338    14.003074004430
         C           -0.905985641782    -0.064190908752    -0.144205502338    12.000000000000
         C            1.471418858218     0.779359591248     1.802681797662    12.000000000000
         C            1.971109858218     1.687903591248    -0.428403202338    12.000000000000
         C           -2.985864141782     0.009889591248     0.427994797662    12.000000000000
         C           -2.637359141782     1.152797591248    -0.269332202338    12.000000000000
         H            1.359144858218    -0.156502408752     2.349096797662     1.007825032230
         H            0.573207858218     1.400466591248     1.926293797662     1.007825032230
         H            2.334145858218     1.317665591248     2.201051797662     1.007825032230
         H            2.181571858218     1.383722591248    -1.452231202338     1.007825032230
         H            2.846780858218     2.197849591248    -0.020316202338     1.007825032230
         H            1.105169858218     2.359597591248    -0.412028202338     1.007825032230
         H           -1.690073141782    -1.642771408752     0.923215797662     1.007825032230
         H           -3.915477141782    -0.322822408752     0.866174797662     1.007825032230
         H           -3.269928141782     1.992679591248    -0.523571202338     1.007825032230

  Basis Set: AUG-CC-PVTZ
    Blend: AUG-CC-PVTZ
  Basis Set: (AUG-CC-PVTZ AUX)
    Blend: AUG-CC-PVTZ-JKFIT
	 Reference Energy          =    -905.3036671150339316 [Eh]
	 Singles Energy            =      -0.0000000000000000 [Eh]
	 Same-Spin Energy          =      -0.5973465781308773 [Eh]
	 Opposite-Spin Energy      =      -1.7750505561691563 [Eh]
	 Correlation Energy        =      -2.3723971343000336 [Eh]
	 Total Energy              =    -907.6760642493339901 [Eh]

	 ================> DF-SCS-MP2 Energies <==================
	-----------------------------------------------------------
	 SCS Same-Spin Scale       =       0.3333333333333333 [-]
	 SCS Opposite-Spin Scale   =       1.2000000000000000 [-]
	 SCS Same-Spin Energy      =      -0.1991155260436258 [Eh]
	 SCS Opposite-Spin Energy  =      -2.1300606674029874 [Eh]
	 SCS Correlation Energy    =      -2.3291761934466133 [Eh]
	 SCS Total Energy          =    -907.6328433084805738 [Eh]
	-----------------------------------------------------------

  Dipole Moment: [D]
     X:    -2.6543      Y:     1.8418      Z:     3.5945     Total:     4.8330

*** Psi4 exiting successfully. Buy a developer a beer!
