                               Psi4 1.3.2 release

  ==> Input File <==

--------------------------------------------------------------------------
#psi4
#
memory 32 gb

molecule  {
0 1
  S        0.7637890    -0.7221230    -0.3122950
  O        0.7428910    -1.8740890     0.5977740
  O        1.1390870    -0.8496890    -1.7151490
  N        1.7597613     0.4236087     0.3572982
  N       -1.8489830    -0.7837230     0.4594430
  N       -1.3270270     1.0745880    -0.6709160
  C       -0.8811970    -0.0860610    -0.1982810
  C        1.4606880     0.7318840     1.7727460
  C        1.9603790     1.6404280    -0.4583390
  C       -2.9965950    -0.0375860     0.3980590
  C       -2.6480900     1.1053220    -0.2992680
  H        1.3484140    -0.2039780     2.3191610
  H        0.5624770     1.3529910     1.8963580
  H        2.3234150     1.2701900     2.1711160
  H        2.1708410     1.3362470    -1.4821670
  H        2.8360500     2.1503740    -0.0502520
  H        1.0944390     2.3121220    -0.4419640
  H       -1.7008040    -1.6902470     0.8932800
  H       -3.9262080    -0.3702980     0.8362390
  H       -3.2806590     1.9452040    -0.5535070
units angstrom
no_reorient  #important for SAPT in psi4, default
symmetry c1  #important for SAPT in psi4, default
}

set PROPERTIES_ORIGIN ["COM"]
properties('MP2/aug-cc-pvtz', properties = ['dipole'])
--------------------------------------------------------------------------

    Molecular point group: c1
  Charge       = 0
  Multiplicity = 1
  Basis Set: AUG-CC-PVTZ
    Blend: AUG-CC-PVTZ
  Basis Set: (AUG-CC-PVTZ AUX)
    Blend: AUG-CC-PVTZ-JKFIT

    Orbital Energies [Eh]
    ---------------------

    Doubly Occupied:

       1A    -92.214903     2A    -20.557597     3A    -20.554696
       4A    -15.655721     5A    -15.613203     6A    -15.587326
       7A    -11.338254     8A    -11.293767     9A    -11.276117
      10A    -11.273999    11A    -11.266456    12A     -9.179587
      13A     -6.864780    14A     -6.864404    15A     -6.863946
      16A     -1.463746    17A     -1.370521    18A     -1.344653
      19A     -1.254858    20A     -1.199223    21A     -1.050246
      22A     -0.979620    23A     -0.959225    24A     -0.878529
      25A     -0.841083    26A     -0.819028    27A     -0.752294
      28A     -0.709439    29A     -0.676062    30A     -0.667191
      31A     -0.641814    32A     -0.632938    33A     -0.625134
      34A     -0.616955    35A     -0.608552    36A     -0.577349
      37A     -0.571349    38A     -0.538345    39A     -0.512958
      40A     -0.507195    41A     -0.485319    42A     -0.479141
      43A     -0.471987    44A     -0.429811    45A     -0.421448
      46A     -0.346816

  @DF-RHF Final Energy:  -905.30515683710155

   => Energetics <=

    Nuclear Repulsion Energy =            797.0890673020893473
    One-Electron Energy =               -2825.1132726268292572
    Two-Electron Energy =                1122.7190484876382470
    Total Energy =                       -905.3051568371015492
  Basis Set: (AUG-CC-PVTZ AUX)
    Blend: AUG-CC-PVTZ-RI
    Molecular point group: c1

    Geometry (in Angstrom), charge = 0, multiplicity = 1:

       Center              X                  Y                   Z               Mass
    ------------   -----------------  -----------------  -----------------  -----------------
         S            0.770235942461    -0.675073117431    -0.280279525101    31.972071174400
         O            0.749337942461    -1.827039117431     0.629789474899    15.994914619570
         O            1.145533942461    -0.802639117431    -1.683133525101    15.994914619570
         N            1.766208242461     0.470658582569     0.389313674899    14.003074004430
         N           -1.842536057539    -0.736673117431     0.491458474899    14.003074004430
         N           -1.320580057539     1.121637882569    -0.638900525101    14.003074004430
         C           -0.874750057539    -0.039011117431    -0.166265525101    12.000000000000
         C            1.467134942461     0.778933882569     1.804761474899    12.000000000000
         C            1.966825942461     1.687477882569    -0.426323525101    12.000000000000
         C           -2.990148057539     0.009463882569     0.430074474899    12.000000000000
         C           -2.641643057539     1.152371882569    -0.267252525101    12.000000000000
         H            1.354860942461    -0.156928117431     2.351176474899     1.007825032230
         H            0.568923942461     1.400040882569     1.928373474899     1.007825032230
         H            2.329861942461     1.317239882569     2.203131474899     1.007825032230
         H            2.177287942461     1.383296882569    -1.450151525101     1.007825032230
         H            2.842496942461     2.197423882569    -0.018236525101     1.007825032230
         H            1.100885942461     2.359171882569    -0.409948525101     1.007825032230
         H           -1.694357057539    -1.643197117431     0.925295474899     1.007825032230
         H           -3.919761057539    -0.323248117431     0.868254474899     1.007825032230
         H           -3.274212057539     1.992253882569    -0.521491525101     1.007825032230

  Basis Set: AUG-CC-PVTZ
    Blend: AUG-CC-PVTZ
  Basis Set: (AUG-CC-PVTZ AUX)
    Blend: AUG-CC-PVTZ-JKFIT
	 Reference Energy          =    -905.3051568371015492 [Eh]
	 Singles Energy            =      -0.0000000000000000 [Eh]
	 Same-Spin Energy          =      -0.5974600677519449 [Eh]
	 Opposite-Spin Energy      =      -1.7757117113439360 [Eh]
	 Correlation Energy        =      -2.3731717790958808 [Eh]
	 Total Energy              =    -907.6783286161974047 [Eh]

	 ================> DF-SCS-MP2 Energies <==================
	-----------------------------------------------------------
	 SCS Same-Spin Scale       =       0.3333333333333333 [-]
	 SCS Opposite-Spin Scale   =       1.2000000000000000 [-]
	 SCS Same-Spin Energy      =      -0.1991533559173150 [Eh]
	 SCS Opposite-Spin Energy  =      -2.1308540536127230 [Eh]
	 SCS Correlation Energy    =      -2.3300074095300380 [Eh]
	 SCS Total Energy          =    -907.6351642466315752 [Eh]
	-----------------------------------------------------------

  Dipole Moment: [D]
     X:    -2.7558      Y:     1.9434      Z:     3.5921     Total:     4.9269

*** Psi4 exiting successfully. Buy a developer a beer!
