                               Psi4 1.3.2 release

  ==> Input File <==

--------------------------------------------------------------------------
#psi4
#
memory 32 gb

molecule  {
0 1
  S        0.7637890    -0.7221230    -0.3122950
  O        0.7428910    -1.8740890     0.5977740
  O        1.1390870    -0.8496890    -1.7151490
  N        1.7366500     0.4402300     0.3626080
  N       -1.8489830    -0.7837230     0.4594430
  N       -1.3270270     1.0745880    -0.6709160
  C       -0.8811970    -0.0860610    -0.1982810
  C        1.4606880     0.7318840     1.7727460
  C        1.9603790     1.6404280    -0.4583390
  C       -2.9965950    -0.0375860     0.3980590
  C       -2.6228992     1.1879343    -0.3496726
  H        1.3484140    -0.2039780     2.3191610
  H        0.5624770     1.3529910     1.8963580
  H        2.3234150     1.2701900     2.1711160
  H        2.1708410     1.3362470    -1.4821670
  H        2.8360500     2.1503740    -0.0502520
  H        1.0944390     2.3121220    -0.4419640
  H       -1.7008040    -1.6902470     0.8932800
  H       -3.9262080    -0.3702980     0.8362390
  H       -3.2806590     1.9452040    -0.5535070
units angstrom
no_reorient  #important for SAPT in psi4, default
symmetry c1  #important for SAPT in psi4, default
}

set PROPERTIES_ORIGIN ["COM"]
properties('MP2/aug-cc-pvtz', properties = ['dipole'])
--------------------------------------------------------------------------

    Molecular point group: c1
  Charge       = 0
  Multiplicity = 1
  Basis Set: AUG-CC-PVTZ
    Blend: AUG-CC-PVTZ
  Basis Set: (AUG-CC-PVTZ AUX)
    Blend: AUG-CC-PVTZ-JKFIT

    Orbital Energies [Eh]
    ---------------------

    Doubly Occupied:

       1A    -92.214521     2A    -20.557532     3A    -20.553988
       4A    -15.663171     5A    -15.609598     6A    -15.587701
       7A    -11.332527     8A    -11.303785     9A    -11.280834
      10A    -11.274300    11A    -11.265192    12A     -9.178872
      13A     -6.864098    14A     -6.863703    15A     -6.863292
      16A     -1.462843    17A     -1.367843    18A     -1.344048
      19A     -1.256591    20A     -1.207427    21A     -1.040376
      22A     -0.980648    23A     -0.955022    24A     -0.872615
      25A     -0.855478    26A     -0.817870    27A     -0.752366
      28A     -0.710472    29A     -0.677631    30A     -0.667677
      31A     -0.644992    32A     -0.641345    33A     -0.623487
      34A     -0.618986    35A     -0.610663    36A     -0.576459
      37A     -0.570055    38A     -0.540925    39A     -0.513211
      40A     -0.506946    41A     -0.481497    42A     -0.478719
      43A     -0.464191    44A     -0.437723    45A     -0.416584
      46A     -0.330046

  @DF-RHF Final Energy:  -905.29121731102350

   => Energetics <=

    Nuclear Repulsion Energy =            796.4717912114103910
    One-Electron Energy =               -2823.8503150089677547
    Two-Electron Energy =                1122.0873064865338620
    Total Energy =                       -905.2912173110235017
  Basis Set: (AUG-CC-PVTZ AUX)
    Blend: AUG-CC-PVTZ-RI
    Molecular point group: c1

    Geometry (in Angstrom), charge = 0, multiplicity = 1:

       Center              X                  Y                   Z               Mass
    ------------   -----------------  -----------------  -----------------  -----------------
         S            0.770357854342    -0.682066296536    -0.277248806483    31.972071174400
         O            0.749459854342    -1.834032296536     0.632820193517    15.994914619570
         O            1.145655854342    -0.809632296536    -1.680102806483    15.994914619570
         N            1.743218854342     0.480286703464     0.397654193517    14.003074004430
         N           -1.842414145658    -0.743666296536     0.494489193517    14.003074004430
         N           -1.320458145658     1.114644703464    -0.635869806483    14.003074004430
         C           -0.874628145658    -0.046004296536    -0.163234806483    12.000000000000
         C            1.467256854342     0.771940703464     1.807792193517    12.000000000000
         C            1.966947854342     1.680484703464    -0.423292806483    12.000000000000
         C           -2.990026145658     0.002470703464     0.433105193517    12.000000000000
         C           -2.616330345658     1.227991003464    -0.314626406483    12.000000000000
         H            1.354982854342    -0.163921296536     2.354207193517     1.007825032230
         H            0.569045854342     1.393047703464     1.931404193517     1.007825032230
         H            2.329983854342     1.310246703464     2.206162193517     1.007825032230
         H            2.177409854342     1.376303703464    -1.447120806483     1.007825032230
         H            2.842618854342     2.190430703464    -0.015205806483     1.007825032230
         H            1.101007854342     2.352178703464    -0.406917806483     1.007825032230
         H           -1.694235145658    -1.650190296536     0.928326193517     1.007825032230
         H           -3.919639145658    -0.330241296536     0.871285193517     1.007825032230
         H           -3.274090145658     1.985260703464    -0.518460806483     1.007825032230

  Basis Set: AUG-CC-PVTZ
    Blend: AUG-CC-PVTZ
  Basis Set: (AUG-CC-PVTZ AUX)
    Blend: AUG-CC-PVTZ-JKFIT
	 Reference Energy          =    -905.2912173110235017 [Eh]
	 Singles Energy            =      -0.0000000000000000 [Eh]
	 Same-Spin Energy          =      -0.5989424134298157 [Eh]
	 Opposite-Spin Energy      =      -1.7775867175487434 [Eh]
	 Correlation Energy        =      -2.3765291309785592 [Eh]
	 Total Energy              =    -907.6677464420021124 [Eh]

	 ================> DF-SCS-MP2 Energies <==================
	-----------------------------------------------------------
	 SCS Same-Spin Scale       =       0.3333333333333333 [-]
	 SCS Opposite-Spin Scale   =       1.2000000000000000 [-]
	 SCS Same-Spin Energy      =      -0.1996474711432719 [Eh]
	 SCS Opposite-Spin Energy  =      -2.1331040610584919 [Eh]
	 SCS Correlation Energy    =      -2.3327515322017640 [Eh]
	 SCS Total Energy          =    -907.6239688432252706 [Eh]
	-----------------------------------------------------------

  Dipole Moment: [D]
     X:    -2.7117      Y:     1.9742      Z:     3.5213     Total:     4.8631

*** Psi4 exiting successfully. Buy a developer a beer!
