                               Psi4 1.3.2 release

  ==> Input File <==

--------------------------------------------------------------------------
#psi4
#
memory 32 gb

molecule  {
0 1
  S        0.7248295    -0.8218893    -0.2510866
  O        0.7428910    -1.8740890     0.5977740
  O        1.1390870    -0.8496890    -1.7151490
  N        1.7366500     0.4402300     0.3626080
  N       -1.8489830    -0.7837230     0.4594430
  N       -1.3270270     1.0745880    -0.6709160
  C       -0.8811970    -0.0860610    -0.1982810
  C        1.4606880     0.7318840     1.7727460
  C        1.9603790     1.6404280    -0.4583390
  C       -2.9965950    -0.0375860     0.3980590
  C       -2.6480900     1.1053220    -0.2992680
  H        1.3484140    -0.2039780     2.3191610
  H        0.5624770     1.3529910     1.8963580
  H        2.3234150     1.2701900     2.1711160
  H        2.1708410     1.3362470    -1.4821670
  H        2.8360500     2.1503740    -0.0502520
  H        1.0944390     2.3121220    -0.4419640
  H       -1.7008040    -1.6902470     0.8932800
  H       -3.9262080    -0.3702980     0.8362390
  H       -3.2806590     1.9452040    -0.5535070
units angstrom
no_reorient  #important for SAPT in psi4, default
symmetry c1  #important for SAPT in psi4, default
}

set PROPERTIES_ORIGIN ["COM"]
properties('MP2/aug-cc-pvtz', properties = ['dipole'])
--------------------------------------------------------------------------

    Molecular point group: c1
  Charge       = 0
  Multiplicity = 1
  Basis Set: AUG-CC-PVTZ
    Blend: AUG-CC-PVTZ
  Basis Set: (AUG-CC-PVTZ AUX)
    Blend: AUG-CC-PVTZ-JKFIT

    Orbital Energies [Eh]
    ---------------------

    Doubly Occupied:

       1A    -92.213110     2A    -20.588599     3A    -20.543120
       4A    -15.657628     5A    -15.598941     6A    -15.588132
       7A    -11.339869     8A    -11.294090     9A    -11.275721
      10A    -11.267998    11A    -11.256584    12A     -9.180035
      13A     -6.865598    14A     -6.864814    15A     -6.863823
      16A     -1.520000    17A     -1.374110    18A     -1.337776
      19A     -1.233834    20A     -1.200693    21A     -1.052742
      22A     -0.971750    23A     -0.947252    24A     -0.872531
      25A     -0.845669    26A     -0.817827    27A     -0.758731
      28A     -0.719327    29A     -0.679081    30A     -0.675766
      31A     -0.644205    32A     -0.633353    33A     -0.625539
      34A     -0.619788    35A     -0.611243    36A     -0.586677
      37A     -0.563225    38A     -0.537727    39A     -0.530891
      40A     -0.514059    41A     -0.479968    42A     -0.475709
      43A     -0.460022    44A     -0.430600    45A     -0.402295
      46A     -0.346334

  @DF-RHF Final Energy:  -905.27996610617106

   => Energetics <=

    Nuclear Repulsion Energy =            797.0660264287394057
    One-Electron Energy =               -2824.9584197477829548
    Two-Electron Energy =                1122.6124272128724897
    Total Energy =                       -905.2799661061710594
  Basis Set: (AUG-CC-PVTZ AUX)
    Blend: AUG-CC-PVTZ-RI
    Molecular point group: c1

    Geometry (in Angstrom), charge = 0, multiplicity = 1:

       Center              X                  Y                   Z               Mass
    ------------   -----------------  -----------------  -----------------  -----------------
         S            0.740241429184    -0.757946365530    -0.230675871917    31.972071174400
         O            0.758302929184    -1.810146065530     0.618184728083    15.994914619570
         O            1.154498929184    -0.785746065530    -1.694738271917    15.994914619570
         N            1.752061929184     0.504172934470     0.383018728083    14.003074004430
         N           -1.833571070816    -0.719780065530     0.479853728083    14.003074004430
         N           -1.311615070816     1.138530934470    -0.650505271917    14.003074004430
         C           -0.865785070816    -0.022118065530    -0.177870271917    12.000000000000
         C            1.476099929184     0.795826934470     1.793156728083    12.000000000000
         C            1.975790929184     1.704370934470    -0.437928271917    12.000000000000
         C           -2.981183070816     0.026356934470     0.418469728083    12.000000000000
         C           -2.632678070816     1.169264934470    -0.278857271917    12.000000000000
         H            1.363825929184    -0.140035065530     2.339571728083     1.007825032230
         H            0.577888929184     1.416933934470     1.916768728083     1.007825032230
         H            2.338826929184     1.334132934470     2.191526728083     1.007825032230
         H            2.186252929184     1.400189934470    -1.461756271917     1.007825032230
         H            2.851461929184     2.214316934470    -0.029841271917     1.007825032230
         H            1.109850929184     2.376064934470    -0.421553271917     1.007825032230
         H           -1.685392070816    -1.626304065530     0.913690728083     1.007825032230
         H           -3.910796070816    -0.306355065530     0.856649728083     1.007825032230
         H           -3.265247070816     2.009146934470    -0.533096271917     1.007825032230

  Basis Set: AUG-CC-PVTZ
    Blend: AUG-CC-PVTZ
  Basis Set: (AUG-CC-PVTZ AUX)
    Blend: AUG-CC-PVTZ-JKFIT
	 Reference Energy          =    -905.2799661061710594 [Eh]
	 Singles Energy            =      -0.0000000000000000 [Eh]
	 Same-Spin Energy          =      -0.5967596342294750 [Eh]
	 Opposite-Spin Energy      =      -1.7748716420940935 [Eh]
	 Correlation Energy        =      -2.3716312763235683 [Eh]
	 Total Energy              =    -907.6515973824946286 [Eh]

	 ================> DF-SCS-MP2 Energies <==================
	-----------------------------------------------------------
	 SCS Same-Spin Scale       =       0.3333333333333333 [-]
	 SCS Opposite-Spin Scale   =       1.2000000000000000 [-]
	 SCS Same-Spin Energy      =      -0.1989198780764916 [Eh]
	 SCS Opposite-Spin Energy  =      -2.1298459705129122 [Eh]
	 SCS Correlation Energy    =      -2.3287658485894038 [Eh]
	 SCS Total Energy          =    -907.6087319547605148 [Eh]
	-----------------------------------------------------------

  Dipole Moment: [D]
     X:    -3.1376      Y:     0.9835      Z:     3.9977     Total:     5.1763

*** Psi4 exiting successfully. Buy a developer a beer!
