                               Psi4 1.4a3.dev225

  ==> Input File <==

--------------------------------------------------------------------------
#psi4
#
memory 32 gb

molecule  {
0 1
  S        0.7637890    -0.7221230    -0.3122950
  O        0.7428910    -1.8740890     0.5977740
  O        1.1442359    -0.8514391    -1.7343955
  N        1.7366500     0.4402300     0.3626080
  N       -1.8489830    -0.7837230     0.4594430
  N       -1.3270270     1.0745880    -0.6709160
  C       -0.8811970    -0.0860610    -0.1982810
  C        1.4606880     0.7318840     1.7727460
  C        1.9603790     1.6404280    -0.4583390
  C       -2.9965950    -0.0375860     0.3980590
  C       -2.6480900     1.1053220    -0.2992680
  H        1.3484140    -0.2039780     2.3191610
  H        0.5624770     1.3529910     1.8963580
  H        2.3234150     1.2701900     2.1711160
  H        2.1708410     1.3362470    -1.4821670
  H        2.8360500     2.1503740    -0.0502520
  H        1.0944390     2.3121220    -0.4419640
  H       -1.7008040    -1.6902470     0.8932800
  H       -3.9262080    -0.3702980     0.8362390
  H       -3.2806590     1.9452040    -0.5535070
units angstrom
no_reorient  #important for SAPT in psi4, default
symmetry c1  #important for SAPT in psi4, default
}

set PROPERTIES_ORIGIN ["COM"]
properties('MP2/aug-cc-pvtz', properties = ['dipole'])
--------------------------------------------------------------------------

    Molecular point group: c1
  Charge       = 0
  Multiplicity = 1
  Basis Set: AUG-CC-PVTZ
    Blend: AUG-CC-PVTZ
  Basis Set: (AUG-CC-PVTZ AUX)
    Blend: AUG-CC-PVTZ-JKFIT

    Orbital Energies [Eh]
    ---------------------

    Doubly Occupied:

       1A    -92.217420     2A    -20.559943     3A    -20.555420
       4A    -15.655826     5A    -15.612452     6A    -15.587296
       7A    -11.338521     8A    -11.293721     9A    -11.275998
      10A    -11.274029    11A    -11.266290    12A     -9.181677
      13A     -6.866906    14A     -6.866500    15A     -6.865914
      16A     -1.459078    17A     -1.370186    18A     -1.340131
      19A     -1.258318    20A     -1.199284    21A     -1.050728
      22A     -0.982208    23A     -0.961151    24A     -0.877477
      25A     -0.841127    26A     -0.818991    27A     -0.753130
      28A     -0.709752    29A     -0.676758    30A     -0.667546
      31A     -0.642214    32A     -0.633096    33A     -0.625644
      34A     -0.616904    35A     -0.607833    36A     -0.576759
      37A     -0.571475    38A     -0.542356    39A     -0.512176
      40A     -0.505882    41A     -0.485261    42A     -0.477842
      43A     -0.471450    44A     -0.429769    45A     -0.418689
      46A     -0.346642

  @DF-RHF Final Energy:  -905.30317675478511

   => Energetics <=

    Nuclear Repulsion Energy =            796.4513081621830679
    One-Electron Energy =               -2823.8134291177243540
    Two-Electron Energy =                1122.0589442007562866
    Total Energy =                       -905.3031767547849995
  Basis Set: (AUG-CC-PVTZ AUX)
    Blend: AUG-CC-PVTZ-RI
    Molecular point group: c1

    Geometry (in Angstrom), charge = 0, multiplicity = 1:

       Center              X                  Y                   Z               Mass
    ------------   -----------------  -----------------  -----------------  -----------------
         S            0.771614318233    -0.676242877391    -0.278945598357    31.972071174400
         O            0.750716318233    -1.828208877391     0.631123401643    15.994914619570
         O            1.152061218233    -0.805558977391    -1.701046098357    15.994914619570
         N            1.744475318233     0.486110122609     0.395957401643    14.003074004430
         N           -1.841157681767    -0.737842877391     0.492792401643    14.003074004430
         N           -1.319201681767     1.120468122609    -0.637566598357    14.003074004430
         C           -0.873371681767    -0.040180877391    -0.164931598357    12.000000000000
         C            1.468513318233     0.777764122609     1.806095401643    12.000000000000
         C            1.968204318233     1.686308122609    -0.424989598357    12.000000000000
         C           -2.988769681767     0.008294122609     0.431408401643    12.000000000000
         C           -2.640264681767     1.151202122609    -0.265918598357    12.000000000000
         H            1.356239318233    -0.158097877391     2.352510401643     1.007825032230
         H            0.570302318233     1.398871122609     1.929707401643     1.007825032230
         H            2.331240318233     1.316070122609     2.204465401643     1.007825032230
         H            2.178666318233     1.382127122609    -1.448817598357     1.007825032230
         H            2.843875318233     2.196254122609    -0.016902598357     1.007825032230
         H            1.102264318233     2.358002122609    -0.408614598357     1.007825032230
         H           -1.692978681767    -1.644366877391     0.926629401643     1.007825032230
         H           -3.918382681767    -0.324417877391     0.869588401643     1.007825032230
         H           -3.272833681767     1.991084122609    -0.520157598357     1.007825032230

  Basis Set: AUG-CC-PVTZ
    Blend: AUG-CC-PVTZ
  Basis Set: (AUG-CC-PVTZ AUX)
    Blend: AUG-CC-PVTZ-JKFIT
	 Reference Energy          =    -905.3031767547851132 [Eh]
	 Singles Energy            =      -0.0000000000000000 [Eh]
	 Same-Spin Energy          =      -0.5979224220130042 [Eh]
	 Opposite-Spin Energy      =      -1.7765400479801094 [Eh]
	 Correlation Energy        =      -2.3744624699931136 [Eh]
	 Total Energy              =    -907.6776392247782042 [Eh]

	 ================> DF-SCS-MP2 Energies <==================
	-----------------------------------------------------------
	 SCS Same-Spin Scale       =       0.3333333333333333 [-]
	 SCS Opposite-Spin Scale   =       1.2000000000000000 [-]
	 SCS Same-Spin Energy      =      -0.1993074740043347 [Eh]
	 SCS Opposite-Spin Energy  =      -2.1318480575761312 [Eh]
	 SCS Correlation Energy    =      -2.3311555315804657 [Eh]
	 SCS Total Energy          =    -907.6343322863656340 [Eh]
	-----------------------------------------------------------

  Dipole Moment: [D]
     X:    -2.7216      Y:     1.9164      Z:     3.6672     Total:     4.9526

*** Psi4 exiting successfully. Buy a developer a beer!
