                               Psi4 1.3.2 release

  ==> Input File <==

--------------------------------------------------------------------------
#psi4
#
memory 32 gb

molecule  {
0 1
  S        0.7637890    -0.7221230    -0.3122950
  O        0.7127289    -1.8102817     0.6720786
  O        1.1390870    -0.8496890    -1.7151490
  N        1.7366500     0.4402300     0.3626080
  N       -1.8489830    -0.7837230     0.4594430
  N       -1.3270270     1.0745880    -0.6709160
  C       -0.8811970    -0.0860610    -0.1982810
  C        1.4606880     0.7318840     1.7727460
  C        1.9603790     1.6404280    -0.4583390
  C       -2.9965950    -0.0375860     0.3980590
  C       -2.6480900     1.1053220    -0.2992680
  H        1.3484140    -0.2039780     2.3191610
  H        0.5624770     1.3529910     1.8963580
  H        2.3234150     1.2701900     2.1711160
  H        2.1708410     1.3362470    -1.4821670
  H        2.8360500     2.1503740    -0.0502520
  H        1.0944390     2.3121220    -0.4419640
  H       -1.7008040    -1.6902470     0.8932800
  H       -3.9262080    -0.3702980     0.8362390
  H       -3.2806590     1.9452040    -0.5535070
units angstrom
no_reorient  #important for SAPT in psi4, default
symmetry c1  #important for SAPT in psi4, default
}

set PROPERTIES_ORIGIN ["COM"]
properties('MP2/aug-cc-pvtz', properties = ['dipole'])
--------------------------------------------------------------------------

    Molecular point group: c1
  Charge       = 0
  Multiplicity = 1
  Basis Set: AUG-CC-PVTZ
    Blend: AUG-CC-PVTZ
  Basis Set: (AUG-CC-PVTZ AUX)
    Blend: AUG-CC-PVTZ-JKFIT

    Orbital Energies [Eh]
    ---------------------

    Doubly Occupied:

       1A    -92.217158     2A    -20.562444     3A    -20.559055
       4A    -15.653246     5A    -15.609512     6A    -15.584867
       7A    -11.335401     8A    -11.291637     9A    -11.272758
      10A    -11.271971    11A    -11.264884    12A     -9.181543
      13A     -6.866750    14A     -6.866483    15A     -6.865865
      16A     -1.466464    17A     -1.368691    18A     -1.351177
      19A     -1.255588    20A     -1.196989    21A     -1.047904
      22A     -0.979961    23A     -0.958404    24A     -0.876041
      25A     -0.839020    26A     -0.816873    27A     -0.753003
      28A     -0.712009    29A     -0.676041    30A     -0.669648
      31A     -0.641220    32A     -0.631235    33A     -0.623949
      34A     -0.616893    35A     -0.609336    36A     -0.574875
      37A     -0.569684    38A     -0.540822    39A     -0.514635
      40A     -0.512831    41A     -0.484533    42A     -0.483875
      43A     -0.470280    44A     -0.427825    45A     -0.416439
      46A     -0.344555

  @DF-RHF Final Energy:  -905.30337544981739

   => Energetics <=

    Nuclear Repulsion Energy =            798.4137275077868026
    One-Electron Energy =               -2827.7654629136595759
    Two-Electron Energy =                1124.0483599560552648
    Total Energy =                       -905.3033754498173948
  Basis Set: (AUG-CC-PVTZ AUX)
    Blend: AUG-CC-PVTZ-RI
    Molecular point group: c1

    Geometry (in Angstrom), charge = 0, multiplicity = 1:

       Center              X                  Y                   Z               Mass
    ------------   -----------------  -----------------  -----------------  -----------------
         S            0.774840960350    -0.682233369531    -0.287494093709    31.972071174400
         O            0.723780860350    -1.770392069531     0.696879506291    15.994914619570
         O            1.150138960350    -0.809799369531    -1.690348093709    15.994914619570
         N            1.747701960350     0.480119630469     0.387408906291    14.003074004430
         N           -1.837931039650    -0.743833369531     0.484243906291    14.003074004430
         N           -1.315975039650     1.114477630469    -0.646115093709    14.003074004430
         C           -0.870145039650    -0.046171369531    -0.173480093709    12.000000000000
         C            1.471739960350     0.771773630469     1.797546906291    12.000000000000
         C            1.971430960350     1.680317630469    -0.433538093709    12.000000000000
         C           -2.985543039650     0.002303630469     0.422859906291    12.000000000000
         C           -2.637038039650     1.145211630469    -0.274467093709    12.000000000000
         H            1.359465960350    -0.164088369531     2.343961906291     1.007825032230
         H            0.573528960350     1.392880630469     1.921158906291     1.007825032230
         H            2.334466960350     1.310079630469     2.195916906291     1.007825032230
         H            2.181892960350     1.376136630469    -1.457366093709     1.007825032230
         H            2.847101960350     2.190263630469    -0.025451093709     1.007825032230
         H            1.105490960350     2.352011630469    -0.417163093709     1.007825032230
         H           -1.689752039650    -1.650357369531     0.918080906291     1.007825032230
         H           -3.915156039650    -0.330408369531     0.861039906291     1.007825032230
         H           -3.269607039650     1.985093630469    -0.528706093709     1.007825032230

  Basis Set: AUG-CC-PVTZ
    Blend: AUG-CC-PVTZ
  Basis Set: (AUG-CC-PVTZ AUX)
    Blend: AUG-CC-PVTZ-JKFIT
	 Reference Energy          =    -905.3033754498173948 [Eh]
	 Singles Energy            =      -0.0000000000000000 [Eh]
	 Same-Spin Energy          =      -0.5979167939076053 [Eh]
	 Opposite-Spin Energy      =      -1.7762281771074140 [Eh]
	 Correlation Energy        =      -2.3741449710150193 [Eh]
	 Total Energy              =    -907.6775204208323657 [Eh]

	 ================> DF-SCS-MP2 Energies <==================
	-----------------------------------------------------------
	 SCS Same-Spin Scale       =       0.3333333333333333 [-]
	 SCS Opposite-Spin Scale   =       1.2000000000000000 [-]
	 SCS Same-Spin Energy      =      -0.1993055979692018 [Eh]
	 SCS Opposite-Spin Energy  =      -2.1314738125288968 [Eh]
	 SCS Correlation Energy    =      -2.3307794104980983 [Eh]
	 SCS Total Energy          =    -907.6341548603154479 [Eh]
	-----------------------------------------------------------

  Dipole Moment: [D]
     X:    -2.5684      Y:     1.7064      Z:     3.3784     Total:     4.5740

*** Psi4 exiting successfully. Buy a developer a beer!
