                               Psi4 1.3.2 release

  ==> Input File <==

--------------------------------------------------------------------------
#psi4
#
memory 32 gb

molecule  {
0 1
  S        0.7637890    -0.7221230    -0.3122950
  O        0.7428910    -1.8740890     0.5977740
  O        1.1390870    -0.8496890    -1.7151490
  N        1.7366500     0.4402300     0.3626080
  N       -1.8489830    -0.7837230     0.4594430
  N       -1.3489542     1.2029210    -0.7316970
  C       -0.8811970    -0.0860610    -0.1982810
  C        1.4606880     0.7318840     1.7727460
  C        1.9603790     1.6404280    -0.4583390
  C       -2.9965950    -0.0375860     0.3980590
  C       -2.6480900     1.1053220    -0.2992680
  H        1.3484140    -0.2039780     2.3191610
  H        0.5624770     1.3529910     1.8963580
  H        2.3234150     1.2701900     2.1711160
  H        2.1708410     1.3362470    -1.4821670
  H        2.8360500     2.1503740    -0.0502520
  H        1.0944390     2.3121220    -0.4419640
  H       -1.7008040    -1.6902470     0.8932800
  H       -3.9262080    -0.3702980     0.8362390
  H       -3.2806590     1.9452040    -0.5535070
units angstrom
no_reorient  #important for SAPT in psi4, default
symmetry c1  #important for SAPT in psi4, default
}

set PROPERTIES_ORIGIN ["COM"]
properties('MP2/aug-cc-pvtz', properties = ['dipole'])
--------------------------------------------------------------------------

    Molecular point group: c1
  Charge       = 0
  Multiplicity = 1
  Basis Set: AUG-CC-PVTZ
    Blend: AUG-CC-PVTZ
  Basis Set: (AUG-CC-PVTZ AUX)
    Blend: AUG-CC-PVTZ-JKFIT

    Orbital Energies [Eh]
    ---------------------

    Doubly Occupied:

       1A    -92.216883     2A    -20.559231     3A    -20.556160
       4A    -15.672447     5A    -15.611556     6A    -15.605877
       7A    -11.351555     8A    -11.291504     9A    -11.277763
      10A    -11.275201    11A    -11.265885    12A     -9.181169
      13A     -6.866394    14A     -6.866016    15A     -6.865574
      16A     -1.464460    17A     -1.359640    18A     -1.345158
      19A     -1.258034    20A     -1.188485    21A     -1.043395
      22A     -0.981651    23A     -0.959907    24A     -0.885171
      25A     -0.834415    26A     -0.818172    27A     -0.750436
      28A     -0.710390    29A     -0.672792    30A     -0.668381
      31A     -0.640962    32A     -0.636448    33A     -0.621876
      34A     -0.613694    35A     -0.592171    36A     -0.575965
      37A     -0.570833    38A     -0.541949    39A     -0.513617
      40A     -0.508781    41A     -0.489622    42A     -0.480575
      43A     -0.474785    44A     -0.427717    45A     -0.419702
      46A     -0.337264

  @DF-RHF Final Energy:  -905.27593309494614

   => Energetics <=

    Nuclear Repulsion Energy =            793.3045599614454204
    One-Electron Energy =               -2817.4616571920360002
    Two-Electron Energy =                1118.8811641356444397
    Total Energy =                       -905.2759330949461400
  Basis Set: (AUG-CC-PVTZ AUX)
    Blend: AUG-CC-PVTZ-RI
    Molecular point group: c1

    Geometry (in Angstrom), charge = 0, multiplicity = 1:

       Center              X                  Y                   Z               Mass
    ------------   -----------------  -----------------  -----------------  -----------------
         S            0.773838958184    -0.686669254558    -0.275841908267    31.972071174400
         O            0.752940958184    -1.838635254558     0.634227091733    15.994914619570
         O            1.149136958184    -0.814235254558    -1.678695908267    15.994914619570
         N            1.746699958184     0.475683745442     0.399061091733    14.003074004430
         N           -1.838933041816    -0.748269254558     0.495896091733    14.003074004430
         N           -1.338904241816     1.238374745442    -0.695243908267    14.003074004430
         C           -0.871147041816    -0.050607254558    -0.161827908267    12.000000000000
         C            1.470737958184     0.767337745442     1.809199091733    12.000000000000
         C            1.970428958184     1.675881745442    -0.421885908267    12.000000000000
         C           -2.986545041816    -0.002132254558     0.434512091733    12.000000000000
         C           -2.638040041816     1.140775745442    -0.262814908267    12.000000000000
         H            1.358463958184    -0.168524254558     2.355614091733     1.007825032230
         H            0.572526958184     1.388444745442     1.932811091733     1.007825032230
         H            2.333464958184     1.305643745442     2.207569091733     1.007825032230
         H            2.180890958184     1.371700745442    -1.445713908267     1.007825032230
         H            2.846099958184     2.185827745442    -0.013798908267     1.007825032230
         H            1.104488958184     2.347575745442    -0.405510908267     1.007825032230
         H           -1.690754041816    -1.654793254558     0.929733091733     1.007825032230
         H           -3.916158041816    -0.334844254558     0.872692091733     1.007825032230
         H           -3.270609041816     1.980657745442    -0.517053908267     1.007825032230

  Basis Set: AUG-CC-PVTZ
    Blend: AUG-CC-PVTZ
  Basis Set: (AUG-CC-PVTZ AUX)
    Blend: AUG-CC-PVTZ-JKFIT
	 Reference Energy          =    -905.2759330949461400 [Eh]
	 Singles Energy            =      -0.0000000000000000 [Eh]
	 Same-Spin Energy          =      -0.6012758362440039 [Eh]
	 Opposite-Spin Energy      =      -1.7837170017891228 [Eh]
	 Correlation Energy        =      -2.3849928380331269 [Eh]
	 Total Energy              =    -907.6609259329792394 [Eh]

	 ================> DF-SCS-MP2 Energies <==================
	-----------------------------------------------------------
	 SCS Same-Spin Scale       =       0.3333333333333333 [-]
	 SCS Opposite-Spin Scale   =       1.2000000000000000 [-]
	 SCS Same-Spin Energy      =      -0.2004252787480013 [Eh]
	 SCS Opposite-Spin Energy  =      -2.1404604021469473 [Eh]
	 SCS Correlation Energy    =      -2.3408856808949485 [Eh]
	 SCS Total Energy          =    -907.6168187758411250 [Eh]
	-----------------------------------------------------------

  Dipole Moment: [D]
     X:    -2.7741      Y:     1.6863      Z:     3.6897     Total:     4.9146

*** Psi4 exiting successfully. Buy a developer a beer!
