                               Psi4 1.4a3.dev225

  ==> Input File <==

--------------------------------------------------------------------------
#psi4
#
memory 32 gb

molecule  {
0 1
  S        0.7637890    -0.7221230    -0.3122950
  O        0.7428910    -1.8740890     0.5977740
  O        1.1390870    -0.8496890    -1.7151490
  N        1.7366500     0.4402300     0.3626080
  N       -1.8489830    -0.7837230     0.4594430
  N       -1.3270270     1.0745880    -0.6709160
  C       -0.8811970    -0.0860610    -0.1982810
  C        1.4606880     0.7318840     1.7727460
  C        1.9603790     1.6404280    -0.4583390
  C       -2.9965950    -0.0375860     0.3980590
  C       -2.6673378     1.1057698    -0.2938531
  H        1.3484140    -0.2039780     2.3191610
  H        0.5624770     1.3529910     1.8963580
  H        2.3234150     1.2701900     2.1711160
  H        2.1708410     1.3362470    -1.4821670
  H        2.8360500     2.1503740    -0.0502520
  H        1.0944390     2.3121220    -0.4419640
  H       -1.7008040    -1.6902470     0.8932800
  H       -3.9262080    -0.3702980     0.8362390
  H       -3.2806590     1.9452040    -0.5535070
units angstrom
no_reorient  #important for SAPT in psi4, default
symmetry c1  #important for SAPT in psi4, default
}

set PROPERTIES_ORIGIN ["COM"]
properties('MP2/aug-cc-pvtz', properties = ['dipole'])
--------------------------------------------------------------------------

    Molecular point group: c1
  Charge       = 0
  Multiplicity = 1
  Basis Set: AUG-CC-PVTZ
    Blend: AUG-CC-PVTZ
  Basis Set: (AUG-CC-PVTZ AUX)
    Blend: AUG-CC-PVTZ-JKFIT

    Orbital Energies [Eh]
    ---------------------

    Doubly Occupied:

       1A    -92.216103     2A    -20.558784     3A    -20.556161
       4A    -15.653779     5A    -15.611519     6A    -15.587161
       7A    -11.338141     8A    -11.293274     9A    -11.275347
      10A    -11.273182    11A    -11.266116    12A     -9.180640
      13A     -6.865860    14A     -6.865451    15A     -6.865029
      16A     -1.464573    17A     -1.367826    18A     -1.345589
      19A     -1.258165    20A     -1.194181    21A     -1.051155
      22A     -0.981782    23A     -0.960578    24A     -0.876839
      25A     -0.840435    26A     -0.817792    27A     -0.752926
      28A     -0.710730    29A     -0.676703    30A     -0.668222
      31A     -0.642482    32A     -0.632390    33A     -0.624664
      34A     -0.618008    35A     -0.608515    36A     -0.577293
      37A     -0.571146    38A     -0.542011    39A     -0.514300
      40A     -0.508078    41A     -0.486021    42A     -0.480216
      43A     -0.470489    44A     -0.426294    45A     -0.417881
      46A     -0.348592

  @DF-RHF Final Energy:  -905.30560278151677

   => Energetics <=

    Nuclear Repulsion Energy =            797.0930377636241246
    One-Electron Energy =               -2825.1124360475291724
    Two-Electron Energy =                1122.7137955023881659
    Total Energy =                       -905.3056027815168818
  Basis Set: (AUG-CC-PVTZ AUX)
    Blend: AUG-CC-PVTZ-RI
    Molecular point group: c1

    Geometry (in Angstrom), charge = 0, multiplicity = 1:

       Center              X                  Y                   Z               Mass
    ------------   -----------------  -----------------  -----------------  -----------------
         S            0.773404349342    -0.676433496707    -0.281075520818    31.972071174400
         O            0.752506349342    -1.828399496707     0.628993479182    15.994914619570
         O            1.148702349342    -0.803999496707    -1.683929520818    15.994914619570
         N            1.746265349342     0.485919503293     0.393827479182    14.003074004430
         N           -1.839367650658    -0.738033496707     0.490662479182    14.003074004430
         N           -1.317411650658     1.120277503293    -0.639696520818    14.003074004430
         C           -0.871581650658    -0.040371496707    -0.167061520818    12.000000000000
         C            1.470303349342     0.777573503293     1.803965479182    12.000000000000
         C            1.969994349342     1.686117503293    -0.427119520818    12.000000000000
         C           -2.986979650658     0.008103503293     0.429278479182    12.000000000000
         C           -2.657722450658     1.151459303293    -0.262633620818    12.000000000000
         H            1.358029349342    -0.158288496707     2.350380479182     1.007825032230
         H            0.572092349342     1.398680503293     1.927577479182     1.007825032230
         H            2.333030349342     1.315879503293     2.202335479182     1.007825032230
         H            2.180456349342     1.381936503293    -1.450947520818     1.007825032230
         H            2.845665349342     2.196063503293    -0.019032520818     1.007825032230
         H            1.104054349342     2.357811503293    -0.410744520818     1.007825032230
         H           -1.691188650658    -1.644557496707     0.924499479182     1.007825032230
         H           -3.916592650658    -0.324608496707     0.867458479182     1.007825032230
         H           -3.271043650658     1.990893503293    -0.522287520818     1.007825032230

  Basis Set: AUG-CC-PVTZ
    Blend: AUG-CC-PVTZ
  Basis Set: (AUG-CC-PVTZ AUX)
    Blend: AUG-CC-PVTZ-JKFIT
	 Reference Energy          =    -905.3056027815167681 [Eh]
	 Singles Energy            =      -0.0000000000000000 [Eh]
	 Same-Spin Energy          =      -0.5972399313977222 [Eh]
	 Opposite-Spin Energy      =      -1.7754829822251015 [Eh]
	 Correlation Energy        =      -2.3727229136228236 [Eh]
	 Total Energy              =    -907.6783256951396197 [Eh]

	 ================> DF-SCS-MP2 Energies <==================
	-----------------------------------------------------------
	 SCS Same-Spin Scale       =       0.3333333333333333 [-]
	 SCS Opposite-Spin Scale   =       1.2000000000000000 [-]
	 SCS Same-Spin Energy      =      -0.1990799771325741 [Eh]
	 SCS Opposite-Spin Energy  =      -2.1305795786701216 [Eh]
	 SCS Correlation Energy    =      -2.3296595558026958 [Eh]
	 SCS Total Energy          =    -907.6352623373194319 [Eh]
	-----------------------------------------------------------

  Dipole Moment: [D]
     X:    -2.6776      Y:     1.8915      Z:     3.5709     Total:     4.8475

*** Psi4 exiting successfully. Buy a developer a beer!
