                               Psi4 1.4a3.dev225

  ==> Input File <==

--------------------------------------------------------------------------
#psi4
#
memory 32 gb

molecule  {
0 1
  S        0.7637890    -0.7221230    -0.3122950
  O        0.7428910    -1.8740890     0.5977740
  O        1.1390870    -0.8496890    -1.7151490
  N        1.7366500     0.4402300     0.3626080
  N       -1.8489830    -0.7837230     0.4594430
  N       -1.3270270     1.0745880    -0.6709160
  C       -0.8811970    -0.0860610    -0.1982810
  C        1.4606880     0.7318840     1.7727460
  C        1.9603790     1.6404280    -0.4583390
  C       -3.0384719    -0.0103591     0.3958191
  C       -2.6480900     1.1053220    -0.2992680
  H        1.3484140    -0.2039780     2.3191610
  H        0.5624770     1.3529910     1.8963580
  H        2.3234150     1.2701900     2.1711160
  H        2.1708410     1.3362470    -1.4821670
  H        2.8360500     2.1503740    -0.0502520
  H        1.0944390     2.3121220    -0.4419640
  H       -1.7008040    -1.6902470     0.8932800
  H       -3.9262080    -0.3702980     0.8362390
  H       -3.2806590     1.9452040    -0.5535070
units angstrom
no_reorient  #important for SAPT in psi4, default
symmetry c1  #important for SAPT in psi4, default
}

set PROPERTIES_ORIGIN ["COM"]
properties('MP2/aug-cc-pvtz', properties = ['dipole'])
--------------------------------------------------------------------------

    Molecular point group: c1
  Charge       = 0
  Multiplicity = 1
  Basis Set: AUG-CC-PVTZ
    Blend: AUG-CC-PVTZ
  Basis Set: (AUG-CC-PVTZ AUX)
    Blend: AUG-CC-PVTZ-JKFIT

    Orbital Energies [Eh]
    ---------------------

    Doubly Occupied:

       1A    -92.216920     2A    -20.559166     3A    -20.557144
       4A    -15.651583     5A    -15.612388     6A    -15.585069
       7A    -11.341587     8A    -11.292569     9A    -11.275803
      10A    -11.275396    11A    -11.266696    12A     -9.181491
      13A     -6.866718    14A     -6.866294    15A     -6.865869
      16A     -1.465178    17A     -1.360702    18A     -1.346017
      19A     -1.258851    20A     -1.191860    21A     -1.051594
      22A     -0.982341    23A     -0.962124    24A     -0.879008
      25A     -0.837025    26A     -0.814569    27A     -0.752738
      28A     -0.710827    29A     -0.673721    30A     -0.669526
      31A     -0.642662    32A     -0.640181    33A     -0.621959
      34A     -0.613713    35A     -0.604737    36A     -0.577576
      37A     -0.571570    38A     -0.542542    39A     -0.514865
      40A     -0.508222    41A     -0.486693    42A     -0.480703
      43A     -0.471973    44A     -0.425076    45A     -0.418809
      46A     -0.351084

  @DF-RHF Final Energy:  -905.30272742548391

   => Energetics <=

    Nuclear Repulsion Energy =            796.4788885580139777
    One-Electron Energy =               -2823.8769541096057765
    Two-Electron Energy =                1122.0953381261078903
    Total Energy =                       -905.3027274254839085
  Basis Set: (AUG-CC-PVTZ AUX)
    Blend: AUG-CC-PVTZ-RI
    Molecular point group: c1

    Geometry (in Angstrom), charge = 0, multiplicity = 1:

       Center              X                  Y                   Z               Mass
    ------------   -----------------  -----------------  -----------------  -----------------
         S            0.774955690744    -0.678269341992    -0.280550744837    31.972071174400
         O            0.754057690744    -1.830235341992     0.629518255163    15.994914619570
         O            1.150253690744    -0.805835341992    -1.683404744837    15.994914619570
         N            1.747816690744     0.484083658008     0.394352255163    14.003074004430
         N           -1.837816309256    -0.739869341992     0.491187255163    14.003074004430
         N           -1.315860309256     1.118441658008    -0.639171744837    14.003074004430
         C           -0.870030309256    -0.042207341992    -0.166536744837    12.000000000000
         C            1.471854690744     0.775737658008     1.804490255163    12.000000000000
         C            1.971545690744     1.684281658008    -0.426594744837    12.000000000000
         C           -3.027305209256     0.033494558008     0.427563355163    12.000000000000
         C           -2.636923309256     1.149175658008    -0.267523744837    12.000000000000
         H            1.359580690744    -0.160124341992     2.350905255163     1.007825032230
         H            0.573643690744     1.396844658008     1.928102255163     1.007825032230
         H            2.334581690744     1.314043658008     2.202860255163     1.007825032230
         H            2.182007690744     1.380100658008    -1.450422744837     1.007825032230
         H            2.847216690744     2.194227658008    -0.018507744837     1.007825032230
         H            1.105605690744     2.355975658008    -0.410219744837     1.007825032230
         H           -1.689637309256    -1.646393341992     0.925024255163     1.007825032230
         H           -3.915041309256    -0.326444341992     0.867983255163     1.007825032230
         H           -3.269492309256     1.989057658008    -0.521762744837     1.007825032230

  Basis Set: AUG-CC-PVTZ
    Blend: AUG-CC-PVTZ
  Basis Set: (AUG-CC-PVTZ AUX)
    Blend: AUG-CC-PVTZ-JKFIT
	 Reference Energy          =    -905.3027274254839085 [Eh]
	 Singles Energy            =      -0.0000000000000000 [Eh]
	 Same-Spin Energy          =      -0.5971258437276480 [Eh]
	 Opposite-Spin Energy      =      -1.7758515618930293 [Eh]
	 Correlation Energy        =      -2.3729774056206772 [Eh]
	 Total Energy              =    -907.6757048311045537 [Eh]

	 ================> DF-SCS-MP2 Energies <==================
	-----------------------------------------------------------
	 SCS Same-Spin Scale       =       0.3333333333333333 [-]
	 SCS Opposite-Spin Scale   =       1.2000000000000000 [-]
	 SCS Same-Spin Energy      =      -0.1990419479092160 [Eh]
	 SCS Opposite-Spin Energy  =      -2.1310218742716351 [Eh]
	 SCS Correlation Energy    =      -2.3300638221808510 [Eh]
	 SCS Total Energy          =    -907.6327912476647271 [Eh]
	-----------------------------------------------------------

  Dipole Moment: [D]
     X:    -2.6588      Y:     1.9312      Z:     3.5517     Total:     4.8388

*** Psi4 exiting successfully. Buy a developer a beer!
