                               Psi4 1.3.2 release

  ==> Input File <==

--------------------------------------------------------------------------
#psi4
#
memory 32 gb

molecule  {
0 1
  S        0.7637890    -0.7221230    -0.3122950
  O        0.7428910    -1.8740890     0.5977740
  O        1.1390870    -0.8496890    -1.7151490
  N        1.6780164     0.3701759     0.3219321
  N       -1.8489830    -0.7837230     0.4594430
  N       -1.3270270     1.0745880    -0.6709160
  C       -0.8811970    -0.0860610    -0.1982810
  C        1.4606880     0.7318840     1.7727460
  C        1.9603790     1.6404280    -0.4583390
  C       -2.9965950    -0.0375860     0.3980590
  C       -2.6480900     1.1053220    -0.2992680
  H        1.3484140    -0.2039780     2.3191610
  H        0.5624770     1.3529910     1.8963580
  H        2.3234150     1.2701900     2.1711160
  H        2.1708410     1.3362470    -1.4821670
  H        2.8360500     2.1503740    -0.0502520
  H        1.0944390     2.3121220    -0.4419640
  H       -1.7008040    -1.6902470     0.8932800
  H       -3.9262080    -0.3702980     0.8362390
  H       -3.2806590     1.9452040    -0.5535070
units angstrom
no_reorient  #important for SAPT in psi4, default
symmetry c1  #important for SAPT in psi4, default
}

set PROPERTIES_ORIGIN ["COM"]
properties('MP2/aug-cc-pvtz', properties = ['dipole'])
--------------------------------------------------------------------------

    Molecular point group: c1
  Charge       = 0
  Multiplicity = 1
  Basis Set: AUG-CC-PVTZ
    Blend: AUG-CC-PVTZ
  Basis Set: (AUG-CC-PVTZ AUX)
    Blend: AUG-CC-PVTZ-JKFIT

    Orbital Energies [Eh]
    ---------------------

    Doubly Occupied:

       1A    -92.210136     2A    -20.551768     3A    -20.549073
       4A    -15.651430     5A    -15.610970     6A    -15.583010
       7A    -11.332702     8A    -11.289701     9A    -11.284426
      10A    -11.275620    11A    -11.270809    12A     -9.175410
      13A     -6.861033    14A     -6.860260    15A     -6.859852
      16A     -1.466936    17A     -1.366697    18A     -1.340796
      19A     -1.261637    20A     -1.195378    21A     -1.046426
      22A     -0.978315    23A     -0.974660    24A     -0.880750
      25A     -0.837627    26A     -0.815096    27A     -0.750598
      28A     -0.706346    29A     -0.678282    30A     -0.671736
      31A     -0.638778    32A     -0.629718    33A     -0.621520
      34A     -0.613301    35A     -0.605194    36A     -0.585511
      37A     -0.575354    38A     -0.531089    39A     -0.515728
      40A     -0.502280    41A     -0.485510    42A     -0.475080
      43A     -0.470553    44A     -0.431796    45A     -0.425450
      46A     -0.342681

  @DF-RHF Final Energy:  -905.29977482711922

   => Energetics <=

    Nuclear Repulsion Energy =            800.1167055647874804
    One-Electron Energy =               -2831.2589161847336072
    Two-Electron Energy =                1125.8424357928267909
    Total Energy =                       -905.2997748271193359
  Basis Set: (AUG-CC-PVTZ AUX)
    Blend: AUG-CC-PVTZ-RI
    Molecular point group: c1

    Geometry (in Angstrom), charge = 0, multiplicity = 1:

       Center              X                  Y                   Z               Mass
    ------------   -----------------  -----------------  -----------------  -----------------
         S            0.776775417798    -0.670798569689    -0.277450287574    31.972071174400
         O            0.755877417798    -1.822764569689     0.632618712426    15.994914619570
         O            1.152073417798    -0.798364569689    -1.680304287574    15.994914619570
         N            1.691002817798     0.421500330311     0.356776812426    14.003074004430
         N           -1.835996582202    -0.732398569689     0.494287712426    14.003074004430
         N           -1.314040582202     1.125912430311    -0.636071287574    14.003074004430
         C           -0.868210582202    -0.034736569689    -0.163436287574    12.000000000000
         C            1.473674417798     0.783208430311     1.807590712426    12.000000000000
         C            1.973365417798     1.691752430311    -0.423494287574    12.000000000000
         C           -2.983608582202     0.013738430311     0.432903712426    12.000000000000
         C           -2.635103582202     1.156646430311    -0.264423287574    12.000000000000
         H            1.361400417798    -0.152653569689     2.354005712426     1.007825032230
         H            0.575463417798     1.404315430311     1.931202712426     1.007825032230
         H            2.336401417798     1.321514430311     2.205960712426     1.007825032230
         H            2.183827417798     1.387571430311    -1.447322287574     1.007825032230
         H            2.849036417798     2.201698430311    -0.015407287574     1.007825032230
         H            1.107425417798     2.363446430311    -0.407119287574     1.007825032230
         H           -1.687817582202    -1.638922569689     0.928124712426     1.007825032230
         H           -3.913221582202    -0.318973569689     0.871083712426     1.007825032230
         H           -3.267672582202     1.996528430311    -0.518662287574     1.007825032230

  Basis Set: AUG-CC-PVTZ
    Blend: AUG-CC-PVTZ
  Basis Set: (AUG-CC-PVTZ AUX)
    Blend: AUG-CC-PVTZ-JKFIT
	 Reference Energy          =    -905.2997748271192222 [Eh]
	 Singles Energy            =      -0.0000000000000000 [Eh]
	 Same-Spin Energy          =      -0.5967442986560640 [Eh]
	 Opposite-Spin Energy      =      -1.7740350500620039 [Eh]
	 Correlation Energy        =      -2.3707793487180679 [Eh]
	 Total Energy              =    -907.6705541758373101 [Eh]

	 ================> DF-SCS-MP2 Energies <==================
	-----------------------------------------------------------
	 SCS Same-Spin Scale       =       0.3333333333333333 [-]
	 SCS Opposite-Spin Scale   =       1.2000000000000000 [-]
	 SCS Same-Spin Energy      =      -0.1989147662186880 [Eh]
	 SCS Opposite-Spin Energy  =      -2.1288420600744047 [Eh]
	 SCS Correlation Energy    =      -2.3277568262930926 [Eh]
	 SCS Total Energy          =    -907.6275316534123476 [Eh]
	-----------------------------------------------------------

  Dipole Moment: [D]
     X:    -2.2681      Y:     2.2942      Z:     3.7975     Total:     4.9828

*** Psi4 exiting successfully. Buy a developer a beer!
