                               Psi4 1.3.2 release

  ==> Input File <==

--------------------------------------------------------------------------
#psi4
#
memory 32 gb

molecule  {
0 1
  S        0.7637890    -0.7221230    -0.3122950
  O        0.7428910    -1.8740890     0.5977740
  O        1.1648315    -0.8584397    -1.8113813
  N        1.7366500     0.4402300     0.3626080
  N       -1.8489830    -0.7837230     0.4594430
  N       -1.3270270     1.0745880    -0.6709160
  C       -0.8811970    -0.0860610    -0.1982810
  C        1.4606880     0.7318840     1.7727460
  C        1.9603790     1.6404280    -0.4583390
  C       -2.9965950    -0.0375860     0.3980590
  C       -2.6480900     1.1053220    -0.2992680
  H        1.3484140    -0.2039780     2.3191610
  H        0.5624770     1.3529910     1.8963580
  H        2.3234150     1.2701900     2.1711160
  H        2.1708410     1.3362470    -1.4821670
  H        2.8360500     2.1503740    -0.0502520
  H        1.0944390     2.3121220    -0.4419640
  H       -1.7008040    -1.6902470     0.8932800
  H       -3.9262080    -0.3702980     0.8362390
  H       -3.2806590     1.9452040    -0.5535070
units angstrom
no_reorient  #important for SAPT in psi4, default
symmetry c1  #important for SAPT in psi4, default
}

set PROPERTIES_ORIGIN ["COM"]
properties('MP2/aug-cc-pvtz', properties = ['dipole'])
--------------------------------------------------------------------------

    Molecular point group: c1
  Charge       = 0
  Multiplicity = 1
  Basis Set: AUG-CC-PVTZ
    Blend: AUG-CC-PVTZ
  Basis Set: (AUG-CC-PVTZ AUX)
    Blend: AUG-CC-PVTZ-JKFIT

    Orbital Energies [Eh]
    ---------------------

    Doubly Occupied:

       1A    -92.221302     2A    -20.564979     3A    -20.553982
       4A    -15.658268     5A    -15.616527     6A    -15.589588
       7A    -11.342134     8A    -11.295871     9A    -11.278546
      10A    -11.275862    11A    -11.266976    12A     -9.185379
      13A     -6.870498    14A     -6.870118    15A     -6.869081
      16A     -1.446087    17A     -1.371595    18A     -1.314954
      19A     -1.257883    20A     -1.201410    21A     -1.053482
      22A     -0.984051    23A     -0.965584    24A     -0.878851
      25A     -0.843164    26A     -0.821271    27A     -0.754234
      28A     -0.707122    29A     -0.676966    30A     -0.666286
      31A     -0.640860    32A     -0.634877    33A     -0.627469
      34A     -0.617513    35A     -0.602381    36A     -0.575788
      37A     -0.572708    38A     -0.543866    39A     -0.504881
      40A     -0.501371    41A     -0.483159    42A     -0.469286
      43A     -0.468102    44A     -0.431353    45A     -0.420833
      46A     -0.348641

  @DF-RHF Final Energy:  -905.28639926265384

   => Energetics <=

    Nuclear Repulsion Energy =            792.5482031081830883
    One-Electron Energy =               -2815.9789275221405660
    Two-Electron Energy =                1118.1443251513035193
    Total Energy =                       -905.2863992626539584
  Basis Set: (AUG-CC-PVTZ AUX)
    Blend: AUG-CC-PVTZ-RI
    Molecular point group: c1

    Geometry (in Angstrom), charge = 0, multiplicity = 1:

       Center              X                  Y                   Z               Mass
    ------------   -----------------  -----------------  -----------------  -----------------
         S            0.769732337253    -0.675603177841    -0.271910803966    31.972071174400
         O            0.748834337253    -1.827569177841     0.638158196034    15.994914619570
         O            1.170774837253    -0.811919877841    -1.770997103966    15.994914619570
         N            1.742593337253     0.486749822159     0.402992196034    14.003074004430
         N           -1.843039662747    -0.737203177841     0.499827196034    14.003074004430
         N           -1.321083662747     1.121107822159    -0.630531803966    14.003074004430
         C           -0.875253662747    -0.039541177841    -0.157896803966    12.000000000000
         C            1.466631337253     0.778403822159     1.813130196034    12.000000000000
         C            1.966322337253     1.686947822159    -0.417954803966    12.000000000000
         C           -2.990651662747     0.008933822159     0.438443196034    12.000000000000
         C           -2.642146662747     1.151841822159    -0.258883803966    12.000000000000
         H            1.354357337253    -0.157458177841     2.359545196034     1.007825032230
         H            0.568420337253     1.399510822159     1.936742196034     1.007825032230
         H            2.329358337253     1.316709822159     2.211500196034     1.007825032230
         H            2.176784337253     1.382766822159    -1.441782803966     1.007825032230
         H            2.841993337253     2.196893822159    -0.009867803966     1.007825032230
         H            1.100382337253     2.358641822159    -0.401579803966     1.007825032230
         H           -1.694860662747    -1.643727177841     0.933664196034     1.007825032230
         H           -3.920264662747    -0.323778177841     0.876623196034     1.007825032230
         H           -3.274715662747     1.991723822159    -0.513122803966     1.007825032230

  Basis Set: AUG-CC-PVTZ
    Blend: AUG-CC-PVTZ
  Basis Set: (AUG-CC-PVTZ AUX)
    Blend: AUG-CC-PVTZ-JKFIT
	 Reference Energy          =    -905.2863992626538447 [Eh]
	 Singles Energy            =      -0.0000000000000000 [Eh]
	 Same-Spin Energy          =      -0.5993220002851445 [Eh]
	 Opposite-Spin Energy      =      -1.7803324743293214 [Eh]
	 Correlation Energy        =      -2.3796544746144659 [Eh]
	 Total Energy              =    -907.6660537372682711 [Eh]

	 ================> DF-SCS-MP2 Energies <==================
	-----------------------------------------------------------
	 SCS Same-Spin Scale       =       0.3333333333333333 [-]
	 SCS Opposite-Spin Scale   =       1.2000000000000000 [-]
	 SCS Same-Spin Energy      =      -0.1997740000950481 [Eh]
	 SCS Opposite-Spin Energy  =      -2.1363989691951857 [Eh]
	 SCS Correlation Energy    =      -2.3361729692902338 [Eh]
	 SCS Total Energy          =    -907.6225722319441047 [Eh]
	-----------------------------------------------------------

  Dipole Moment: [D]
     X:    -2.8869      Y:     2.0217      Z:     4.0624     Total:     5.3782

*** Psi4 exiting successfully. Buy a developer a beer!
