                               Psi4 1.4a3.dev225

  ==> Input File <==

--------------------------------------------------------------------------
#psi4
#
memory 32 gb

molecule  {
0 1
  S        0.7637890    -0.7221230    -0.3122950
  O        0.7428910    -1.8740890     0.5977740
  O        1.1390870    -0.8496890    -1.7151490
  N        1.7366500     0.4402300     0.3626080
  N       -1.8489830    -0.7837230     0.4594430
  N       -1.3270270     1.0745880    -0.6709160
  C       -0.8811970    -0.0860610    -0.1982810
  C        1.4606880     0.7318840     1.7727460
  C        1.9603790     1.6404280    -0.4583390
  C       -2.9965950    -0.0375860     0.3980590
  C       -2.6354946     1.1466282    -0.3244703
  H        1.3484140    -0.2039780     2.3191610
  H        0.5624770     1.3529910     1.8963580
  H        2.3234150     1.2701900     2.1711160
  H        2.1708410     1.3362470    -1.4821670
  H        2.8360500     2.1503740    -0.0502520
  H        1.0944390     2.3121220    -0.4419640
  H       -1.7008040    -1.6902470     0.8932800
  H       -3.9262080    -0.3702980     0.8362390
  H       -3.2806590     1.9452040    -0.5535070
units angstrom
no_reorient  #important for SAPT in psi4, default
symmetry c1  #important for SAPT in psi4, default
}

set PROPERTIES_ORIGIN ["COM"]
properties('MP2/aug-cc-pvtz', properties = ['dipole'])
--------------------------------------------------------------------------

    Molecular point group: c1
  Charge       = 0
  Multiplicity = 1
  Basis Set: AUG-CC-PVTZ
    Blend: AUG-CC-PVTZ
  Basis Set: (AUG-CC-PVTZ AUX)
    Blend: AUG-CC-PVTZ-JKFIT

    Orbital Energies [Eh]
    ---------------------

    Doubly Occupied:

       1A    -92.215210     2A    -20.558056     3A    -20.554974
       4A    -15.659234     5A    -15.610480     6A    -15.587051
       7A    -11.335047     8A    -11.298787     9A    -11.277159
      10A    -11.274806    11A    -11.265662    12A     -9.179645
      13A     -6.864868    14A     -6.864467    15A     -6.864052
      16A     -1.463627    17A     -1.368874    18A     -1.344763
      19A     -1.257326    20A     -1.203187    21A     -1.044589
      22A     -0.981199    23A     -0.957356    24A     -0.874645
      25A     -0.848339    26A     -0.818086    27A     -0.752493
      28A     -0.710466    29A     -0.676997    30A     -0.667741
      31A     -0.642190    32A     -0.632484    33A     -0.624519
      34A     -0.623515    35A     -0.611245    36A     -0.576915
      37A     -0.570607    38A     -0.541454    39A     -0.513685
      40A     -0.507480    41A     -0.483297    42A     -0.479392
      43A     -0.468505    44A     -0.433463    45A     -0.417385
      46A     -0.337618

  @DF-RHF Final Energy:  -905.30139458434769

   => Energetics <=

    Nuclear Repulsion Energy =            796.9648217579078846
    One-Electron Energy =               -2824.8465471954446002
    Two-Electron Energy =                1122.5803308531890252
    Total Energy =                       -905.3013945843476904
  Basis Set: (AUG-CC-PVTZ AUX)
    Blend: AUG-CC-PVTZ-RI
    Molecular point group: c1

    Geometry (in Angstrom), charge = 0, multiplicity = 1:

       Center              X                  Y                   Z               Mass
    ------------   -----------------  -----------------  -----------------  -----------------
         S            0.771221333910    -0.679234550551    -0.278976554003    31.972071174400
         O            0.750323333910    -1.831200550551     0.631092445997    15.994914619570
         O            1.146519333910    -0.806800550551    -1.681830554003    15.994914619570
         N            1.744082333910     0.483118449449     0.395926445997    14.003074004430
         N           -1.841550666090    -0.740834550551     0.492761445997    14.003074004430
         N           -1.319594666090     1.117476449449    -0.637597554003    14.003074004430
         C           -0.873764666090    -0.043172550551    -0.164962554003    12.000000000000
         C            1.468120333910     0.774772449449     1.806064445997    12.000000000000
         C            1.967811333910     1.683316449449    -0.425020554003    12.000000000000
         C           -2.989162666090     0.005302449449     0.431377445997    12.000000000000
         C           -2.628062266090     1.189516649449    -0.291151854003    12.000000000000
         H            1.355846333910    -0.161089550551     2.352479445997     1.007825032230
         H            0.569909333910     1.395879449449     1.929676445997     1.007825032230
         H            2.330847333910     1.313078449449     2.204434445997     1.007825032230
         H            2.178273333910     1.379135449449    -1.448848554003     1.007825032230
         H            2.843482333910     2.193262449449    -0.016933554003     1.007825032230
         H            1.101871333910     2.355010449449    -0.408645554003     1.007825032230
         H           -1.693371666090    -1.647358550551     0.926598445997     1.007825032230
         H           -3.918775666090    -0.327409550551     0.869557445997     1.007825032230
         H           -3.273226666090     1.988092449449    -0.520188554003     1.007825032230

  Basis Set: AUG-CC-PVTZ
    Blend: AUG-CC-PVTZ
  Basis Set: (AUG-CC-PVTZ AUX)
    Blend: AUG-CC-PVTZ-JKFIT
	 Reference Energy          =    -905.3013945843476904 [Eh]
	 Singles Energy            =      -0.0000000000000000 [Eh]
	 Same-Spin Energy          =      -0.5981884226340580 [Eh]
	 Opposite-Spin Energy      =      -1.7764079856419641 [Eh]
	 Correlation Energy        =      -2.3745964082760223 [Eh]
	 Total Energy              =    -907.6759909926237242 [Eh]

	 ================> DF-SCS-MP2 Energies <==================
	-----------------------------------------------------------
	 SCS Same-Spin Scale       =       0.3333333333333333 [-]
	 SCS Opposite-Spin Scale   =       1.2000000000000000 [-]
	 SCS Same-Spin Energy      =      -0.1993961408780193 [Eh]
	 SCS Opposite-Spin Energy  =      -2.1316895827703570 [Eh]
	 SCS Correlation Energy    =      -2.3310857236483762 [Eh]
	 SCS Total Energy          =    -907.6324803079960475 [Eh]
	-----------------------------------------------------------

  Dipole Moment: [D]
     X:    -2.7018      Y:     1.9288      Z:     3.5485     Total:     4.8592

*** Psi4 exiting successfully. Buy a developer a beer!
