                               Psi4 1.3.2 release

  ==> Input File <==

--------------------------------------------------------------------------
#psi4
#
memory 32 gb

molecule  {
0 1
  S        0.7637890    -0.7221230    -0.3122950
  O        0.7428910    -1.8740890     0.5977740
  O        1.1390870    -0.8496890    -1.7151490
  N        1.7366500     0.4402300     0.3626080
  N       -1.8984085    -0.8496148     0.5080474
  N       -1.3270270     1.0745880    -0.6709160
  C       -0.8811970    -0.0860610    -0.1982810
  C        1.4606880     0.7318840     1.7727460
  C        1.9603790     1.6404280    -0.4583390
  C       -2.9965950    -0.0375860     0.3980590
  C       -2.6480900     1.1053220    -0.2992680
  H        1.3484140    -0.2039780     2.3191610
  H        0.5624770     1.3529910     1.8963580
  H        2.3234150     1.2701900     2.1711160
  H        2.1708410     1.3362470    -1.4821670
  H        2.8360500     2.1503740    -0.0502520
  H        1.0944390     2.3121220    -0.4419640
  H       -1.7008040    -1.6902470     0.8932800
  H       -3.9262080    -0.3702980     0.8362390
  H       -3.2806590     1.9452040    -0.5535070
units angstrom
no_reorient  #important for SAPT in psi4, default
symmetry c1  #important for SAPT in psi4, default
}

set PROPERTIES_ORIGIN ["COM"]
properties('MP2/aug-cc-pvtz', properties = ['dipole'])
--------------------------------------------------------------------------

    Molecular point group: c1
  Charge       = 0
  Multiplicity = 1
  Basis Set: AUG-CC-PVTZ
    Blend: AUG-CC-PVTZ
  Basis Set: (AUG-CC-PVTZ AUX)
    Blend: AUG-CC-PVTZ-JKFIT

    Orbital Energies [Eh]
    ---------------------

    Doubly Occupied:

       1A    -92.215353     2A    -20.557537     3A    -20.555357
       4A    -15.649716     5A    -15.611063     6A    -15.599020
       7A    -11.344972     8A    -11.301195     9A    -11.274988
      10A    -11.274759    11A    -11.266665    12A     -9.179779
      13A     -6.865003    14A     -6.864592    15A     -6.864173
      16A     -1.463133    17A     -1.353899    18A     -1.344225
      19A     -1.257824    20A     -1.208518    21A     -1.043997
      22A     -0.981743    23A     -0.961459    24A     -0.887333
      25A     -0.848285    26A     -0.803683    27A     -0.752828
      28A     -0.710558    29A     -0.681274    30A     -0.667092
      31A     -0.647616    32A     -0.627216    33A     -0.620846
      34A     -0.612901    35A     -0.605469    36A     -0.576861
      37A     -0.571287    38A     -0.541984    39A     -0.513306
      40A     -0.507311    41A     -0.489427    42A     -0.479284
      43A     -0.474035    44A     -0.437362    45A     -0.417691
      46A     -0.342607

  @DF-RHF Final Energy:  -905.29099792369755

   => Energetics <=

    Nuclear Repulsion Energy =            794.9400286083523497
    One-Electron Energy =               -2820.7516054179859566
    Two-Electron Energy =                1120.5205788859361746
    Total Energy =                       -905.2909979236974323
  Basis Set: (AUG-CC-PVTZ AUX)
    Blend: AUG-CC-PVTZ-RI
    Molecular point group: c1

    Geometry (in Angstrom), charge = 0, multiplicity = 1:

       Center              X                  Y                   Z               Mass
    ------------   -----------------  -----------------  -----------------  -----------------
         S            0.776038782940    -0.671131547748    -0.284592584157    31.972071174400
         O            0.755140782940    -1.823097547748     0.625476415843    15.994914619570
         O            1.151336782940    -0.798697547748    -1.687446584157    15.994914619570
         N            1.748899782940     0.491221452252     0.390310415843    14.003074004430
         N           -1.886158717060    -0.798623347748     0.535749815843    14.003074004430
         N           -1.314777217060     1.125579452252    -0.643213584157    14.003074004430
         C           -0.868947217060    -0.035069547748    -0.170578584157    12.000000000000
         C            1.472937782940     0.782875452252     1.800448415843    12.000000000000
         C            1.972628782940     1.691419452252    -0.430636584157    12.000000000000
         C           -2.984345217060     0.013405452252     0.425761415843    12.000000000000
         C           -2.635840217060     1.156313452252    -0.271565584157    12.000000000000
         H            1.360663782940    -0.152986547748     2.346863415843     1.007825032230
         H            0.574726782940     1.403982452252     1.924060415843     1.007825032230
         H            2.335664782940     1.321181452252     2.198818415843     1.007825032230
         H            2.183090782940     1.387238452252    -1.454464584157     1.007825032230
         H            2.848299782940     2.201365452252    -0.022549584157     1.007825032230
         H            1.106688782940     2.363113452252    -0.414261584157     1.007825032230
         H           -1.688554217060    -1.639255547748     0.920982415843     1.007825032230
         H           -3.913958217060    -0.319306547748     0.863941415843     1.007825032230
         H           -3.268409217060     1.996195452252    -0.525804584157     1.007825032230

  Basis Set: AUG-CC-PVTZ
    Blend: AUG-CC-PVTZ
  Basis Set: (AUG-CC-PVTZ AUX)
    Blend: AUG-CC-PVTZ-JKFIT
	 Reference Energy          =    -905.2909979236975460 [Eh]
	 Singles Energy            =      -0.0000000000000000 [Eh]
	 Same-Spin Energy          =      -0.5975446880185794 [Eh]
	 Opposite-Spin Energy      =      -1.7771867471602403 [Eh]
	 Correlation Energy        =      -2.3747314351788198 [Eh]
	 Total Energy              =    -907.6657293588763196 [Eh]

	 ================> DF-SCS-MP2 Energies <==================
	-----------------------------------------------------------
	 SCS Same-Spin Scale       =       0.3333333333333333 [-]
	 SCS Opposite-Spin Scale   =       1.2000000000000000 [-]
	 SCS Same-Spin Energy      =      -0.1991815626728598 [Eh]
	 SCS Opposite-Spin Energy  =      -2.1326240965922882 [Eh]
	 SCS Correlation Energy    =      -2.3318056592651479 [Eh]
	 SCS Total Energy          =    -907.6228035829626606 [Eh]
	-----------------------------------------------------------

  Dipole Moment: [D]
     X:    -2.6453      Y:     2.0957      Z:     3.4550     Total:     4.8298

*** Psi4 exiting successfully. Buy a developer a beer!
