                               Psi4 1.3.2 release

  ==> Input File <==

--------------------------------------------------------------------------
#psi4
#
memory 32 gb

molecule  {
0 1
  S        0.7637890    -0.7221230    -0.3122950
  O        0.7428910    -1.8740890     0.5977740
  O        1.1390870    -0.8496890    -1.7151490
  N        1.7132423     0.4564972     0.3677122
  N       -1.8489830    -0.7837230     0.4594430
  N       -1.3270270     1.0745880    -0.6709160
  C       -0.8811970    -0.0860610    -0.1982810
  C        1.4606880     0.7318840     1.7727460
  C        1.9603790     1.6404280    -0.4583390
  C       -2.9965950    -0.0375860     0.3980590
  C       -2.6480900     1.1053220    -0.2992680
  H        1.3484140    -0.2039780     2.3191610
  H        0.5624770     1.3529910     1.8963580
  H        2.3234150     1.2701900     2.1711160
  H        2.1708410     1.3362470    -1.4821670
  H        2.8360500     2.1503740    -0.0502520
  H        1.0944390     2.3121220    -0.4419640
  H       -1.7008040    -1.6902470     0.8932800
  H       -3.9262080    -0.3702980     0.8362390
  H       -3.2806590     1.9452040    -0.5535070
units angstrom
no_reorient  #important for SAPT in psi4, default
symmetry c1  #important for SAPT in psi4, default
}

set PROPERTIES_ORIGIN ["COM"]
properties('MP2/aug-cc-pvtz', properties = ['dipole'])
--------------------------------------------------------------------------

    Molecular point group: c1
  Charge       = 0
  Multiplicity = 1
  Basis Set: AUG-CC-PVTZ
    Blend: AUG-CC-PVTZ
  Basis Set: (AUG-CC-PVTZ AUX)
    Blend: AUG-CC-PVTZ-JKFIT

    Orbital Energies [Eh]
    ---------------------

    Doubly Occupied:

       1A    -92.216756     2A    -20.559415     3A    -20.557087
       4A    -15.654575     5A    -15.609511     6A    -15.586001
       7A    -11.336760     8A    -11.292490     9A    -11.274501
      10A    -11.273053    11A    -11.265854    12A     -9.181110
      13A     -6.866352    14A     -6.865923    15A     -6.865538
      16A     -1.464951    17A     -1.369526    18A     -1.346179
      19A     -1.261039    20A     -1.198166    21A     -1.049758
      22A     -0.983790    23A     -0.960718    24A     -0.875776
      25A     -0.840057    26A     -0.817733    27A     -0.753582
      28A     -0.711962    29A     -0.677664    30A     -0.669163
      31A     -0.643494    32A     -0.632314    33A     -0.625093
      34A     -0.617077    35A     -0.609126    36A     -0.577128
      37A     -0.570880    38A     -0.545304    39A     -0.515153
      40A     -0.508589    41A     -0.485612    42A     -0.480878
      43A     -0.470913    44A     -0.428841    45A     -0.414721
      46A     -0.345338

  @DF-RHF Final Energy:  -905.30594181197773

   => Energetics <=

    Nuclear Repulsion Energy =            797.8492456950502856
    One-Electron Energy =               -2826.5994720760199925
    Two-Electron Energy =                1123.4442845689920887
    Total Energy =                       -905.3059418119776183
  Basis Set: (AUG-CC-PVTZ AUX)
    Blend: AUG-CC-PVTZ-RI
    Molecular point group: c1

    Geometry (in Angstrom), charge = 0, multiplicity = 1:

       Center              X                  Y                   Z               Mass
    ------------   -----------------  -----------------  -----------------  -----------------
         S            0.773957396071    -0.677704150494    -0.281112630238    31.972071174400
         O            0.753059396071    -1.829670150494     0.628956369762    15.994914619570
         O            1.149255396071    -0.805270150494    -1.683966630238    15.994914619570
         N            1.723410696071     0.500916049506     0.398894569762    14.003074004430
         N           -1.838814603929    -0.739304150494     0.490625369762    14.003074004430
         N           -1.316858603929     1.119006849506    -0.639733630238    14.003074004430
         C           -0.871028603929    -0.041642150494    -0.167098630238    12.000000000000
         C            1.470856396071     0.776302849506     1.803928369762    12.000000000000
         C            1.970547396071     1.684846849506    -0.427156630238    12.000000000000
         C           -2.986426603929     0.006832849506     0.429241369762    12.000000000000
         C           -2.637921603929     1.149740849506    -0.268085630238    12.000000000000
         H            1.358582396071    -0.159559150494     2.350343369762     1.007825032230
         H            0.572645396071     1.397409849506     1.927540369762     1.007825032230
         H            2.333583396071     1.314608849506     2.202298369762     1.007825032230
         H            2.181009396071     1.380665849506    -1.450984630238     1.007825032230
         H            2.846218396071     2.194792849506    -0.019069630238     1.007825032230
         H            1.104607396071     2.356540849506    -0.410781630238     1.007825032230
         H           -1.690635603929    -1.645828150494     0.924462369762     1.007825032230
         H           -3.916039603929    -0.325879150494     0.867421369762     1.007825032230
         H           -3.270490603929     1.989622849506    -0.522324630238     1.007825032230

  Basis Set: AUG-CC-PVTZ
    Blend: AUG-CC-PVTZ
  Basis Set: (AUG-CC-PVTZ AUX)
    Blend: AUG-CC-PVTZ-JKFIT
	 Reference Energy          =    -905.3059418119777320 [Eh]
	 Singles Energy            =      -0.0000000000000000 [Eh]
	 Same-Spin Energy          =      -0.5975274041103987 [Eh]
	 Opposite-Spin Energy      =      -1.7752861132988951 [Eh]
	 Correlation Energy        =      -2.3728135174092939 [Eh]
	 Total Energy              =    -907.6787553293870587 [Eh]

	 ================> DF-SCS-MP2 Energies <==================
	-----------------------------------------------------------
	 SCS Same-Spin Scale       =       0.3333333333333333 [-]
	 SCS Opposite-Spin Scale   =       1.2000000000000000 [-]
	 SCS Same-Spin Energy      =      -0.1991758013701329 [Eh]
	 SCS Opposite-Spin Energy  =      -2.1303433359586741 [Eh]
	 SCS Correlation Energy    =      -2.3295191373288069 [Eh]
	 SCS Total Energy          =    -907.6354609493065482 [Eh]
	-----------------------------------------------------------

  Dipole Moment: [D]
     X:    -2.6052      Y:     1.8375      Z:     3.5470     Total:     4.7691

*** Psi4 exiting successfully. Buy a developer a beer!
