                               Psi4 1.3.2 release

  ==> Input File <==

--------------------------------------------------------------------------
#psi4
#
memory 32 gb

molecule  {
0 1
  S        0.7038332    -0.8676924    -0.2151499
  O        0.7428910    -1.8740890     0.5977740
  O        1.1390870    -0.8496890    -1.7151490
  N        1.7366500     0.4402300     0.3626080
  N       -1.8489830    -0.7837230     0.4594430
  N       -1.3270270     1.0745880    -0.6709160
  C       -0.8811970    -0.0860610    -0.1982810
  C        1.4606880     0.7318840     1.7727460
  C        1.9603790     1.6404280    -0.4583390
  C       -2.9965950    -0.0375860     0.3980590
  C       -2.6480900     1.1053220    -0.2992680
  H        1.3484140    -0.2039780     2.3191610
  H        0.5624770     1.3529910     1.8963580
  H        2.3234150     1.2701900     2.1711160
  H        2.1708410     1.3362470    -1.4821670
  H        2.8360500     2.1503740    -0.0502520
  H        1.0944390     2.3121220    -0.4419640
  H       -1.7008040    -1.6902470     0.8932800
  H       -3.9262080    -0.3702980     0.8362390
  H       -3.2806590     1.9452040    -0.5535070
units angstrom
no_reorient  #important for SAPT in psi4, default
symmetry c1  #important for SAPT in psi4, default
}

set PROPERTIES_ORIGIN ["COM"]
properties('MP2/aug-cc-pvtz', properties = ['dipole'])
--------------------------------------------------------------------------

    Molecular point group: c1
  Charge       = 0
  Multiplicity = 1
  Basis Set: AUG-CC-PVTZ
    Blend: AUG-CC-PVTZ
  Basis Set: (AUG-CC-PVTZ AUX)
    Blend: AUG-CC-PVTZ-JKFIT

    Orbital Energies [Eh]
    ---------------------

    Doubly Occupied:

       1A    -92.208168     2A    -20.602521     3A    -20.535582
       4A    -15.659036     5A    -15.593071     6A    -15.588948
       7A    -11.341533     8A    -11.294657     9A    -11.276941
      10A    -11.264911    11A    -11.252313    12A     -9.178735
      13A     -6.865070    14A     -6.862823    15A     -6.861732
      16A     -1.565571    17A     -1.376322    18A     -1.317546
      19A     -1.222585    20A     -1.201898    21A     -1.054459
      22A     -0.967665    23A     -0.942578    24A     -0.870667
      25A     -0.848607    26A     -0.817794    27A     -0.767508
      28A     -0.729579    29A     -0.689841    30A     -0.684018
      31A     -0.644699    32A     -0.635460    33A     -0.625821
      34A     -0.619059    35A     -0.610646    36A     -0.595509
      37A     -0.559526    38A     -0.538020    39A     -0.534128
      40A     -0.507051    41A     -0.477420    42A     -0.466544
      43A     -0.448620    44A     -0.431330    45A     -0.394980
      46A     -0.346192

  @DF-RHF Final Energy:  -905.24024483910603

   => Energetics <=

    Nuclear Repulsion Energy =            797.1617508819433624
    One-Electron Energy =               -2825.0486195646162741
    Two-Electron Energy =                1122.6466238435668856
    Total Energy =                       -905.2402448391060261
  Basis Set: (AUG-CC-PVTZ AUX)
    Blend: AUG-CC-PVTZ-RI
    Molecular point group: c1

    Geometry (in Angstrom), charge = 0, multiplicity = 1:

       Center              X                  Y                   Z               Mass
    ------------   -----------------  -----------------  -----------------  -----------------
         S            0.723080191241    -0.795383337646    -0.201303160554    31.972071174400
         O            0.762137991241    -1.801779937646     0.611620739446    15.994914619570
         O            1.158333991241    -0.777379937646    -1.701302260554    15.994914619570
         N            1.755896991241     0.512539062354     0.376454739446    14.003074004430
         N           -1.829736008759    -0.711413937646     0.473289739446    14.003074004430
         N           -1.307780008759     1.146897062354    -0.657069260554    14.003074004430
         C           -0.861950008759    -0.013751937646    -0.184434260554    12.000000000000
         C            1.479934991241     0.804193062354     1.786592739446    12.000000000000
         C            1.979625991241     1.712737062354    -0.444492260554    12.000000000000
         C           -2.977348008759     0.034723062354     0.411905739446    12.000000000000
         C           -2.628843008759     1.177631062354    -0.285421260554    12.000000000000
         H            1.367660991241    -0.131668937646     2.333007739446     1.007825032230
         H            0.581723991241     1.425300062354     1.910204739446     1.007825032230
         H            2.342661991241     1.342499062354     2.184962739446     1.007825032230
         H            2.190087991241     1.408556062354    -1.468320260554     1.007825032230
         H            2.855296991241     2.222683062354    -0.036405260554     1.007825032230
         H            1.113685991241     2.384431062354    -0.428117260554     1.007825032230
         H           -1.681557008759    -1.617937937646     0.907126739446     1.007825032230
         H           -3.906961008759    -0.297988937646     0.850085739446     1.007825032230
         H           -3.261412008759     2.017513062354    -0.539660260554     1.007825032230

  Basis Set: AUG-CC-PVTZ
    Blend: AUG-CC-PVTZ
  Basis Set: (AUG-CC-PVTZ AUX)
    Blend: AUG-CC-PVTZ-JKFIT
	 Reference Energy          =    -905.2402448391060261 [Eh]
	 Singles Energy            =      -0.0000000000000000 [Eh]
	 Same-Spin Energy          =      -0.5962966754272649 [Eh]
	 Opposite-Spin Energy      =      -1.7746658928305323 [Eh]
	 Correlation Energy        =      -2.3709625682577973 [Eh]
	 Total Energy              =    -907.6112074073638496 [Eh]

	 ================> DF-SCS-MP2 Energies <==================
	-----------------------------------------------------------
	 SCS Same-Spin Scale       =       0.3333333333333333 [-]
	 SCS Opposite-Spin Scale   =       1.2000000000000000 [-]
	 SCS Same-Spin Energy      =      -0.1987655584757550 [Eh]
	 SCS Opposite-Spin Energy  =      -2.1295990713966386 [Eh]
	 SCS Correlation Energy    =      -2.3283646298723935 [Eh]
	 SCS Total Energy          =    -907.5686094689783658 [Eh]
	-----------------------------------------------------------

  Dipole Moment: [D]
     X:    -3.3815      Y:     0.5937      Z:     4.2611     Total:     5.4721

*** Psi4 exiting successfully. Buy a developer a beer!
