                               Psi4 1.3.2 release

  ==> Input File <==

--------------------------------------------------------------------------
#psi4
#
memory 32 gb

molecule  {
0 1
  S        0.7637890    -0.7221230    -0.3122950
  O        0.7428910    -1.8740890     0.5977740
  O        1.1390870    -0.8496890    -1.7151490
  N        1.7366500     0.4402300     0.3626080
  N       -1.8730336    -0.8171845     0.4837194
  N       -1.3270270     1.0745880    -0.6709160
  C       -0.8811970    -0.0860610    -0.1982810
  C        1.4606880     0.7318840     1.7727460
  C        1.9603790     1.6404280    -0.4583390
  C       -2.9965950    -0.0375860     0.3980590
  C       -2.6480900     1.1053220    -0.2992680
  H        1.3484140    -0.2039780     2.3191610
  H        0.5624770     1.3529910     1.8963580
  H        2.3234150     1.2701900     2.1711160
  H        2.1708410     1.3362470    -1.4821670
  H        2.8360500     2.1503740    -0.0502520
  H        1.0944390     2.3121220    -0.4419640
  H       -1.7008040    -1.6902470     0.8932800
  H       -3.9262080    -0.3702980     0.8362390
  H       -3.2806590     1.9452040    -0.5535070
units angstrom
no_reorient  #important for SAPT in psi4, default
symmetry c1  #important for SAPT in psi4, default
}

set PROPERTIES_ORIGIN ["COM"]
properties('MP2/aug-cc-pvtz', properties = ['dipole'])
--------------------------------------------------------------------------

    Molecular point group: c1
  Charge       = 0
  Multiplicity = 1
  Basis Set: AUG-CC-PVTZ
    Blend: AUG-CC-PVTZ
  Basis Set: (AUG-CC-PVTZ AUX)
    Blend: AUG-CC-PVTZ-JKFIT

    Orbital Energies [Eh]
    ---------------------

    Doubly Occupied:

       1A    -92.215529     2A    -20.557987     3A    -20.555560
       4A    -15.652513     5A    -15.611128     6A    -15.592979
       7A    -11.341409     8A    -11.297082     9A    -11.275102
      10A    -11.274123    11A    -11.266365    12A     -9.180001
      13A     -6.865222    14A     -6.864814    15A     -6.864396
      16A     -1.463665    17A     -1.361190    18A     -1.344854
      19A     -1.257874    20A     -1.203620    21A     -1.046522
      22A     -0.981698    23A     -0.960410    24A     -0.881863
      25A     -0.844708    26A     -0.811358    27A     -0.752778
      28A     -0.710469    29A     -0.677847    30A     -0.667608
      31A     -0.644630    32A     -0.631206    33A     -0.621155
      34A     -0.617024    35A     -0.607945    36A     -0.577035
      37A     -0.571184    38A     -0.541937    39A     -0.513643
      40A     -0.507603    41A     -0.487227    42A     -0.479620
      43A     -0.473108    44A     -0.433319    45A     -0.417874
      46A     -0.344340

  @DF-RHF Final Energy:  -905.30169795307927

   => Energetics <=

    Nuclear Repulsion Energy =            796.1926558466781216
    One-Electron Energy =               -2823.2896568028386355
    Two-Electron Energy =                1121.7953030030812442
    Total Energy =                       -905.3016979530793833
  Basis Set: (AUG-CC-PVTZ AUX)
    Blend: AUG-CC-PVTZ-RI
    Molecular point group: c1

    Geometry (in Angstrom), charge = 0, multiplicity = 1:

       Center              X                  Y                   Z               Mass
    ------------   -----------------  -----------------  -----------------  -----------------
         S            0.774008827154    -0.673725925465    -0.282646378877    31.972071174400
         O            0.753110827154    -1.825691925465     0.627422621123    15.994914619570
         O            1.149306827154    -0.801291925465    -1.685500378877    15.994914619570
         N            1.746869827154     0.488627074535     0.392256621123    14.003074004430
         N           -1.862813772846    -0.768787425465     0.513368021123    14.003074004430
         N           -1.316807172846     1.122985074535    -0.641267378877    14.003074004430
         C           -0.870977172846    -0.037663925465    -0.168632378877    12.000000000000
         C            1.470907827154     0.780281074535     1.802394621123    12.000000000000
         C            1.970598827154     1.688825074535    -0.428690378877    12.000000000000
         C           -2.986375172846     0.010811074535     0.427707621123    12.000000000000
         C           -2.637870172846     1.153719074535    -0.269619378877    12.000000000000
         H            1.358633827154    -0.155580925465     2.348809621123     1.007825032230
         H            0.572696827154     1.401388074535     1.926006621123     1.007825032230
         H            2.333634827154     1.318587074535     2.200764621123     1.007825032230
         H            2.181060827154     1.384644074535    -1.452518378877     1.007825032230
         H            2.846269827154     2.198771074535    -0.020603378877     1.007825032230
         H            1.104658827154     2.360519074535    -0.412315378877     1.007825032230
         H           -1.690584172846    -1.641849925465     0.922928621123     1.007825032230
         H           -3.915988172846    -0.321900925465     0.865887621123     1.007825032230
         H           -3.270439172846     1.993601074535    -0.523858378877     1.007825032230

  Basis Set: AUG-CC-PVTZ
    Blend: AUG-CC-PVTZ
  Basis Set: (AUG-CC-PVTZ AUX)
    Blend: AUG-CC-PVTZ-JKFIT
	 Reference Energy          =    -905.3016979530792696 [Eh]
	 Singles Energy            =      -0.0000000000000000 [Eh]
	 Same-Spin Energy          =      -0.5974395072049060 [Eh]
	 Opposite-Spin Energy      =      -1.7761465105894845 [Eh]
	 Correlation Energy        =      -2.3735860177943904 [Eh]
	 Total Energy              =    -907.6752839708736929 [Eh]

	 ================> DF-SCS-MP2 Energies <==================
	-----------------------------------------------------------
	 SCS Same-Spin Scale       =       0.3333333333333333 [-]
	 SCS Opposite-Spin Scale   =       1.2000000000000000 [-]
	 SCS Same-Spin Energy      =      -0.1991465024016353 [Eh]
	 SCS Opposite-Spin Energy  =      -2.1313758127073812 [Eh]
	 SCS Correlation Energy    =      -2.3305223151090164 [Eh]
	 SCS Total Energy          =    -907.6322202681882345 [Eh]
	-----------------------------------------------------------

  Dipole Moment: [D]
     X:    -2.6709      Y:     1.9918      Z:     3.5141     Total:     4.8425

*** Psi4 exiting successfully. Buy a developer a beer!
