                               Psi4 1.3.2 release

  ==> Input File <==

--------------------------------------------------------------------------
#psi4
#
memory 32 gb

molecule  {
0 1
  S        0.7637890    -0.7221230    -0.3122950
  O        0.7428910    -1.8740890     0.5977740
  O        1.1390870    -0.8496890    -1.7151490
  N        1.7366500     0.4402300     0.3626080
  N       -1.8489830    -0.7837230     0.4594430
  N       -1.3270270     1.0745880    -0.6709160
  C       -0.7391189     0.0163609    -0.2948397
  C        1.4606880     0.7318840     1.7727460
  C        1.9603790     1.6404280    -0.4583390
  C       -2.9965950    -0.0375860     0.3980590
  C       -2.6480900     1.1053220    -0.2992680
  H        1.3484140    -0.2039780     2.3191610
  H        0.5624770     1.3529910     1.8963580
  H        2.3234150     1.2701900     2.1711160
  H        2.1708410     1.3362470    -1.4821670
  H        2.8360500     2.1503740    -0.0502520
  H        1.0944390     2.3121220    -0.4419640
  H       -1.7008040    -1.6902470     0.8932800
  H       -3.9262080    -0.3702980     0.8362390
  H       -3.2806590     1.9452040    -0.5535070
units angstrom
no_reorient  #important for SAPT in psi4, default
symmetry c1  #important for SAPT in psi4, default
}

set PROPERTIES_ORIGIN ["COM"]
properties('MP2/aug-cc-pvtz', properties = ['dipole'])
--------------------------------------------------------------------------

    Molecular point group: c1
  Charge       = 0
  Multiplicity = 1
  Basis Set: AUG-CC-PVTZ
    Blend: AUG-CC-PVTZ
  Basis Set: (AUG-CC-PVTZ AUX)
    Blend: AUG-CC-PVTZ-JKFIT

    Orbital Energies [Eh]
    ---------------------

    Doubly Occupied:

       1A    -92.218452     2A    -20.566837     3A    -20.553740
       4A    -15.637056     5A    -15.607666     6A    -15.598031
       7A    -11.341647     8A    -11.306324     9A    -11.274553
      10A    -11.270478    11A    -11.267543    12A     -9.183998
      13A     -6.869608    14A     -6.868711    15A     -6.868312
      16A     -1.469480    17A     -1.348820    18A     -1.343253
      19A     -1.258519    20A     -1.192839    21A     -1.057481
      22A     -0.981873    23A     -0.969594    24A     -0.890563
      25A     -0.842962    26A     -0.778658    27A     -0.753767
      28A     -0.712828    29A     -0.686724    30A     -0.670700
      31A     -0.649232    32A     -0.626152    33A     -0.614301
      34A     -0.603993    35A     -0.601559    36A     -0.577601
      37A     -0.571282    38A     -0.542256    39A     -0.522168
      40A     -0.511061    41A     -0.492286    42A     -0.481700
      43A     -0.465683    44A     -0.438775    45A     -0.414321
      46A     -0.340411

  @DF-RHF Final Energy:  -905.26550751736386

   => Energetics <=

    Nuclear Repulsion Energy =            798.2238505297925713
    One-Electron Energy =               -2827.2911256717029573
    Two-Electron Energy =                1123.8017676245465282
    Total Energy =                       -905.2655075173638579
  Basis Set: (AUG-CC-PVTZ AUX)
    Blend: AUG-CC-PVTZ-RI
    Molecular point group: c1

    Geometry (in Angstrom), charge = 0, multiplicity = 1:

       Center              X                  Y                   Z               Mass
    ------------   -----------------  -----------------  -----------------  -----------------
         S            0.762344627663    -0.683424346685    -0.274084705118    31.972071174400
         O            0.741446627663    -1.835390346685     0.635984294882    15.994914619570
         O            1.137642627663    -0.810990346685    -1.676938705118    15.994914619570
         N            1.735205627663     0.478928653315     0.400818294882    14.003074004430
         N           -1.850427372337    -0.745024346685     0.497653294882    14.003074004430
         N           -1.328471372337     1.113286653315    -0.632705705118    14.003074004430
         C           -0.740563272337     0.055059553315    -0.256629405118    12.000000000000
         C            1.459243627663     0.770582653315     1.810956294882    12.000000000000
         C            1.958934627663     1.679126653315    -0.420128705118    12.000000000000
         C           -2.998039372337     0.001112653315     0.436269294882    12.000000000000
         C           -2.649534372337     1.144020653315    -0.261057705118    12.000000000000
         H            1.346969627663    -0.165279346685     2.357371294882     1.007825032230
         H            0.561032627663     1.391689653315     1.934568294882     1.007825032230
         H            2.321970627663     1.308888653315     2.209326294882     1.007825032230
         H            2.169396627663     1.374945653315    -1.443956705118     1.007825032230
         H            2.834605627663     2.189072653315    -0.012041705118     1.007825032230
         H            1.092994627663     2.350820653315    -0.403753705118     1.007825032230
         H           -1.702248372337    -1.651548346685     0.931490294882     1.007825032230
         H           -3.927652372337    -0.331599346685     0.874449294882     1.007825032230
         H           -3.282103372337     1.983902653315    -0.515296705118     1.007825032230

  Basis Set: AUG-CC-PVTZ
    Blend: AUG-CC-PVTZ
  Basis Set: (AUG-CC-PVTZ AUX)
    Blend: AUG-CC-PVTZ-JKFIT
	 Reference Energy          =    -905.2655075173638579 [Eh]
	 Singles Energy            =      -0.0000000000000000 [Eh]
	 Same-Spin Energy          =      -0.5993679697017453 [Eh]
	 Opposite-Spin Energy      =      -1.7795669745184455 [Eh]
	 Correlation Energy        =      -2.3789349442201910 [Eh]
	 Total Energy              =    -907.6444424615840489 [Eh]

	 ================> DF-SCS-MP2 Energies <==================
	-----------------------------------------------------------
	 SCS Same-Spin Scale       =       0.3333333333333333 [-]
	 SCS Opposite-Spin Scale   =       1.2000000000000000 [-]
	 SCS Same-Spin Energy      =      -0.1997893232339151 [Eh]
	 SCS Opposite-Spin Energy  =      -2.1354803694221345 [Eh]
	 SCS Correlation Energy    =      -2.3352696926560497 [Eh]
	 SCS Total Energy          =    -907.6007772100199418 [Eh]
	-----------------------------------------------------------

  Dipole Moment: [D]
     X:    -2.5853      Y:     2.0917      Z:     3.4323     Total:     4.7791

*** Psi4 exiting successfully. Buy a developer a beer!
