                               Psi4 1.3.2 release

  ==> Input File <==

--------------------------------------------------------------------------
#psi4
#
memory 32 gb

molecule  {
0 1
  S        0.7937793    -0.6211034    -0.3764297
  O        0.7428910    -1.8740890     0.5977740
  O        1.1390870    -0.8496890    -1.7151490
  N        1.7366500     0.4402300     0.3626080
  N       -1.8489830    -0.7837230     0.4594430
  N       -1.3270270     1.0745880    -0.6709160
  C       -0.8811970    -0.0860610    -0.1982810
  C        1.4606880     0.7318840     1.7727460
  C        1.9603790     1.6404280    -0.4583390
  C       -2.9965950    -0.0375860     0.3980590
  C       -2.6480900     1.1053220    -0.2992680
  H        1.3484140    -0.2039780     2.3191610
  H        0.5624770     1.3529910     1.8963580
  H        2.3234150     1.2701900     2.1711160
  H        2.1708410     1.3362470    -1.4821670
  H        2.8360500     2.1503740    -0.0502520
  H        1.0944390     2.3121220    -0.4419640
  H       -1.7008040    -1.6902470     0.8932800
  H       -3.9262080    -0.3702980     0.8362390
  H       -3.2806590     1.9452040    -0.5535070
units angstrom
no_reorient  #important for SAPT in psi4, default
symmetry c1  #important for SAPT in psi4, default
}

set PROPERTIES_ORIGIN ["COM"]
properties('MP2/aug-cc-pvtz', properties = ['dipole'])
--------------------------------------------------------------------------

    Molecular point group: c1
  Charge       = 0
  Multiplicity = 1
  Basis Set: AUG-CC-PVTZ
    Blend: AUG-CC-PVTZ
  Basis Set: (AUG-CC-PVTZ AUX)
    Blend: AUG-CC-PVTZ-JKFIT

    Orbital Energies [Eh]
    ---------------------

    Doubly Occupied:

       1A    -92.211002     2A    -20.568583     3A    -20.527824
       4A    -15.653354     5A    -15.621508     6A    -15.585645
       7A    -11.336674     8A    -11.292618     9A    -11.281855
      10A    -11.275033    11A    -11.271793    12A     -9.177534
      13A     -6.862585    14A     -6.862305    15A     -6.861603
      16A     -1.475083    17A     -1.369964    18A     -1.311780
      19A     -1.263222    20A     -1.197447    21A     -1.048135
      22A     -0.992076    23A     -0.971913    24A     -0.881009
      25A     -0.836437    26A     -0.819275    27A     -0.756228
      28A     -0.712565    29A     -0.683313    30A     -0.673344
      31A     -0.645167    32A     -0.632518    33A     -0.625413
      34A     -0.613457    35A     -0.606803    36A     -0.581321
      37A     -0.576363    38A     -0.550959    39A     -0.518706
      40A     -0.497916    41A     -0.479482    42A     -0.454348
      43A     -0.453001    44A     -0.431761    45A     -0.427254
      46A     -0.345624

  @DF-RHF Final Energy:  -905.28229478474884

   => Energetics <=

    Nuclear Repulsion Energy =            798.2141238693790228
    One-Electron Energy =               -2827.3492425027125137
    Two-Electron Energy =                1123.8528238485846487
    Total Energy =                       -905.2822947847489559
  Basis Set: (AUG-CC-PVTZ AUX)
    Blend: AUG-CC-PVTZ-RI
    Molecular point group: c1

    Geometry (in Angstrom), charge = 0, multiplicity = 1:

       Center              X                  Y                   Z               Mass
    ------------   -----------------  -----------------  -----------------  -----------------
         S            0.796597259685    -0.593834850379    -0.333124530188    31.972071174400
         O            0.745708959685    -1.846820450379     0.641079169812    15.994914619570
         O            1.141904959685    -0.822420450379    -1.671843830188    15.994914619570
         N            1.739467959685     0.467498549621     0.405913169812    14.003074004430
         N           -1.846165040315    -0.756454450379     0.502748169812    14.003074004430
         N           -1.324209040315     1.101856549621    -0.627610830188    14.003074004430
         C           -0.878379040315    -0.058792450379    -0.154975830188    12.000000000000
         C            1.463505959685     0.759152549621     1.816051169812    12.000000000000
         C            1.963196959685     1.667696549621    -0.415033830188    12.000000000000
         C           -2.993777040315    -0.010317450379     0.441364169812    12.000000000000
         C           -2.645272040315     1.132590549621    -0.255962830188    12.000000000000
         H            1.351231959685    -0.176709450379     2.362466169812     1.007825032230
         H            0.565294959685     1.380259549621     1.939663169812     1.007825032230
         H            2.326232959685     1.297458549621     2.214421169812     1.007825032230
         H            2.173658959685     1.363515549621    -1.438861830188     1.007825032230
         H            2.838867959685     2.177642549621    -0.006946830188     1.007825032230
         H            1.097256959685     2.339390549621    -0.398658830188     1.007825032230
         H           -1.697986040315    -1.662978450379     0.936585169812     1.007825032230
         H           -3.923390040315    -0.343029450379     0.879544169812     1.007825032230
         H           -3.277841040315     1.972472549621    -0.510201830188     1.007825032230

  Basis Set: AUG-CC-PVTZ
    Blend: AUG-CC-PVTZ
  Basis Set: (AUG-CC-PVTZ AUX)
    Blend: AUG-CC-PVTZ-JKFIT
	 Reference Energy          =    -905.2822947847488422 [Eh]
	 Singles Energy            =      -0.0000000000000000 [Eh]
	 Same-Spin Energy          =      -0.5979418516760706 [Eh]
	 Opposite-Spin Energy      =      -1.7765776858232758 [Eh]
	 Correlation Energy        =      -2.3745195374993466 [Eh]
	 Total Energy              =    -907.6568143222482377 [Eh]

	 ================> DF-SCS-MP2 Energies <==================
	-----------------------------------------------------------
	 SCS Same-Spin Scale       =       0.3333333333333333 [-]
	 SCS Opposite-Spin Scale   =       1.2000000000000000 [-]
	 SCS Same-Spin Energy      =      -0.1993139505586902 [Eh]
	 SCS Opposite-Spin Energy  =      -2.1318932229879310 [Eh]
	 SCS Correlation Energy    =      -2.3312071735466211 [Eh]
	 SCS Total Energy          =    -907.6135019582955010 [Eh]
	-----------------------------------------------------------

  Dipole Moment: [D]
     X:    -2.3293      Y:     2.8467      Z:     3.1009     Total:     4.8109

*** Psi4 exiting successfully. Buy a developer a beer!
