                               Psi4 1.3.2 release

  ==> Input File <==

--------------------------------------------------------------------------
#psi4
#
memory 32 gb

molecule  {
0 1
  S        0.7637890    -0.7221230    -0.3122950
  O        0.7428910    -1.8740890     0.5977740
  O        1.1390870    -0.8496890    -1.7151490
  N        1.7366500     0.4402300     0.3626080
  N       -1.8489830    -0.7837230     0.4594430
  N       -1.3270270     1.0745880    -0.6709160
  C       -0.7881210    -0.1220504    -0.2047321
  C        1.4606880     0.7318840     1.7727460
  C        1.9603790     1.6404280    -0.4583390
  C       -2.9965950    -0.0375860     0.3980590
  C       -2.6480900     1.1053220    -0.2992680
  H        1.3484140    -0.2039780     2.3191610
  H        0.5624770     1.3529910     1.8963580
  H        2.3234150     1.2701900     2.1711160
  H        2.1708410     1.3362470    -1.4821670
  H        2.8360500     2.1503740    -0.0502520
  H        1.0944390     2.3121220    -0.4419640
  H       -1.7008040    -1.6902470     0.8932800
  H       -3.9262080    -0.3702980     0.8362390
  H       -3.2806590     1.9452040    -0.5535070
units angstrom
no_reorient  #important for SAPT in psi4, default
symmetry c1  #important for SAPT in psi4, default
}

set PROPERTIES_ORIGIN ["COM"]
properties('MP2/aug-cc-pvtz', properties = ['dipole'])
--------------------------------------------------------------------------

    Molecular point group: c1
  Charge       = 0
  Multiplicity = 1
  Basis Set: AUG-CC-PVTZ
    Blend: AUG-CC-PVTZ
  Basis Set: (AUG-CC-PVTZ AUX)
    Blend: AUG-CC-PVTZ-JKFIT

    Orbital Energies [Eh]
    ---------------------

    Doubly Occupied:

       1A    -92.214041     2A    -20.556563     3A    -20.553670
       4A    -15.660856     5A    -15.609221     6A    -15.597268
       7A    -11.337574     8A    -11.301743     9A    -11.277097
      10A    -11.273837    11A    -11.265114    12A     -9.179727
      13A     -6.865193    14A     -6.864601    15A     -6.864065
      16A     -1.466580    17A     -1.351468    18A     -1.343323
      19A     -1.257120    20A     -1.182639    21A     -1.062185
      22A     -0.980487    23A     -0.965551    24A     -0.890396
      25A     -0.836869    26A     -0.804124    27A     -0.752559
      28A     -0.711733    29A     -0.681860    30A     -0.668534
      31A     -0.644509    32A     -0.627109    33A     -0.620628
      34A     -0.614502    35A     -0.605685    36A     -0.575828
      37A     -0.569805    38A     -0.540724    39A     -0.515503
      40A     -0.507251    41A     -0.484107    42A     -0.478322
      43A     -0.468702    44A     -0.423966    45A     -0.418958
      46A     -0.344620

  @DF-RHF Final Energy:  -905.28413531209435

   => Energetics <=

    Nuclear Repulsion Energy =            798.2088244223596121
    One-Electron Energy =               -2827.3534850203691349
    Two-Electron Energy =                1123.8605252859151733
    Total Energy =                       -905.2841353120943495
  Basis Set: (AUG-CC-PVTZ AUX)
    Blend: AUG-CC-PVTZ-RI
    Molecular point group: c1

    Geometry (in Angstrom), charge = 0, multiplicity = 1:

       Center              X                  Y                   Z               Mass
    ------------   -----------------  -----------------  -----------------  -----------------
         S            0.765703974102    -0.673935538904    -0.280262045379    31.972071174400
         O            0.744805974102    -1.825901538904     0.629806954621    15.994914619570
         O            1.141001974102    -0.801501538904    -1.683116045379    15.994914619570
         N            1.738564974102     0.488417461096     0.394640954621    14.003074004430
         N           -1.847068025898    -0.735535538904     0.491475954621    14.003074004430
         N           -1.325112025898     1.122775461096    -0.638883045379    14.003074004430
         C           -0.786206025898    -0.073862938904    -0.172699145379    12.000000000000
         C            1.462602974102     0.780071461096     1.804778954621    12.000000000000
         C            1.962293974102     1.688615461096    -0.426306045379    12.000000000000
         C           -2.994680025898     0.010601461096     0.430091954621    12.000000000000
         C           -2.646175025898     1.153509461096    -0.267235045379    12.000000000000
         H            1.350328974102    -0.155790538904     2.351193954621     1.007825032230
         H            0.564391974102     1.401178461096     1.928390954621     1.007825032230
         H            2.325329974102     1.318377461096     2.203148954621     1.007825032230
         H            2.172755974102     1.384434461096    -1.450134045379     1.007825032230
         H            2.837964974102     2.198561461096    -0.018219045379     1.007825032230
         H            1.096353974102     2.360309461096    -0.409931045379     1.007825032230
         H           -1.698889025898    -1.642059538904     0.925312954621     1.007825032230
         H           -3.924293025898    -0.322110538904     0.868271954621     1.007825032230
         H           -3.278744025898     1.993391461096    -0.521474045379     1.007825032230

  Basis Set: AUG-CC-PVTZ
    Blend: AUG-CC-PVTZ
  Basis Set: (AUG-CC-PVTZ AUX)
    Blend: AUG-CC-PVTZ-JKFIT
	 Reference Energy          =    -905.2841353120943495 [Eh]
	 Singles Energy            =      -0.0000000000000000 [Eh]
	 Same-Spin Energy          =      -0.6007186570774382 [Eh]
	 Opposite-Spin Energy      =      -1.7810122079089892 [Eh]
	 Correlation Energy        =      -2.3817308649864275 [Eh]
	 Total Energy              =    -907.6658661770808294 [Eh]

	 ================> DF-SCS-MP2 Energies <==================
	-----------------------------------------------------------
	 SCS Same-Spin Scale       =       0.3333333333333333 [-]
	 SCS Opposite-Spin Scale   =       1.2000000000000000 [-]
	 SCS Same-Spin Energy      =      -0.2002395523591461 [Eh]
	 SCS Opposite-Spin Energy  =      -2.1372146494907871 [Eh]
	 SCS Correlation Energy    =      -2.3374542018499334 [Eh]
	 SCS Total Energy          =    -907.6215895139442864 [Eh]
	-----------------------------------------------------------

  Dipole Moment: [D]
     X:    -2.9374      Y:     1.9567      Z:     3.5946     Total:     5.0376

*** Psi4 exiting successfully. Buy a developer a beer!
