                               Psi4 1.4a3.dev225

  ==> Input File <==

--------------------------------------------------------------------------
#psi4
#
memory 32 gb

molecule  {
0 1
  S        0.7637890    -0.7221230    -0.3122950
  O        0.7428910    -1.8740890     0.5977740
  O        1.1390870    -0.8496890    -1.7151490
  N        1.7366500     0.4402300     0.3626080
  N       -1.8489830    -0.7837230     0.4594430
  N       -1.3270270     1.0745880    -0.6709160
  C       -0.8811970    -0.0860610    -0.1982810
  C        1.4606880     0.7318840     1.7727460
  C        1.9603790     1.6404280    -0.4583390
  C       -2.9965950    -0.0375860     0.3980590
  C       -2.6480900     1.1053220    -0.2992680
  H        1.3484140    -0.2039780     2.3191610
  H        0.5624770     1.3529910     1.8963580
  H        2.3234150     1.2701900     2.1711160
  H        2.1708410     1.3362470    -1.4821670
  H        2.8360500     2.1503740    -0.0502520
  H        1.0944390     2.3121220    -0.4419640
  H       -1.6978867    -1.7080945     0.9018213
  H       -3.9262080    -0.3702980     0.8362390
  H       -3.2806590     1.9452040    -0.5535070
units angstrom
no_reorient  #important for SAPT in psi4, default
symmetry c1  #important for SAPT in psi4, default
}

set PROPERTIES_ORIGIN ["COM"]
properties('MP2/aug-cc-pvtz', properties = ['dipole'])
--------------------------------------------------------------------------

    Molecular point group: c1
  Charge       = 0
  Multiplicity = 1
  Basis Set: AUG-CC-PVTZ
    Blend: AUG-CC-PVTZ
  Basis Set: (AUG-CC-PVTZ AUX)
    Blend: AUG-CC-PVTZ-JKFIT

    Orbital Energies [Eh]
    ---------------------

    Doubly Occupied:

       1A    -92.215743     2A    -20.558497     3A    -20.555815
       4A    -15.656554     5A    -15.611233     6A    -15.586435
       7A    -11.337249     8A    -11.292885     9A    -11.275224
      10A    -11.273298    11A    -11.266046    12A     -9.180264
      13A     -6.865482    14A     -6.865078    15A     -6.864659
      16A     -1.464275    17A     -1.369046    18A     -1.345378
      19A     -1.257937    20A     -1.196885    21A     -1.049616
      22A     -0.981654    23A     -0.959665    24A     -0.875705
      25A     -0.838609    26A     -0.816108    27A     -0.752688
      28A     -0.710617    29A     -0.676404    30A     -0.668110
      31A     -0.642361    32A     -0.631274    33A     -0.624816
      34A     -0.616615    35A     -0.608721    36A     -0.577166
      37A     -0.571047    38A     -0.541894    39A     -0.514003
      40A     -0.507846    41A     -0.485336    42A     -0.479984
      43A     -0.471251    44A     -0.428867    45A     -0.417974
      46A     -0.345850

  @DF-RHF Final Energy:  -905.30476526054781

   => Energetics <=

    Nuclear Repulsion Energy =            797.3518692756649671
    One-Electron Energy =               -2825.6489428429799773
    Two-Electron Energy =                1122.9923083067671996
    Total Energy =                       -905.3047652605478106
  Basis Set: (AUG-CC-PVTZ AUX)
    Blend: AUG-CC-PVTZ-RI
    Molecular point group: c1

    Geometry (in Angstrom), charge = 0, multiplicity = 1:

       Center              X                  Y                   Z               Mass
    ------------   -----------------  -----------------  -----------------  -----------------
         S            0.772068016734    -0.676300038351    -0.280753479196    31.972071174400
         O            0.751170016734    -1.828266038351     0.629315520804    15.994914619570
         O            1.147366016734    -0.803866038351    -1.683607479196    15.994914619570
         N            1.744929016734     0.486052961649     0.394149520804    14.003074004430
         N           -1.840703983266    -0.737900038351     0.490984520804    14.003074004430
         N           -1.318747983266     1.120410961649    -0.639374479196    14.003074004430
         C           -0.872917983266    -0.040238038351    -0.166739479196    12.000000000000
         C            1.468967016734     0.777706961649     1.804287520804    12.000000000000
         C            1.968658016734     1.686250961649    -0.426797479196    12.000000000000
         C           -2.988315983266     0.008236961649     0.429600520804    12.000000000000
         C           -2.639810983266     1.151144961649    -0.267726479196    12.000000000000
         H            1.356693016734    -0.158155038351     2.350702520804     1.007825032230
         H            0.570756016734     1.398813961649     1.927899520804     1.007825032230
         H            2.331694016734     1.316012961649     2.202657520804     1.007825032230
         H            2.179120016734     1.382069961649    -1.450625479196     1.007825032230
         H            2.844329016734     2.196196961649    -0.018710479196     1.007825032230
         H            1.102718016734     2.357944961649    -0.410422479196     1.007825032230
         H           -1.689607683266    -1.662271538351     0.933362820804     1.007825032230
         H           -3.917928983266    -0.324475038351     0.867780520804     1.007825032230
         H           -3.272379983266     1.991026961649    -0.521965479196     1.007825032230

  Basis Set: AUG-CC-PVTZ
    Blend: AUG-CC-PVTZ
  Basis Set: (AUG-CC-PVTZ AUX)
    Blend: AUG-CC-PVTZ-JKFIT
	 Reference Energy          =    -905.3047652605478106 [Eh]
	 Singles Energy            =      -0.0000000000000000 [Eh]
	 Same-Spin Energy          =      -0.5976674511574654 [Eh]
	 Opposite-Spin Energy      =      -1.7758283999180997 [Eh]
	 Correlation Energy        =      -2.3734958510755653 [Eh]
	 Total Energy              =    -907.6782611116233284 [Eh]

	 ================> DF-SCS-MP2 Energies <==================
	-----------------------------------------------------------
	 SCS Same-Spin Scale       =       0.3333333333333333 [-]
	 SCS Opposite-Spin Scale   =       1.2000000000000000 [-]
	 SCS Same-Spin Energy      =      -0.1992224837191551 [Eh]
	 SCS Opposite-Spin Energy  =      -2.1309940799017197 [Eh]
	 SCS Correlation Energy    =      -2.3302165636208749 [Eh]
	 SCS Total Energy          =    -907.6349818241686762 [Eh]
	-----------------------------------------------------------

  Dipole Moment: [D]
     X:    -2.6791      Y:     1.8633      Z:     3.5823     Total:     4.8458

*** Psi4 exiting successfully. Buy a developer a beer!
