                               Psi4 1.3.2 release

  ==> Input File <==

--------------------------------------------------------------------------
#psi4
#
memory 32 gb

molecule  {
0 1
  S        0.7637890    -0.7221230    -0.3122950
  O        0.7115817    -1.8981746     0.5651246
  O        1.1390870    -0.8496890    -1.7151490
  N        1.7366500     0.4402300     0.3626080
  N       -1.8489830    -0.7837230     0.4594430
  N       -1.3270270     1.0745880    -0.6709160
  C       -0.8811970    -0.0860610    -0.1982810
  C        1.4606880     0.7318840     1.7727460
  C        1.9603790     1.6404280    -0.4583390
  C       -2.9965950    -0.0375860     0.3980590
  C       -2.6480900     1.1053220    -0.2992680
  H        1.3484140    -0.2039780     2.3191610
  H        0.5624770     1.3529910     1.8963580
  H        2.3234150     1.2701900     2.1711160
  H        2.1708410     1.3362470    -1.4821670
  H        2.8360500     2.1503740    -0.0502520
  H        1.0944390     2.3121220    -0.4419640
  H       -1.7008040    -1.6902470     0.8932800
  H       -3.9262080    -0.3702980     0.8362390
  H       -3.2806590     1.9452040    -0.5535070
units angstrom
no_reorient  #important for SAPT in psi4, default
symmetry c1  #important for SAPT in psi4, default
}

set PROPERTIES_ORIGIN ["COM"]
properties('MP2/aug-cc-pvtz', properties = ['dipole'])
--------------------------------------------------------------------------

    Molecular point group: c1
  Charge       = 0
  Multiplicity = 1
  Basis Set: AUG-CC-PVTZ
    Blend: AUG-CC-PVTZ
  Basis Set: (AUG-CC-PVTZ AUX)
    Blend: AUG-CC-PVTZ-JKFIT

    Orbital Energies [Eh]
    ---------------------

    Doubly Occupied:

       1A    -92.215795     2A    -20.558834     3A    -20.554052
       4A    -15.654217     5A    -15.613508     6A    -15.585841
       7A    -11.336324     8A    -11.292421     9A    -11.276991
      10A    -11.272836    11A    -11.267506    12A     -9.180323
      13A     -6.865544    14A     -6.865100    15A     -6.864737
      16A     -1.464140    17A     -1.369168    18A     -1.344003
      19A     -1.260198    20A     -1.197888    21A     -1.049171
      22A     -0.983219    23A     -0.961016    24A     -0.876875
      25A     -0.839731    26A     -0.817697    27A     -0.753578
      28A     -0.710821    29A     -0.676813    30A     -0.668326
      31A     -0.642784    32A     -0.632148    33A     -0.625021
      34A     -0.616748    35A     -0.608411    36A     -0.578893
      37A     -0.572356    38A     -0.543224    39A     -0.514331
      40A     -0.506824    41A     -0.485260    42A     -0.479096
      43A     -0.471438    44A     -0.428599    45A     -0.419284
      46A     -0.345442

  @DF-RHF Final Energy:  -905.30592012964803

   => Energetics <=

    Nuclear Repulsion Energy =            797.3870605321922085
    One-Electron Energy =               -2825.6928976086128387
    Two-Electron Energy =                1122.9999169467726006
    Total Energy =                       -905.3059201296480296
  Basis Set: (AUG-CC-PVTZ AUX)
    Blend: AUG-CC-PVTZ-RI
    Molecular point group: c1

    Geometry (in Angstrom), charge = 0, multiplicity = 1:

       Center              X                  Y                   Z               Mass
    ------------   -----------------  -----------------  -----------------  -----------------
         S            0.774945788982    -0.674201908146    -0.277720870605    31.972071174400
         O            0.722738488982    -1.850253508146     0.599698729395    15.994914619570
         O            1.150243788982    -0.801767908146    -1.680574870605    15.994914619570
         N            1.747806788982     0.488151091854     0.397182129395    14.003074004430
         N           -1.837826211018    -0.735801908146     0.494017129395    14.003074004430
         N           -1.315870211018     1.122509091854    -0.636341870605    14.003074004430
         C           -0.870040211018    -0.038139908146    -0.163706870605    12.000000000000
         C            1.471844788982     0.779805091854     1.807320129395    12.000000000000
         C            1.971535788982     1.688349091854    -0.423764870605    12.000000000000
         C           -2.985438211018     0.010335091854     0.432633129395    12.000000000000
         C           -2.636933211018     1.153243091854    -0.264693870605    12.000000000000
         H            1.359570788982    -0.156056908146     2.353735129395     1.007825032230
         H            0.573633788982     1.400912091854     1.930932129395     1.007825032230
         H            2.334571788982     1.318111091854     2.205690129395     1.007825032230
         H            2.181997788982     1.384168091854    -1.447592870605     1.007825032230
         H            2.847206788982     2.198295091854    -0.015677870605     1.007825032230
         H            1.105595788982     2.360043091854    -0.407389870605     1.007825032230
         H           -1.689647211018    -1.642325908146     0.927854129395     1.007825032230
         H           -3.915051211018    -0.322376908146     0.870813129395     1.007825032230
         H           -3.269502211018     1.993125091854    -0.518932870605     1.007825032230

  Basis Set: AUG-CC-PVTZ
    Blend: AUG-CC-PVTZ
  Basis Set: (AUG-CC-PVTZ AUX)
    Blend: AUG-CC-PVTZ-JKFIT
	 Reference Energy          =    -905.3059201296480296 [Eh]
	 Singles Energy            =      -0.0000000000000000 [Eh]
	 Same-Spin Energy          =      -0.5973799795718802 [Eh]
	 Opposite-Spin Energy      =      -1.7752807669714388 [Eh]
	 Correlation Energy        =      -2.3726607465433189 [Eh]
	 Total Energy              =    -907.6785808761914041 [Eh]

	 ================> DF-SCS-MP2 Energies <==================
	-----------------------------------------------------------
	 SCS Same-Spin Scale       =       0.3333333333333333 [-]
	 SCS Opposite-Spin Scale   =       1.2000000000000000 [-]
	 SCS Same-Spin Energy      =      -0.1991266598572934 [Eh]
	 SCS Opposite-Spin Energy  =      -2.1303369203657265 [Eh]
	 SCS Correlation Energy    =      -2.3294635802230199 [Eh]
	 SCS Total Energy          =    -907.6353837098710073 [Eh]
	-----------------------------------------------------------

  Dipole Moment: [D]
     X:    -2.5809      Y:     1.9583      Z:     3.6527     Total:     4.8825

*** Psi4 exiting successfully. Buy a developer a beer!
