                               Psi4 1.4a3.dev225

  ==> Input File <==

--------------------------------------------------------------------------
#psi4
#
memory 32 gb

molecule  {
0 1
  S        0.7637890    -0.7221230    -0.3122950
  O        0.7428910    -1.8740890     0.5977740
  O        1.1390870    -0.8496890    -1.7151490
  N        1.7366500     0.4402300     0.3626080
  N       -1.8489830    -0.7837230     0.4594430
  N       -1.3270270     1.0745880    -0.6709160
  C       -0.8744935    -0.1035126    -0.1911744
  C        1.4606880     0.7318840     1.7727460
  C        1.9603790     1.6404280    -0.4583390
  C       -2.9965950    -0.0375860     0.3980590
  C       -2.6480900     1.1053220    -0.2992680
  H        1.3484140    -0.2039780     2.3191610
  H        0.5624770     1.3529910     1.8963580
  H        2.3234150     1.2701900     2.1711160
  H        2.1708410     1.3362470    -1.4821670
  H        2.8360500     2.1503740    -0.0502520
  H        1.0944390     2.3121220    -0.4419640
  H       -1.7008040    -1.6902470     0.8932800
  H       -3.9262080    -0.3702980     0.8362390
  H       -3.2806590     1.9452040    -0.5535070
units angstrom
no_reorient  #important for SAPT in psi4, default
symmetry c1  #important for SAPT in psi4, default
}

set PROPERTIES_ORIGIN ["COM"]
properties('MP2/aug-cc-pvtz', properties = ['dipole'])
--------------------------------------------------------------------------

    Molecular point group: c1
  Charge       = 0
  Multiplicity = 1
  Basis Set: AUG-CC-PVTZ
    Blend: AUG-CC-PVTZ
  Basis Set: (AUG-CC-PVTZ AUX)
    Blend: AUG-CC-PVTZ-JKFIT

    Orbital Energies [Eh]
    ---------------------

    Doubly Occupied:

       1A    -92.215922     2A    -20.557719     3A    -20.556061
       4A    -15.657482     5A    -15.611598     6A    -15.587451
       7A    -11.337374     8A    -11.293016     9A    -11.275245
      10A    -11.274284    11A    -11.265976    12A     -9.180509
      13A     -6.865739    14A     -6.865361    15A     -6.864896
      16A     -1.464679    17A     -1.369373    18A     -1.345273
      19A     -1.258105    20A     -1.195043    21A     -1.051604
      22A     -0.981678    23A     -0.960484    24A     -0.878711
      25A     -0.839920    26A     -0.819339    27A     -0.752862
      28A     -0.710916    29A     -0.677078    30A     -0.668279
      31A     -0.642865    32A     -0.631991    33A     -0.625443
      34A     -0.617104    35A     -0.608348    36A     -0.577114
      37A     -0.571001    38A     -0.541895    39A     -0.513930
      40A     -0.507894    41A     -0.483260    42A     -0.479936
      43A     -0.472014    44A     -0.427257    45A     -0.418931
      46A     -0.345658

  @DF-RHF Final Energy:  -905.30408799972042

   => Energetics <=

    Nuclear Repulsion Energy =            797.5422226861043100
    One-Electron Energy =               -2825.9993835846835282
    Two-Electron Energy =                1123.1530728988589090
    Total Energy =                       -905.3040879997204229
  Basis Set: (AUG-CC-PVTZ AUX)
    Blend: AUG-CC-PVTZ-RI
    Molecular point group: c1

    Geometry (in Angstrom), charge = 0, multiplicity = 1:

       Center              X                  Y                   Z               Mass
    ------------   -----------------  -----------------  -----------------  -----------------
         S            0.771625254013    -0.675206400610    -0.281191495570    31.972071174400
         O            0.750727254013    -1.827172400610     0.628877504430    15.994914619570
         O            1.146923254013    -0.802772400610    -1.684045495570    15.994914619570
         N            1.744486254013     0.487146599390     0.393711504430    14.003074004430
         N           -1.841146745987    -0.736806400610     0.490546504430    14.003074004430
         N           -1.319190745987     1.121504599390    -0.639812495570    14.003074004430
         C           -0.866657245987    -0.056596000610    -0.160070895570    12.000000000000
         C            1.468524254013     0.778800599390     1.803849504430    12.000000000000
         C            1.968215254013     1.687344599390    -0.427235495570    12.000000000000
         C           -2.988758745987     0.009330599390     0.429162504430    12.000000000000
         C           -2.640253745987     1.152238599390    -0.268164495570    12.000000000000
         H            1.356250254013    -0.157061400610     2.350264504430     1.007825032230
         H            0.570313254013     1.399907599390     1.927461504430     1.007825032230
         H            2.331251254013     1.317106599390     2.202219504430     1.007825032230
         H            2.178677254013     1.383163599390    -1.451063495570     1.007825032230
         H            2.843886254013     2.197290599390    -0.019148495570     1.007825032230
         H            1.102275254013     2.359038599390    -0.410860495570     1.007825032230
         H           -1.692967745987    -1.643330400610     0.924383504430     1.007825032230
         H           -3.918371745987    -0.323381400610     0.867342504430     1.007825032230
         H           -3.272822745987     1.992120599390    -0.522403495570     1.007825032230

  Basis Set: AUG-CC-PVTZ
    Blend: AUG-CC-PVTZ
  Basis Set: (AUG-CC-PVTZ AUX)
    Blend: AUG-CC-PVTZ-JKFIT
	 Reference Energy          =    -905.3040879997204229 [Eh]
	 Singles Energy            =      -0.0000000000000000 [Eh]
	 Same-Spin Energy          =      -0.5979868204472885 [Eh]
	 Opposite-Spin Energy      =      -1.7762276036335449 [Eh]
	 Correlation Energy        =      -2.3742144240808334 [Eh]
	 Total Energy              =    -907.6783024238012558 [Eh]

	 ================> DF-SCS-MP2 Energies <==================
	-----------------------------------------------------------
	 SCS Same-Spin Scale       =       0.3333333333333333 [-]
	 SCS Opposite-Spin Scale   =       1.2000000000000000 [-]
	 SCS Same-Spin Energy      =      -0.1993289401490961 [Eh]
	 SCS Opposite-Spin Energy  =      -2.1314731243602538 [Eh]
	 SCS Correlation Energy    =      -2.3308020645093501 [Eh]
	 SCS Total Energy          =    -907.6348900642298076 [Eh]
	-----------------------------------------------------------

  Dipole Moment: [D]
     X:    -2.7187      Y:     1.8858      Z:     3.5837     Total:     4.8775

*** Psi4 exiting successfully. Buy a developer a beer!
