                               Psi4 1.3.2 release

  ==> Input File <==

--------------------------------------------------------------------------
#psi4
#
memory 32 gb

molecule  {
0 1
  S        0.7637890    -0.7221230    -0.3122950
  O        0.7920715    -1.8828686     0.5863472
  O        1.1390870    -0.8496890    -1.7151490
  N        1.7366500     0.4402300     0.3626080
  N       -1.8489830    -0.7837230     0.4594430
  N       -1.3270270     1.0745880    -0.6709160
  C       -0.8811970    -0.0860610    -0.1982810
  C        1.4606880     0.7318840     1.7727460
  C        1.9603790     1.6404280    -0.4583390
  C       -2.9965950    -0.0375860     0.3980590
  C       -2.6480900     1.1053220    -0.2992680
  H        1.3484140    -0.2039780     2.3191610
  H        0.5624770     1.3529910     1.8963580
  H        2.3234150     1.2701900     2.1711160
  H        2.1708410     1.3362470    -1.4821670
  H        2.8360500     2.1503740    -0.0502520
  H        1.0944390     2.3121220    -0.4419640
  H       -1.7008040    -1.6902470     0.8932800
  H       -3.9262080    -0.3702980     0.8362390
  H       -3.2806590     1.9452040    -0.5535070
units angstrom
no_reorient  #important for SAPT in psi4, default
symmetry c1  #important for SAPT in psi4, default
}

set PROPERTIES_ORIGIN ["COM"]
properties('MP2/aug-cc-pvtz', properties = ['dipole'])
--------------------------------------------------------------------------

    Molecular point group: c1
  Charge       = 0
  Multiplicity = 1
  Basis Set: AUG-CC-PVTZ
    Blend: AUG-CC-PVTZ
  Basis Set: (AUG-CC-PVTZ AUX)
    Blend: AUG-CC-PVTZ-JKFIT

    Orbital Energies [Eh]
    ---------------------

    Doubly Occupied:

       1A    -92.215065     2A    -20.557732     3A    -20.553952
       4A    -15.657128     5A    -15.610039     6A    -15.588485
       7A    -11.339895     8A    -11.294666     9A    -11.275075
      10A    -11.274921    11A    -11.265333    12A     -9.179676
      13A     -6.864900    14A     -6.864448    15A     -6.864084
      16A     -1.463457    17A     -1.371740    18A     -1.343321
      19A     -1.257064    20A     -1.200458    21A     -1.051980
      22A     -0.981153    23A     -0.959842    24A     -0.878000
      25A     -0.842284    26A     -0.819916    27A     -0.752251
      28A     -0.709909    29A     -0.677443    30A     -0.667147
      31A     -0.643400    32A     -0.633925    33A     -0.625921
      34A     -0.617350    35A     -0.608737    36A     -0.576852
      37A     -0.570628    38A     -0.541281    39A     -0.513379
      40A     -0.506130    41A     -0.486338    42A     -0.478026
      43A     -0.472008    44A     -0.430869    45A     -0.417620
      46A     -0.347562

  @DF-RHF Final Energy:  -905.30582940364172

   => Energetics <=

    Nuclear Repulsion Energy =            797.0839538235055670
    One-Electron Energy =               -2825.0767892293993100
    Two-Electron Energy =                1122.6870060022520192
    Total Energy =                       -905.3058294036418374
  Basis Set: (AUG-CC-PVTZ AUX)
    Blend: AUG-CC-PVTZ-RI
    Molecular point group: c1

    Geometry (in Angstrom), charge = 0, multiplicity = 1:

       Center              X                  Y                   Z               Mass
    ------------   -----------------  -----------------  -----------------  -----------------
         S            0.767590806719    -0.675600537022    -0.279660145477    31.972071174400
         O            0.795873306719    -1.836346137022     0.618982054523    15.994914619570
         O            1.142888806719    -0.803166537022    -1.682514145477    15.994914619570
         N            1.740451806719     0.486752462978     0.395242854523    14.003074004430
         N           -1.845181193281    -0.737200537022     0.492077854523    14.003074004430
         N           -1.323225193281     1.121110462978    -0.638281145477    14.003074004430
         C           -0.877395193281    -0.039538537022    -0.165646145477    12.000000000000
         C            1.464489806719     0.778406462978     1.805380854523    12.000000000000
         C            1.964180806719     1.686950462978    -0.425704145477    12.000000000000
         C           -2.992793193281     0.008936462978     0.430693854523    12.000000000000
         C           -2.644288193281     1.151844462978    -0.266633145477    12.000000000000
         H            1.352215806719    -0.157455537022     2.351795854523     1.007825032230
         H            0.566278806719     1.399513462978     1.928992854523     1.007825032230
         H            2.327216806719     1.316712462978     2.203750854523     1.007825032230
         H            2.174642806719     1.382769462978    -1.449532145477     1.007825032230
         H            2.839851806719     2.196896462978    -0.017617145477     1.007825032230
         H            1.098240806719     2.358644462978    -0.409329145477     1.007825032230
         H           -1.697002193281    -1.643724537022     0.925914854523     1.007825032230
         H           -3.922406193281    -0.323775537022     0.868873854523     1.007825032230
         H           -3.276857193281     1.991726462978    -0.520872145477     1.007825032230

  Basis Set: AUG-CC-PVTZ
    Blend: AUG-CC-PVTZ
  Basis Set: (AUG-CC-PVTZ AUX)
    Blend: AUG-CC-PVTZ-JKFIT
	 Reference Energy          =    -905.3058294036417237 [Eh]
	 Singles Energy            =      -0.0000000000000000 [Eh]
	 Same-Spin Energy          =      -0.5974054661770902 [Eh]
	 Opposite-Spin Energy      =      -1.7753549193261431 [Eh]
	 Correlation Energy        =      -2.3727603855032333 [Eh]
	 Total Energy              =    -907.6785897891450077 [Eh]

	 ================> DF-SCS-MP2 Energies <==================
	-----------------------------------------------------------
	 SCS Same-Spin Scale       =       0.3333333333333333 [-]
	 SCS Opposite-Spin Scale   =       1.2000000000000000 [-]
	 SCS Same-Spin Energy      =      -0.1991351553923634 [Eh]
	 SCS Opposite-Spin Energy  =      -2.1304259031913717 [Eh]
	 SCS Correlation Energy    =      -2.3295610585837352 [Eh]
	 SCS Total Energy          =    -907.6353904622254731 [Eh]
	-----------------------------------------------------------

  Dipole Moment: [D]
     X:    -2.8464      Y:     1.9167      Z:     3.5983     Total:     4.9723

*** Psi4 exiting successfully. Buy a developer a beer!
