                               Psi4 1.3.2 release

  ==> Input File <==

--------------------------------------------------------------------------
#psi4
#
memory 32 gb

molecule  {
0 1
  S        0.7637890    -0.7221230    -0.3122950
  O        0.7428910    -1.8740890     0.5977740
  O        1.1390870    -0.8496890    -1.7151490
  N        1.7366500     0.4402300     0.3626080
  N       -1.8489830    -0.7837230     0.4594430
  N       -1.3270270     1.0745880    -0.6709160
  C       -0.8811970    -0.0860610    -0.1982810
  C        1.4606880     0.7318840     1.7727460
  C        1.9603790     1.6404280    -0.4583390
  C       -2.9965950    -0.0375860     0.3980590
  C       -2.5585627     1.0697833    -0.3060861
  H        1.3484140    -0.2039780     2.3191610
  H        0.5624770     1.3529910     1.8963580
  H        2.3234150     1.2701900     2.1711160
  H        2.1708410     1.3362470    -1.4821670
  H        2.8360500     2.1503740    -0.0502520
  H        1.0944390     2.3121220    -0.4419640
  H       -1.7008040    -1.6902470     0.8932800
  H       -3.9262080    -0.3702980     0.8362390
  H       -3.2806590     1.9452040    -0.5535070
units angstrom
no_reorient  #important for SAPT in psi4, default
symmetry c1  #important for SAPT in psi4, default
}

set PROPERTIES_ORIGIN ["COM"]
properties('MP2/aug-cc-pvtz', properties = ['dipole'])
--------------------------------------------------------------------------

    Molecular point group: c1
  Charge       = 0
  Multiplicity = 1
  Basis Set: AUG-CC-PVTZ
    Blend: AUG-CC-PVTZ
  Basis Set: (AUG-CC-PVTZ AUX)
    Blend: AUG-CC-PVTZ-JKFIT

    Orbital Energies [Eh]
    ---------------------

    Doubly Occupied:

       1A    -92.214948     2A    -20.557550     3A    -20.555295
       4A    -15.660005     5A    -15.610965     6A    -15.583571
       7A    -11.336298     8A    -11.288994     9A    -11.275427
      10A    -11.273445    11A    -11.266590    12A     -9.179430
      13A     -6.864641    14A     -6.864254    15A     -6.863837
      16A     -1.463906    17A     -1.385906    18A     -1.345019
      19A     -1.257923    20A     -1.220904    21A     -1.048728
      22A     -0.981922    23A     -0.959280    24A     -0.883587
      25A     -0.836701    26A     -0.821179    27A     -0.752925
      28A     -0.710997    29A     -0.677845    30A     -0.668723
      31A     -0.646593    32A     -0.642477    33A     -0.630122
      34A     -0.613613    35A     -0.593671    36A     -0.577009
      37A     -0.571156    38A     -0.542154    39A     -0.513000
      40A     -0.507802    41A     -0.480621    42A     -0.479494
      43A     -0.475943    44A     -0.444568    45A     -0.418802
      46A     -0.340262

  @DF-RHF Final Energy:  -905.29299302033576

   => Energetics <=

    Nuclear Repulsion Energy =            799.9547376609431240
    One-Electron Energy =               -2830.7192975932221088
    Two-Electron Energy =                1125.4715669119434551
    Total Energy =                       -905.2929930203356435
  Basis Set: (AUG-CC-PVTZ AUX)
    Blend: AUG-CC-PVTZ-RI
    Molecular point group: c1

    Geometry (in Angstrom), charge = 0, multiplicity = 1:

       Center              X                  Y                   Z               Mass
    ------------   -----------------  -----------------  -----------------  -----------------
         S            0.765947255772    -0.673966436711    -0.280236885638    31.972071174400
         O            0.745049255772    -1.825932436711     0.629832114362    15.994914619570
         O            1.141245255772    -0.801532436711    -1.683090885638    15.994914619570
         N            1.738808255772     0.488386563289     0.394666114362    14.003074004430
         N           -1.846824744228    -0.735566436711     0.491501114362    14.003074004430
         N           -1.324868744228     1.122744563289    -0.638857885638    14.003074004430
         C           -0.879038744228    -0.037904436711    -0.166222885638    12.000000000000
         C            1.462846255772     0.780040563289     1.804804114362    12.000000000000
         C            1.962537255772     1.688584563289    -0.426280885638    12.000000000000
         C           -2.994436744228     0.010570563289     0.430117114362    12.000000000000
         C           -2.556404444228     1.117939863289    -0.274027985638    12.000000000000
         H            1.350572255772    -0.155821436711     2.351219114362     1.007825032230
         H            0.564635255772     1.401147563289     1.928416114362     1.007825032230
         H            2.325573255772     1.318346563289     2.203174114362     1.007825032230
         H            2.172999255772     1.384403563289    -1.450108885638     1.007825032230
         H            2.838208255772     2.198530563289    -0.018193885638     1.007825032230
         H            1.096597255772     2.360278563289    -0.409905885638     1.007825032230
         H           -1.698645744228    -1.642090436711     0.925338114362     1.007825032230
         H           -3.924049744228    -0.322141436711     0.868297114362     1.007825032230
         H           -3.278500744228     1.993360563289    -0.521448885638     1.007825032230

  Basis Set: AUG-CC-PVTZ
    Blend: AUG-CC-PVTZ
  Basis Set: (AUG-CC-PVTZ AUX)
    Blend: AUG-CC-PVTZ-JKFIT
	 Reference Energy          =    -905.2929930203357571 [Eh]
	 Singles Energy            =      -0.0000000000000000 [Eh]
	 Same-Spin Energy          =      -0.5983821051532028 [Eh]
	 Opposite-Spin Energy      =      -1.7754691494510917 [Eh]
	 Correlation Energy        =      -2.3738512546042942 [Eh]
	 Total Energy              =    -907.6668442749401038 [Eh]

	 ================> DF-SCS-MP2 Energies <==================
	-----------------------------------------------------------
	 SCS Same-Spin Scale       =       0.3333333333333333 [-]
	 SCS Opposite-Spin Scale   =       1.2000000000000000 [-]
	 SCS Same-Spin Energy      =      -0.1994607017177343 [Eh]
	 SCS Opposite-Spin Energy  =      -2.1305629793413101 [Eh]
	 SCS Correlation Energy    =      -2.3300236810590444 [Eh]
	 SCS Total Energy          =    -907.6230167013948176 [Eh]
	-----------------------------------------------------------

  Dipole Moment: [D]
     X:    -2.6383      Y:     1.8384      Z:     3.5770     Total:     4.8099

*** Psi4 exiting successfully. Buy a developer a beer!
