                               Psi4 1.3.2 release

  ==> Input File <==

--------------------------------------------------------------------------
#psi4
#
memory 32 gb

molecule  {
0 1
  S        0.7637890    -0.7221230    -0.3122950
  O        0.7428910    -1.8740890     0.5977740
  O        1.1390870    -0.8496890    -1.7151490
  N        1.7366500     0.4402300     0.3626080
  N       -1.8489830    -0.7837230     0.4594430
  N       -1.3270270     1.0745880    -0.6709160
  C       -0.9742730    -0.0500716    -0.1918299
  C        1.4606880     0.7318840     1.7727460
  C        1.9603790     1.6404280    -0.4583390
  C       -2.9965950    -0.0375860     0.3980590
  C       -2.6480900     1.1053220    -0.2992680
  H        1.3484140    -0.2039780     2.3191610
  H        0.5624770     1.3529910     1.8963580
  H        2.3234150     1.2701900     2.1711160
  H        2.1708410     1.3362470    -1.4821670
  H        2.8360500     2.1503740    -0.0502520
  H        1.0944390     2.3121220    -0.4419640
  H       -1.7008040    -1.6902470     0.8932800
  H       -3.9262080    -0.3702980     0.8362390
  H       -3.2806590     1.9452040    -0.5535070
units angstrom
no_reorient  #important for SAPT in psi4, default
symmetry c1  #important for SAPT in psi4, default
}

set PROPERTIES_ORIGIN ["COM"]
properties('MP2/aug-cc-pvtz', properties = ['dipole'])
--------------------------------------------------------------------------

    Molecular point group: c1
  Charge       = 0
  Multiplicity = 1
  Basis Set: AUG-CC-PVTZ
    Blend: AUG-CC-PVTZ
  Basis Set: (AUG-CC-PVTZ AUX)
    Blend: AUG-CC-PVTZ-JKFIT

    Orbital Energies [Eh]
    ---------------------

    Doubly Occupied:

       1A    -92.211637     2A    -20.557544     3A    -20.554815
       4A    -15.651660     5A    -15.610758     6A    -15.579455
       7A    -11.337849     8A    -11.288782     9A    -11.275374
      10A    -11.273434    11A    -11.265885    12A     -9.175906
      13A     -6.860975    14A     -6.860506    15A     -6.860251
      16A     -1.460392    17A     -1.393403    18A     -1.343641
      19A     -1.256878    20A     -1.220763    21A     -1.041970
      22A     -0.981478    23A     -0.954815    24A     -0.866969
      25A     -0.844412    26A     -0.831747    27A     -0.751876
      28A     -0.708526    29A     -0.673613    30A     -0.666352
      31A     -0.646703    32A     -0.640517    33A     -0.628962
      34A     -0.615991    35A     -0.609005    36A     -0.576752
      37A     -0.571162    38A     -0.541705    39A     -0.511019
      40A     -0.506170    41A     -0.494725    42A     -0.478711
      43A     -0.462846    44A     -0.438303    45A     -0.412755
      46A     -0.348717

  @DF-RHF Final Energy:  -905.29995104749366

   => Energetics <=

    Nuclear Repulsion Energy =            797.0150065562631880
    One-Electron Energy =               -2824.9384911303209265
    Two-Electron Energy =                1122.6235335265639605
    Total Energy =                       -905.2999510474937779
  Basis Set: (AUG-CC-PVTZ AUX)
    Blend: AUG-CC-PVTZ-RI
    Molecular point group: c1

    Geometry (in Angstrom), charge = 0, multiplicity = 1:

       Center              X                  Y                   Z               Mass
    ------------   -----------------  -----------------  -----------------  -----------------
         S            0.778465652853    -0.678870056516    -0.281146557667    31.972071174400
         O            0.757567652853    -1.830836056516     0.628922442333    15.994914619570
         O            1.153763652853    -0.806436056516    -1.684000557667    15.994914619570
         N            1.751326652853     0.483482943484     0.393756442333    14.003074004430
         N           -1.834306347147    -0.740470056516     0.490591442333    14.003074004430
         N           -1.312350347147     1.117840943484    -0.639767557667    14.003074004430
         C           -0.959596347147    -0.006818656516    -0.160681457667    12.000000000000
         C            1.475364652853     0.775136943484     1.803894442333    12.000000000000
         C            1.975055652853     1.683680943484    -0.427190557667    12.000000000000
         C           -2.981918347147     0.005666943484     0.429207442333    12.000000000000
         C           -2.633413347147     1.148574943484    -0.268119557667    12.000000000000
         H            1.363090652853    -0.160725056516     2.350309442333     1.007825032230
         H            0.577153652853     1.396243943484     1.927506442333     1.007825032230
         H            2.338091652853     1.313442943484     2.202264442333     1.007825032230
         H            2.185517652853     1.379499943484    -1.451018557667     1.007825032230
         H            2.850726652853     2.193626943484    -0.019103557667     1.007825032230
         H            1.109115652853     2.355374943484    -0.410815557667     1.007825032230
         H           -1.686127347147    -1.646994056516     0.924428442333     1.007825032230
         H           -3.911531347147    -0.327045056516     0.867387442333     1.007825032230
         H           -3.265982347147     1.988456943484    -0.522358557667     1.007825032230

  Basis Set: AUG-CC-PVTZ
    Blend: AUG-CC-PVTZ
  Basis Set: (AUG-CC-PVTZ AUX)
    Blend: AUG-CC-PVTZ-JKFIT
	 Reference Energy          =    -905.2999510474936642 [Eh]
	 Singles Energy            =      -0.0000000000000000 [Eh]
	 Same-Spin Energy          =      -0.5954973739160201 [Eh]
	 Opposite-Spin Energy      =      -1.7723229226200670 [Eh]
	 Correlation Energy        =      -2.3678202965360873 [Eh]
	 Total Energy              =    -907.6677713440298021 [Eh]

	 ================> DF-SCS-MP2 Energies <==================
	-----------------------------------------------------------
	 SCS Same-Spin Scale       =       0.3333333333333333 [-]
	 SCS Opposite-Spin Scale   =       1.2000000000000000 [-]
	 SCS Same-Spin Energy      =      -0.1984991246386734 [Eh]
	 SCS Opposite-Spin Energy  =      -2.1267875071440803 [Eh]
	 SCS Correlation Energy    =      -2.3252866317827534 [Eh]
	 SCS Total Energy          =    -907.6252376792764380 [Eh]
	-----------------------------------------------------------

  Dipole Moment: [D]
     X:    -2.5711      Y:     1.8628      Z:     3.5502     Total:     4.7628

*** Psi4 exiting successfully. Buy a developer a beer!
