                               Psi4 1.3.2 release

  ==> Input File <==

--------------------------------------------------------------------------
#psi4
#
memory 32 gb

molecule  {
0 1
  S        0.7637890    -0.7221230    -0.3122950
  O        0.7428910    -1.8740890     0.5977740
  O        1.1390870    -0.8496890    -1.7151490
  N        1.7366500     0.4402300     0.3626080
  N       -1.7853290    -0.6780527     0.3862838
  N       -1.3270270     1.0745880    -0.6709160
  C       -0.8811970    -0.0860610    -0.1982810
  C        1.4606880     0.7318840     1.7727460
  C        1.9603790     1.6404280    -0.4583390
  C       -2.9965950    -0.0375860     0.3980590
  C       -2.6480900     1.1053220    -0.2992680
  H        1.3484140    -0.2039780     2.3191610
  H        0.5624770     1.3529910     1.8963580
  H        2.3234150     1.2701900     2.1711160
  H        2.1708410     1.3362470    -1.4821670
  H        2.8360500     2.1503740    -0.0502520
  H        1.0944390     2.3121220    -0.4419640
  H       -1.7008040    -1.6902470     0.8932800
  H       -3.9262080    -0.3702980     0.8362390
  H       -3.2806590     1.9452040    -0.5535070
units angstrom
no_reorient  #important for SAPT in psi4, default
symmetry c1  #important for SAPT in psi4, default
}

set PROPERTIES_ORIGIN ["COM"]
properties('MP2/aug-cc-pvtz', properties = ['dipole'])
--------------------------------------------------------------------------

    Molecular point group: c1
  Charge       = 0
  Multiplicity = 1
  Basis Set: AUG-CC-PVTZ
    Blend: AUG-CC-PVTZ
  Basis Set: (AUG-CC-PVTZ AUX)
    Blend: AUG-CC-PVTZ-JKFIT

    Orbital Energies [Eh]
    ---------------------

    Doubly Occupied:

       1A    -92.217523     2A    -20.560679     3A    -20.557768
       4A    -15.661352     5A    -15.612655     6A    -15.567082
       7A    -11.324219     8A    -11.282569     9A    -11.276284
      10A    -11.272103    11A    -11.265761    12A     -9.182194
      13A     -6.867410    14A     -6.867006    15A     -6.866567
      16A     -1.467788    17A     -1.405710    18A     -1.347461
      19A     -1.259096    20A     -1.184605    21A     -1.065632
      22A     -0.982281    23A     -0.962191    24A     -0.870144
      25A     -0.842321    26A     -0.815587    27A     -0.754559
      28A     -0.713359    29A     -0.685533    30A     -0.671016
      31A     -0.654762    32A     -0.639489    33A     -0.621133
      34A     -0.612662    35A     -0.594257    36A     -0.578091
      37A     -0.571294    38A     -0.542451    39A     -0.515585
      40A     -0.508948    41A     -0.483922    42A     -0.481654
      43A     -0.461804    44A     -0.418961    45A     -0.418634
      46A     -0.350848

  @DF-RHF Final Energy:  -905.27325199277391

   => Energetics <=

    Nuclear Repulsion Energy =            801.4841249483066576
    One-Electron Energy =               -2833.7888588066325610
    Two-Electron Energy =                1127.0314818655522231
    Total Energy =                       -905.2732519927737940
  Basis Set: (AUG-CC-PVTZ AUX)
    Blend: AUG-CC-PVTZ-RI
    Molecular point group: c1

    Geometry (in Angstrom), charge = 0, multiplicity = 1:

       Center              X                  Y                   Z               Mass
    ------------   -----------------  -----------------  -----------------  -----------------
         S            0.766992584323    -0.684856270901    -0.274851669933    31.972071174400
         O            0.746094584323    -1.836822270901     0.635217330067    15.994914619570
         O            1.142290584323    -0.812422270901    -1.677705669933    15.994914619570
         N            1.739853584323     0.477496729099     0.400051330067    14.003074004430
         N           -1.782125415677    -0.640785970901     0.423727130067    14.003074004430
         N           -1.323823415677     1.111854729099    -0.633472669933    14.003074004430
         C           -0.877993415677    -0.048794270901    -0.160837669933    12.000000000000
         C            1.463891584323     0.769150729099     1.810189330067    12.000000000000
         C            1.963582584323     1.677694729099    -0.420895669933    12.000000000000
         C           -2.993391415677    -0.000319270901     0.435502330067    12.000000000000
         C           -2.644886415677     1.142588729099    -0.261824669933    12.000000000000
         H            1.351617584323    -0.166711270901     2.356604330067     1.007825032230
         H            0.565680584323     1.390257729099     1.933801330067     1.007825032230
         H            2.326618584323     1.307456729099     2.208559330067     1.007825032230
         H            2.174044584323     1.373513729099    -1.444723669933     1.007825032230
         H            2.839253584323     2.187640729099    -0.012808669933     1.007825032230
         H            1.097642584323     2.349388729099    -0.404520669933     1.007825032230
         H           -1.697600415677    -1.652980270901     0.930723330067     1.007825032230
         H           -3.923004415677    -0.333031270901     0.873682330067     1.007825032230
         H           -3.277455415677     1.982470729099    -0.516063669933     1.007825032230

  Basis Set: AUG-CC-PVTZ
    Blend: AUG-CC-PVTZ
  Basis Set: (AUG-CC-PVTZ AUX)
    Blend: AUG-CC-PVTZ-JKFIT
	 Reference Energy          =    -905.2732519927739077 [Eh]
	 Singles Energy            =      -0.0000000000000000 [Eh]
	 Same-Spin Energy          =      -0.5983557143633254 [Eh]
	 Opposite-Spin Energy      =      -1.7754433817935091 [Eh]
	 Correlation Energy        =      -2.3737990961568345 [Eh]
	 Total Energy              =    -907.6470510889307661 [Eh]

	 ================> DF-SCS-MP2 Energies <==================
	-----------------------------------------------------------
	 SCS Same-Spin Scale       =       0.3333333333333333 [-]
	 SCS Opposite-Spin Scale   =       1.2000000000000000 [-]
	 SCS Same-Spin Energy      =      -0.1994519047877751 [Eh]
	 SCS Opposite-Spin Energy  =      -2.1305320581522107 [Eh]
	 SCS Correlation Energy    =      -2.3299839629399859 [Eh]
	 SCS Total Energy          =    -907.6032359557138989 [Eh]
	-----------------------------------------------------------

  Dipole Moment: [D]
     X:    -2.6081      Y:     1.6222      Z:     3.7043     Total:     4.8120

*** Psi4 exiting successfully. Buy a developer a beer!
