                               Psi4 1.3.2 release

  ==> Input File <==

--------------------------------------------------------------------------
#psi4
#
memory 32 gb

molecule  {
0 1
  S        0.7637890    -0.7221230    -0.3122950
  O        0.7428910    -1.8740890     0.5977740
  O        1.1390870    -0.8496890    -1.7151490
  N        1.7366500     0.4402300     0.3626080
  N       -1.8730113    -0.8171438     0.4837974
  N       -1.3270270     1.0745880    -0.6709160
  C       -0.8811970    -0.0860610    -0.1982810
  C        1.4606880     0.7318840     1.7727460
  C        1.9603790     1.6404280    -0.4583390
  C       -2.9965950    -0.0375860     0.3980590
  C       -2.6480900     1.1053220    -0.2992680
  H        1.3484140    -0.2039780     2.3191610
  H        0.5624770     1.3529910     1.8963580
  H        2.3234150     1.2701900     2.1711160
  H        2.1708410     1.3362470    -1.4821670
  H        2.8360500     2.1503740    -0.0502520
  H        1.0944390     2.3121220    -0.4419640
  H       -1.7008040    -1.6902470     0.8932800
  H       -3.9262080    -0.3702980     0.8362390
  H       -3.2806590     1.9452040    -0.5535070
units angstrom
no_reorient  #important for SAPT in psi4, default
symmetry c1  #important for SAPT in psi4, default
}

set PROPERTIES_ORIGIN ["COM"]
properties('MP2/aug-cc-pvtz', properties = ['dipole'])
--------------------------------------------------------------------------

    Molecular point group: c1
  Charge       = 0
  Multiplicity = 1
  Basis Set: AUG-CC-PVTZ
    Blend: AUG-CC-PVTZ
  Basis Set: (AUG-CC-PVTZ AUX)
    Blend: AUG-CC-PVTZ-JKFIT

    Orbital Energies [Eh]
    ---------------------

    Doubly Occupied:

       1A    -92.215529     2A    -20.557987     3A    -20.555560
       4A    -15.652513     5A    -15.611128     6A    -15.592979
       7A    -11.341409     8A    -11.297083     9A    -11.275101
      10A    -11.274124    11A    -11.266365    12A     -9.180001
      13A     -6.865222    14A     -6.864814    15A     -6.864396
      16A     -1.463665    17A     -1.361190    18A     -1.344854
      19A     -1.257874    20A     -1.203620    21A     -1.046522
      22A     -0.981697    23A     -0.960410    24A     -0.881863
      25A     -0.844708    26A     -0.811358    27A     -0.752778
      28A     -0.710469    29A     -0.677847    30A     -0.667608
      31A     -0.644628    32A     -0.631208    33A     -0.621152
      34A     -0.617027    35A     -0.607944    36A     -0.577034
      37A     -0.571184    38A     -0.541937    39A     -0.513643
      40A     -0.507603    41A     -0.487227    42A     -0.479620
      43A     -0.473108    44A     -0.433320    45A     -0.417874
      46A     -0.344339

  @DF-RHF Final Energy:  -905.30169778887910

   => Energetics <=

    Nuclear Repulsion Energy =            796.1928447504601536
    One-Electron Energy =               -2823.2900397545513442
    Two-Electron Energy =                1121.7954972152119808
    Total Energy =                       -905.3016977888792098
  Basis Set: (AUG-CC-PVTZ AUX)
    Blend: AUG-CC-PVTZ-RI
    Molecular point group: c1

    Geometry (in Angstrom), charge = 0, multiplicity = 1:

       Center              X                  Y                   Z               Mass
    ------------   -----------------  -----------------  -----------------  -----------------
         S            0.774007043186    -0.673729181407    -0.282652618765    31.972071174400
         O            0.753109043186    -1.825695181407     0.627416381235    15.994914619570
         O            1.149305043186    -0.801295181407    -1.685506618765    15.994914619570
         N            1.746868043186     0.488623818593     0.392250381235    14.003074004430
         N           -1.862793256814    -0.768749981407     0.513439781235    14.003074004430
         N           -1.316808956814     1.122981818593    -0.641273618765    14.003074004430
         C           -0.870978956814    -0.037667181407    -0.168638618765    12.000000000000
         C            1.470906043186     0.780277818593     1.802388381235    12.000000000000
         C            1.970597043186     1.688821818593    -0.428696618765    12.000000000000
         C           -2.986376956814     0.010807818593     0.427701381235    12.000000000000
         C           -2.637871956814     1.153715818593    -0.269625618765    12.000000000000
         H            1.358632043186    -0.155584181407     2.348803381235     1.007825032230
         H            0.572695043186     1.401384818593     1.926000381235     1.007825032230
         H            2.333633043186     1.318583818593     2.200758381235     1.007825032230
         H            2.181059043186     1.384640818593    -1.452524618765     1.007825032230
         H            2.846268043186     2.198767818593    -0.020609618765     1.007825032230
         H            1.104657043186     2.360515818593    -0.412321618765     1.007825032230
         H           -1.690585956814    -1.641853181407     0.922922381235     1.007825032230
         H           -3.915989956814    -0.321904181407     0.865881381235     1.007825032230
         H           -3.270440956814     1.993597818593    -0.523864618765     1.007825032230

  Basis Set: AUG-CC-PVTZ
    Blend: AUG-CC-PVTZ
  Basis Set: (AUG-CC-PVTZ AUX)
    Blend: AUG-CC-PVTZ-JKFIT
	 Reference Energy          =    -905.3016977888790962 [Eh]
	 Singles Energy            =      -0.0000000000000000 [Eh]
	 Same-Spin Energy          =      -0.5974395693925139 [Eh]
	 Opposite-Spin Energy      =      -1.7761465911912355 [Eh]
	 Correlation Energy        =      -2.3735861605837494 [Eh]
	 Total Energy              =    -907.6752839494628233 [Eh]

	 ================> DF-SCS-MP2 Energies <==================
	-----------------------------------------------------------
	 SCS Same-Spin Scale       =       0.3333333333333333 [-]
	 SCS Opposite-Spin Scale   =       1.2000000000000000 [-]
	 SCS Same-Spin Energy      =      -0.1991465231308379 [Eh]
	 SCS Opposite-Spin Energy  =      -2.1313759094294826 [Eh]
	 SCS Correlation Energy    =      -2.3305224325603207 [Eh]
	 SCS Total Energy          =    -907.6322202214394110 [Eh]
	-----------------------------------------------------------

  Dipole Moment: [D]
     X:    -2.6709      Y:     1.9918      Z:     3.5140     Total:     4.8424

*** Psi4 exiting successfully. Buy a developer a beer!
