                               Psi4 1.3.2 release

  ==> Input File <==

--------------------------------------------------------------------------
#psi4
#
memory 32 gb

molecule  {
0 1
  S        0.7637890    -0.7221230    -0.3122950
  O        0.7428910    -1.8740890     0.5977740
  O        1.1905760    -0.8671904    -1.9076135
  N        1.7366500     0.4402300     0.3626080
  N       -1.8489830    -0.7837230     0.4594430
  N       -1.3270270     1.0745880    -0.6709160
  C       -0.8811970    -0.0860610    -0.1982810
  C        1.4606880     0.7318840     1.7727460
  C        1.9603790     1.6404280    -0.4583390
  C       -2.9965950    -0.0375860     0.3980590
  C       -2.6480900     1.1053220    -0.2992680
  H        1.3484140    -0.2039780     2.3191610
  H        0.5624770     1.3529910     1.8963580
  H        2.3234150     1.2701900     2.1711160
  H        2.1708410     1.3362470    -1.4821670
  H        2.8360500     2.1503740    -0.0502520
  H        1.0944390     2.3121220    -0.4419640
  H       -1.7008040    -1.6902470     0.8932800
  H       -3.9262080    -0.3702980     0.8362390
  H       -3.2806590     1.9452040    -0.5535070
units angstrom
no_reorient  #important for SAPT in psi4, default
symmetry c1  #important for SAPT in psi4, default
}

set PROPERTIES_ORIGIN ["COM"]
properties('MP2/aug-cc-pvtz', properties = ['dipole'])
--------------------------------------------------------------------------

    Molecular point group: c1
  Charge       = 0
  Multiplicity = 1
  Basis Set: AUG-CC-PVTZ
    Blend: AUG-CC-PVTZ
  Basis Set: (AUG-CC-PVTZ AUX)
    Blend: AUG-CC-PVTZ-JKFIT

    Orbital Energies [Eh]
    ---------------------

    Doubly Occupied:

       1A    -92.220791     2A    -20.569374     3A    -20.554185
       4A    -15.660543     5A    -15.620314     6A    -15.591768
       7A    -11.345395     8A    -11.297923     9A    -11.280853
      10A    -11.277613    11A    -11.267760    12A     -9.186084
      13A     -6.870854    14A     -6.870514    15A     -6.869274
      16A     -1.439744    17A     -1.373402    18A     -1.288873
      19A     -1.249137    20A     -1.203403    21A     -1.056345
      22A     -0.986009    23A     -0.970310    24A     -0.880247
      25A     -0.845104    26A     -0.823561    27A     -0.755726
      28A     -0.705452    29A     -0.677686    30A     -0.666217
      31A     -0.639955    32A     -0.636572    33A     -0.629164
      34A     -0.618636    35A     -0.595817    36A     -0.575418
      37A     -0.573764    38A     -0.545363    39A     -0.502364
      40A     -0.493128    41A     -0.481537    42A     -0.462167
      43A     -0.458178    44A     -0.432697    45A     -0.422614
      46A     -0.350548

  @DF-RHF Final Energy:  -905.25849102399673

   => Energetics <=

    Nuclear Repulsion Energy =            788.0398904915235789
    One-Electron Energy =               -2806.9519948061106334
    Two-Electron Energy =                1113.6536132905903287
    Total Energy =                       -905.2584910239966121
  Basis Set: (AUG-CC-PVTZ AUX)
    Blend: AUG-CC-PVTZ-RI
    Molecular point group: c1

    Geometry (in Angstrom), charge = 0, multiplicity = 1:

       Center              X                  Y                   Z               Mass
    ------------   -----------------  -----------------  -----------------  -----------------
         S            0.767379861027    -0.674803557973    -0.263117315548    31.972071174400
         O            0.746481861027    -1.826769557973     0.646951684452    15.994914619570
         O            1.194166861027    -0.819870957973    -1.858435815548    15.994914619570
         N            1.740240861027     0.487549442027     0.411785684452    14.003074004430
         N           -1.845392138973    -0.736403557973     0.508620684452    14.003074004430
         N           -1.323436138973     1.121907442027    -0.621738315548    14.003074004430
         C           -0.877606138973    -0.038741557973    -0.149103315548    12.000000000000
         C            1.464278861027     0.779203442027     1.821923684452    12.000000000000
         C            1.963969861027     1.687747442027    -0.409161315548    12.000000000000
         C           -2.993004138973     0.009733442027     0.447236684452    12.000000000000
         C           -2.644499138973     1.152641442027    -0.250090315548    12.000000000000
         H            1.352004861027    -0.156658557973     2.368338684452     1.007825032230
         H            0.566067861027     1.400310442027     1.945535684452     1.007825032230
         H            2.327005861027     1.317509442027     2.220293684452     1.007825032230
         H            2.174431861027     1.383566442027    -1.432989315548     1.007825032230
         H            2.839640861027     2.197693442027    -0.001074315548     1.007825032230
         H            1.098029861027     2.359441442027    -0.392786315548     1.007825032230
         H           -1.697213138973    -1.642927557973     0.942457684452     1.007825032230
         H           -3.922617138973    -0.322978557973     0.885416684452     1.007825032230
         H           -3.277068138973     1.992523442027    -0.504329315548     1.007825032230

  Basis Set: AUG-CC-PVTZ
    Blend: AUG-CC-PVTZ
  Basis Set: (AUG-CC-PVTZ AUX)
    Blend: AUG-CC-PVTZ-JKFIT
	 Reference Energy          =    -905.2584910239967257 [Eh]
	 Singles Energy            =      -0.0000000000000000 [Eh]
	 Same-Spin Energy          =      -0.5998244815275937 [Eh]
	 Opposite-Spin Energy      =      -1.7832465180488877 [Eh]
	 Correlation Energy        =      -2.3830709995764812 [Eh]
	 Total Energy              =    -907.6415620235732149 [Eh]

	 ================> DF-SCS-MP2 Energies <==================
	-----------------------------------------------------------
	 SCS Same-Spin Scale       =       0.3333333333333333 [-]
	 SCS Opposite-Spin Scale   =       1.2000000000000000 [-]
	 SCS Same-Spin Energy      =      -0.1999414938425312 [Eh]
	 SCS Opposite-Spin Energy  =      -2.1398958216586652 [Eh]
	 SCS Correlation Energy    =      -2.3398373155011964 [Eh]
	 SCS Total Energy          =    -907.5983283394979253 [Eh]
	-----------------------------------------------------------

  Dipole Moment: [D]
     X:    -3.1122      Y:     2.1599      Z:     4.5901     Total:     5.9515

*** Psi4 exiting successfully. Buy a developer a beer!
