                               Psi4 1.3.2 release

  ==> Input File <==

--------------------------------------------------------------------------
#psi4
#
memory 32 gb

molecule  {
0 1
  S        0.7637890    -0.7221230    -0.3122950
  O        0.7428910    -1.8740890     0.5977740
  O        1.1390870    -0.8496890    -1.7151490
  N        1.7366500     0.4402300     0.3626080
  N       -1.8489830    -0.7837230     0.4594430
  N       -1.3270270     1.0745880    -0.6709160
  C       -0.8506154    -0.1212397    -0.1888787
  C        1.4606880     0.7318840     1.7727460
  C        1.9603790     1.6404280    -0.4583390
  C       -2.9965950    -0.0375860     0.3980590
  C       -2.6480900     1.1053220    -0.2992680
  H        1.3484140    -0.2039780     2.3191610
  H        0.5624770     1.3529910     1.8963580
  H        2.3234150     1.2701900     2.1711160
  H        2.1708410     1.3362470    -1.4821670
  H        2.8360500     2.1503740    -0.0502520
  H        1.0944390     2.3121220    -0.4419640
  H       -1.7008040    -1.6902470     0.8932800
  H       -3.9262080    -0.3702980     0.8362390
  H       -3.2806590     1.9452040    -0.5535070
units angstrom
no_reorient  #important for SAPT in psi4, default
symmetry c1  #important for SAPT in psi4, default
}

set PROPERTIES_ORIGIN ["COM"]
properties('MP2/aug-cc-pvtz', properties = ['dipole'])
--------------------------------------------------------------------------

    Molecular point group: c1
  Charge       = 0
  Multiplicity = 1
  Basis Set: AUG-CC-PVTZ
    Blend: AUG-CC-PVTZ
  Basis Set: (AUG-CC-PVTZ AUX)
    Blend: AUG-CC-PVTZ-JKFIT

    Orbital Energies [Eh]
    ---------------------

    Doubly Occupied:

       1A    -92.215770     2A    -20.556912     3A    -20.555767
       4A    -15.659961     5A    -15.611407     6A    -15.590007
       7A    -11.337324     8A    -11.294703     9A    -11.275367
      10A    -11.274960    11A    -11.265733    12A     -9.180612
      13A     -6.865897    14A     -6.865504    15A     -6.864990
      16A     -1.465380    17A     -1.364737    18A     -1.344963
      19A     -1.258024    20A     -1.189398    21A     -1.054919
      22A     -0.981442    23A     -0.961934    24A     -0.882539
      25A     -0.838766    26A     -0.816625    27A     -0.752768
      28A     -0.711264    29A     -0.678306    30A     -0.668444
      31A     -0.643457    32A     -0.630220    33A     -0.623987
      34A     -0.617086    35A     -0.607582    36A     -0.576804
      37A     -0.570704    38A     -0.541649    39A     -0.514271
      40A     -0.507801    41A     -0.482236    42A     -0.479423
      43A     -0.471509    44A     -0.424969    45A     -0.419747
      46A     -0.345001

  @DF-RHF Final Energy:  -905.29922618058936

   => Energetics <=

    Nuclear Repulsion Energy =            797.7276820075369415
    One-Electron Energy =               -2826.3720794496216513
    Two-Electron Energy =                1123.3451712614953522
    Total Energy =                       -905.2992261805893577
  Basis Set: (AUG-CC-PVTZ AUX)
    Blend: AUG-CC-PVTZ-RI
    Molecular point group: c1

    Geometry (in Angstrom), charge = 0, multiplicity = 1:

       Center              X                  Y                   Z               Mass
    ------------   -----------------  -----------------  -----------------  -----------------
         S            0.769988287226    -0.673991116566    -0.281348877633    31.972071174400
         O            0.749090287226    -1.825957116566     0.628720122367    15.994914619570
         O            1.145286287226    -0.801557116566    -1.684202877633    15.994914619570
         N            1.742849287226     0.488361883434     0.393554122367    14.003074004430
         N           -1.842783712774    -0.735591116566     0.490389122367    14.003074004430
         N           -1.320827712774     1.122719883434    -0.639969877633    14.003074004430
         C           -0.844416112774    -0.073107816566    -0.157932577633    12.000000000000
         C            1.466887287226     0.780015883434     1.803692122367    12.000000000000
         C            1.966578287226     1.688559883434    -0.427392877633    12.000000000000
         C           -2.990395712774     0.010545883434     0.429005122367    12.000000000000
         C           -2.641890712774     1.153453883434    -0.268321877633    12.000000000000
         H            1.354613287226    -0.155846116566     2.350107122367     1.007825032230
         H            0.568676287226     1.401122883434     1.927304122367     1.007825032230
         H            2.329614287226     1.318321883434     2.202062122367     1.007825032230
         H            2.177040287226     1.384378883434    -1.451220877633     1.007825032230
         H            2.842249287226     2.198505883434    -0.019305877633     1.007825032230
         H            1.100638287226     2.360253883434    -0.411017877633     1.007825032230
         H           -1.694604712774    -1.642115116566     0.924226122367     1.007825032230
         H           -3.920008712774    -0.322166116566     0.867185122367     1.007825032230
         H           -3.274459712774     1.993335883434    -0.522560877633     1.007825032230

  Basis Set: AUG-CC-PVTZ
    Blend: AUG-CC-PVTZ
  Basis Set: (AUG-CC-PVTZ AUX)
    Blend: AUG-CC-PVTZ-JKFIT
	 Reference Energy          =    -905.2992261805893577 [Eh]
	 Singles Energy            =      -0.0000000000000000 [Eh]
	 Same-Spin Energy          =      -0.5989300220796815 [Eh]
	 Opposite-Spin Energy      =      -1.7777900220408018 [Eh]
	 Correlation Energy        =      -2.3767200441204834 [Eh]
	 Total Energy              =    -907.6759462247098327 [Eh]

	 ================> DF-SCS-MP2 Energies <==================
	-----------------------------------------------------------
	 SCS Same-Spin Scale       =       0.3333333333333333 [-]
	 SCS Opposite-Spin Scale   =       1.2000000000000000 [-]
	 SCS Same-Spin Energy      =      -0.1996433406932271 [Eh]
	 SCS Opposite-Spin Energy  =      -2.1333480264489619 [Eh]
	 SCS Correlation Energy    =      -2.3329913671421889 [Eh]
	 SCS Total Energy          =    -907.6322175477315568 [Eh]
	-----------------------------------------------------------

  Dipole Moment: [D]
     X:    -2.7939      Y:     1.9008      Z:     3.5951     Total:     4.9339

*** Psi4 exiting successfully. Buy a developer a beer!
