                               Psi4 1.3.2 release

  ==> Input File <==

--------------------------------------------------------------------------
#psi4
#
memory 32 gb

molecule  {
0 1
  S        0.7637890    -0.7221230    -0.3122950
  O        0.7428910    -1.8740890     0.5977740
  O        1.1390870    -0.8496890    -1.7151490
  N        1.7366500     0.4402300     0.3626080
  N       -1.8489830    -0.7837230     0.4594430
  N       -1.3270270     1.0745880    -0.6709160
  C       -0.9460370    -0.0186143    -0.2152718
  C        1.4606880     0.7318840     1.7727460
  C        1.9603790     1.6404280    -0.4583390
  C       -2.9965950    -0.0375860     0.3980590
  C       -2.6480900     1.1053220    -0.2992680
  H        1.3484140    -0.2039780     2.3191610
  H        0.5624770     1.3529910     1.8963580
  H        2.3234150     1.2701900     2.1711160
  H        2.1708410     1.3362470    -1.4821670
  H        2.8360500     2.1503740    -0.0502520
  H        1.0944390     2.3121220    -0.4419640
  H       -1.7008040    -1.6902470     0.8932800
  H       -3.9262080    -0.3702980     0.8362390
  H       -3.2806590     1.9452040    -0.5535070
units angstrom
no_reorient  #important for SAPT in psi4, default
symmetry c1  #important for SAPT in psi4, default
}

set PROPERTIES_ORIGIN ["COM"]
properties('MP2/aug-cc-pvtz', properties = ['dipole'])
--------------------------------------------------------------------------

    Molecular point group: c1
  Charge       = 0
  Multiplicity = 1
  Basis Set: AUG-CC-PVTZ
    Blend: AUG-CC-PVTZ
  Basis Set: (AUG-CC-PVTZ AUX)
    Blend: AUG-CC-PVTZ-JKFIT

    Orbital Energies [Eh]
    ---------------------

    Doubly Occupied:

       1A    -92.212509     2A    -20.559669     3A    -20.554464
       4A    -15.646967     5A    -15.609924     6A    -15.580660
       7A    -11.337574     8A    -11.291980     9A    -11.275290
      10A    -11.271904    11A    -11.266300    12A     -9.176842
      13A     -6.861962    14A     -6.861408    15A     -6.861223
      16A     -1.461127    17A     -1.386044    18A     -1.344437
      19A     -1.256925    20A     -1.220649    21A     -1.041737
      22A     -0.981568    23A     -0.956051    24A     -0.866987
      25A     -0.844881    26A     -0.822542    27A     -0.752167
      28A     -0.708876    29A     -0.675278    30A     -0.666672
      31A     -0.645311    32A     -0.637082    33A     -0.626553
      34A     -0.616280    35A     -0.609967    36A     -0.577068
      37A     -0.571394    38A     -0.541839    39A     -0.513327
      40A     -0.506806    41A     -0.497237    42A     -0.479297
      43A     -0.463592    44A     -0.441592    45A     -0.412146
      46A     -0.348008

  @DF-RHF Final Energy:  -905.30052866938900

   => Energetics <=

    Nuclear Repulsion Energy =            797.1034638526988374
    One-Electron Energy =               -2825.1237544793389134
    Two-Electron Energy =                1122.7197619572509666
    Total Energy =                       -905.3005286693889957
  Basis Set: (AUG-CC-PVTZ AUX)
    Blend: AUG-CC-PVTZ-RI
    Molecular point group: c1

    Geometry (in Angstrom), charge = 0, multiplicity = 1:

       Center              X                  Y                   Z               Mass
    ------------   -----------------  -----------------  -----------------  -----------------
         S            0.776529929567    -0.681026616515    -0.279539494638    31.972071174400
         O            0.755631929567    -1.832992616515     0.630529505362    15.994914619570
         O            1.151827929567    -0.808592616515    -1.682393494638    15.994914619570
         N            1.749390929567     0.481326383485     0.395363505362    14.003074004430
         N           -1.836242070433    -0.742626616515     0.492198505362    14.003074004430
         N           -1.314286070433     1.115684383485    -0.638160494638    14.003074004430
         C           -0.933296070433     0.022482083485    -0.182516294638    12.000000000000
         C            1.473428929567     0.772980383485     1.805501505362    12.000000000000
         C            1.973119929567     1.681524383485    -0.425583494638    12.000000000000
         C           -2.983854070433     0.003510383485     0.430814505362    12.000000000000
         C           -2.635349070433     1.146418383485    -0.266512494638    12.000000000000
         H            1.361154929567    -0.162881616515     2.351916505362     1.007825032230
         H            0.575217929567     1.394087383485     1.929113505362     1.007825032230
         H            2.336155929567     1.311286383485     2.203871505362     1.007825032230
         H            2.183581929567     1.377343383485    -1.449411494638     1.007825032230
         H            2.848790929567     2.191470383485    -0.017496494638     1.007825032230
         H            1.107179929567     2.353218383485    -0.409208494638     1.007825032230
         H           -1.688063070433    -1.649150616515     0.926035505362     1.007825032230
         H           -3.913467070433    -0.329201616515     0.868994505362     1.007825032230
         H           -3.267918070433     1.986300383485    -0.520751494638     1.007825032230

  Basis Set: AUG-CC-PVTZ
    Blend: AUG-CC-PVTZ
  Basis Set: (AUG-CC-PVTZ AUX)
    Blend: AUG-CC-PVTZ-JKFIT
	 Reference Energy          =    -905.3005286693889957 [Eh]
	 Singles Energy            =      -0.0000000000000000 [Eh]
	 Same-Spin Energy          =      -0.5951858350887151 [Eh]
	 Opposite-Spin Energy      =      -1.7721052550472507 [Eh]
	 Correlation Energy        =      -2.3672910901359661 [Eh]
	 Total Energy              =    -907.6678197595249458 [Eh]

	 ================> DF-SCS-MP2 Energies <==================
	-----------------------------------------------------------
	 SCS Same-Spin Scale       =       0.3333333333333333 [-]
	 SCS Opposite-Spin Scale   =       1.2000000000000000 [-]
	 SCS Same-Spin Energy      =      -0.1983952783629050 [Eh]
	 SCS Opposite-Spin Energy  =      -2.1265263060567006 [Eh]
	 SCS Correlation Energy    =      -2.3249215844196058 [Eh]
	 SCS Total Energy          =    -907.6254502538085944 [Eh]
	-----------------------------------------------------------

  Dipole Moment: [D]
     X:    -2.5457      Y:     1.9230      Z:     3.5071     Total:     4.7412

*** Psi4 exiting successfully. Buy a developer a beer!
