                               Psi4 1.3.2 release

  ==> Input File <==

--------------------------------------------------------------------------
#psi4
#
memory 32 gb

molecule  {
0 1
  S        0.7637890    -0.7221230    -0.3122950
  O        0.7428910    -1.8740890     0.5977740
  O        1.1390870    -0.8496890    -1.7151490
  N        1.7366500     0.4402300     0.3626080
  N       -1.8489830    -0.7837230     0.4594430
  N       -1.3270270     1.0745880    -0.6709160
  C       -0.7931371    -0.1939748    -0.1677167
  C        1.4606880     0.7318840     1.7727460
  C        1.9603790     1.6404280    -0.4583390
  C       -2.9965950    -0.0375860     0.3980590
  C       -2.6480900     1.1053220    -0.2992680
  H        1.3484140    -0.2039780     2.3191610
  H        0.5624770     1.3529910     1.8963580
  H        2.3234150     1.2701900     2.1711160
  H        2.1708410     1.3362470    -1.4821670
  H        2.8360500     2.1503740    -0.0502520
  H        1.0944390     2.3121220    -0.4419640
  H       -1.7008040    -1.6902470     0.8932800
  H       -3.9262080    -0.3702980     0.8362390
  H       -3.2806590     1.9452040    -0.5535070
units angstrom
no_reorient  #important for SAPT in psi4, default
symmetry c1  #important for SAPT in psi4, default
}

set PROPERTIES_ORIGIN ["COM"]
properties('MP2/aug-cc-pvtz', properties = ['dipole'])
--------------------------------------------------------------------------

    Molecular point group: c1
  Charge       = 0
  Multiplicity = 1
  Basis Set: AUG-CC-PVTZ
    Blend: AUG-CC-PVTZ
  Basis Set: (AUG-CC-PVTZ AUX)
    Blend: AUG-CC-PVTZ-JKFIT

    Orbital Energies [Eh]
    ---------------------

    Doubly Occupied:

       1A    -92.212896     2A    -20.554192     3A    -20.552196
       4A    -15.670329     5A    -15.610632     6A    -15.596684
       7A    -11.336043     8A    -11.299483     9A    -11.280405
      10A    -11.273821    11A    -11.264515    12A     -9.178790
      13A     -6.864301    14A     -6.863690    15A     -6.863085
      16A     -1.466641    17A     -1.358146    18A     -1.342578
      19A     -1.257116    20A     -1.174990    21A     -1.065477
      22A     -0.980319    23A     -0.966329    24A     -0.892532
      25A     -0.835512    26A     -0.814723    27A     -0.751468
      28A     -0.711892    29A     -0.682468    30A     -0.668236
      31A     -0.645102    32A     -0.627172    33A     -0.623397
      34A     -0.615670    35A     -0.602295    36A     -0.575049
      37A     -0.569432    38A     -0.540476    39A     -0.513769
      40A     -0.506554    41A     -0.482739    42A     -0.476843
      43A     -0.462086    44A     -0.422093    45A     -0.419313
      46A     -0.342145

  @DF-RHF Final Energy:  -905.27032022436174

   => Energetics <=

    Nuclear Repulsion Energy =            798.3541556315623211
    One-Electron Energy =               -2827.6217031937003412
    Two-Electron Energy =                1123.9972273377763941
    Total Energy =                       -905.2703202243617397
  Basis Set: (AUG-CC-PVTZ AUX)
    Blend: AUG-CC-PVTZ-RI
    Molecular point group: c1

    Geometry (in Angstrom), charge = 0, multiplicity = 1:

       Center              X                  Y                   Z               Mass
    ------------   -----------------  -----------------  -----------------  -----------------
         S            0.766047853603    -0.669004750693    -0.282799641771    31.972071174400
         O            0.745149853603    -1.820970750693     0.627269358229    15.994914619570
         O            1.141345853603    -0.796570750693    -1.685653641771    15.994914619570
         N            1.738908853603     0.493348249307     0.392103358229    14.003074004430
         N           -1.846724146397    -0.730604750693     0.488938358229    14.003074004430
         N           -1.324768146397     1.127706249307    -0.641420641771    14.003074004430
         C           -0.790878246397    -0.140856550693    -0.138221341771    12.000000000000
         C            1.462946853603     0.785002249307     1.802241358229    12.000000000000
         C            1.962637853603     1.693546249307    -0.428843641771    12.000000000000
         C           -2.994336146397     0.015532249307     0.427554358229    12.000000000000
         C           -2.645831146397     1.158440249307    -0.269772641771    12.000000000000
         H            1.350672853603    -0.150859750693     2.348656358229     1.007825032230
         H            0.564735853603     1.406109249307     1.925853358229     1.007825032230
         H            2.325673853603     1.323308249307     2.200611358229     1.007825032230
         H            2.173099853603     1.389365249307    -1.452671641771     1.007825032230
         H            2.838308853603     2.203492249307    -0.020756641771     1.007825032230
         H            1.096697853603     2.365240249307    -0.412468641771     1.007825032230
         H           -1.698545146397    -1.637128750693     0.922775358229     1.007825032230
         H           -3.923949146397    -0.317179750693     0.865734358229     1.007825032230
         H           -3.278400146397     1.998322249307    -0.524011641771     1.007825032230

  Basis Set: AUG-CC-PVTZ
    Blend: AUG-CC-PVTZ
  Basis Set: (AUG-CC-PVTZ AUX)
    Blend: AUG-CC-PVTZ-JKFIT
	 Reference Energy          =    -905.2703202243617397 [Eh]
	 Singles Energy            =      -0.0000000000000000 [Eh]
	 Same-Spin Energy          =      -0.6023705439900180 [Eh]
	 Opposite-Spin Energy      =      -1.7837508222547132 [Eh]
	 Correlation Energy        =      -2.3861213662447311 [Eh]
	 Total Energy              =    -907.6564415906065051 [Eh]

	 ================> DF-SCS-MP2 Energies <==================
	-----------------------------------------------------------
	 SCS Same-Spin Scale       =       0.3333333333333333 [-]
	 SCS Opposite-Spin Scale   =       1.2000000000000000 [-]
	 SCS Same-Spin Energy      =      -0.2007901813300060 [Eh]
	 SCS Opposite-Spin Energy  =      -2.1405009867056557 [Eh]
	 SCS Correlation Energy    =      -2.3412911680356618 [Eh]
	 SCS Total Energy          =    -907.6116113923974353 [Eh]
	-----------------------------------------------------------

  Dipole Moment: [D]
     X:    -3.0495      Y:     1.9582      Z:     3.6325     Total:     5.1312

*** Psi4 exiting successfully. Buy a developer a beer!
