                               Psi4 1.3.2 release

  ==> Input File <==

--------------------------------------------------------------------------
#psi4
#
memory 32 gb

molecule  {
0 1
  S        0.7637890    -0.7221230    -0.3122950
  O        0.7428910    -1.8740890     0.5977740
  O        1.1133425    -0.8409383    -1.6189167
  N        1.7366500     0.4402300     0.3626080
  N       -1.8489830    -0.7837230     0.4594430
  N       -1.3270270     1.0745880    -0.6709160
  C       -0.8811970    -0.0860610    -0.1982810
  C        1.4606880     0.7318840     1.7727460
  C        1.9603790     1.6404280    -0.4583390
  C       -2.9965950    -0.0375860     0.3980590
  C       -2.6480900     1.1053220    -0.2992680
  H        1.3484140    -0.2039780     2.3191610
  H        0.5624770     1.3529910     1.8963580
  H        2.3234150     1.2701900     2.1711160
  H        2.1708410     1.3362470    -1.4821670
  H        2.8360500     2.1503740    -0.0502520
  H        1.0944390     2.3121220    -0.4419640
  H       -1.7008040    -1.6902470     0.8932800
  H       -3.9262080    -0.3702980     0.8362390
  H       -3.2806590     1.9452040    -0.5535070
units angstrom
no_reorient  #important for SAPT in psi4, default
symmetry c1  #important for SAPT in psi4, default
}

set PROPERTIES_ORIGIN ["COM"]
properties('MP2/aug-cc-pvtz', properties = ['dipole'])
--------------------------------------------------------------------------

    Molecular point group: c1
  Charge       = 0
  Multiplicity = 1
  Basis Set: AUG-CC-PVTZ
    Blend: AUG-CC-PVTZ
  Basis Set: (AUG-CC-PVTZ AUX)
    Blend: AUG-CC-PVTZ-JKFIT

    Orbital Energies [Eh]
    ---------------------

    Doubly Occupied:

       1A    -92.204167     2A    -20.558477     3A    -20.550717
       4A    -15.651525     5A    -15.605120     6A    -15.583355
       7A    -11.331867     8A    -11.290031     9A    -11.271414
      10A    -11.270871    11A    -11.265269    12A     -9.171730
      13A     -6.857336    14A     -6.856531    15A     -6.856053
      16A     -1.506670    17A     -1.372747    18A     -1.358310
      19A     -1.255413    20A     -1.195583    21A     -1.046253
      22A     -0.979244    23A     -0.953982    24A     -0.875888
      25A     -0.837666    26A     -0.815322    27A     -0.753013
      28A     -0.718470    29A     -0.679296    30A     -0.674301
      31A     -0.645537    32A     -0.630281    33A     -0.622590
      34A     -0.619459    35A     -0.610345    36A     -0.582115
      37A     -0.569179    38A     -0.540046    39A     -0.523476
      40A     -0.521609    41A     -0.487921    42A     -0.483732
      43A     -0.469750    44A     -0.426851    45A     -0.414678
      46A     -0.343173

  @DF-RHF Final Energy:  -905.30465814794775

   => Energetics <=

    Nuclear Repulsion Energy =            802.8945824024325475
    One-Electron Energy =               -2836.7237523959752252
    Two-Electron Energy =                1128.5245118455948159
    Total Energy =                       -905.3046581479477481
  Basis Set: (AUG-CC-PVTZ AUX)
    Blend: AUG-CC-PVTZ-RI
    Molecular point group: c1

    Geometry (in Angstrom), charge = 0, multiplicity = 1:

       Center              X                  Y                   Z               Mass
    ------------   -----------------  -----------------  -----------------  -----------------
         S            0.774437289703    -0.677202417578    -0.289497799080    31.972071174400
         O            0.753539289703    -1.829168417578     0.620571200920    15.994914619570
         O            1.123990789703    -0.796017717578    -1.596119499080    15.994914619570
         N            1.747298289703     0.485150582422     0.385405200920    14.003074004430
         N           -1.838334710297    -0.738802417578     0.482240200920    14.003074004430
         N           -1.316378710297     1.119508582422    -0.648118799080    14.003074004430
         C           -0.870548710297    -0.041140417578    -0.175483799080    12.000000000000
         C            1.471336289703     0.776804582422     1.795543200920    12.000000000000
         C            1.971027289703     1.685348582422    -0.435541799080    12.000000000000
         C           -2.985946710297     0.007334582422     0.420856200920    12.000000000000
         C           -2.637441710297     1.150242582422    -0.276470799080    12.000000000000
         H            1.359062289703    -0.159057417578     2.341958200920     1.007825032230
         H            0.573125289703     1.397911582422     1.919155200920     1.007825032230
         H            2.334063289703     1.315110582422     2.193913200920     1.007825032230
         H            2.181489289703     1.381167582422    -1.459369799080     1.007825032230
         H            2.846698289703     2.195294582422    -0.027454799080     1.007825032230
         H            1.105087289703     2.357042582422    -0.419166799080     1.007825032230
         H           -1.690155710297    -1.645326417578     0.916077200920     1.007825032230
         H           -3.915559710297    -0.325377417578     0.859036200920     1.007825032230
         H           -3.270010710297     1.990124582422    -0.530709799080     1.007825032230

  Basis Set: AUG-CC-PVTZ
    Blend: AUG-CC-PVTZ
  Basis Set: (AUG-CC-PVTZ AUX)
    Blend: AUG-CC-PVTZ-JKFIT
	 Reference Energy          =    -905.3046581479477481 [Eh]
	 Singles Energy            =      -0.0000000000000000 [Eh]
	 Same-Spin Energy          =      -0.5949173747011499 [Eh]
	 Opposite-Spin Energy      =      -1.7696000087132995 [Eh]
	 Correlation Energy        =      -2.3645173834144493 [Eh]
	 Total Energy              =    -907.6691755313621570 [Eh]

	 ================> DF-SCS-MP2 Energies <==================
	-----------------------------------------------------------
	 SCS Same-Spin Scale       =       0.3333333333333333 [-]
	 SCS Opposite-Spin Scale   =       1.2000000000000000 [-]
	 SCS Same-Spin Energy      =      -0.1983057915670500 [Eh]
	 SCS Opposite-Spin Energy  =      -2.1235200104559593 [Eh]
	 SCS Correlation Energy    =      -2.3218258020230094 [Eh]
	 SCS Total Energy          =    -907.6264839499707477 [Eh]
	-----------------------------------------------------------

  Dipole Moment: [D]
     X:    -2.4814      Y:     1.7584      Z:     3.0808     Total:     4.3290

*** Psi4 exiting successfully. Buy a developer a beer!
