                               Psi4 1.3.2 release

  ==> Input File <==

--------------------------------------------------------------------------
#psi4
#
memory 32 gb

molecule  {
0 1
  S        0.7637890    -0.7221230    -0.3122950
  O        0.6491919    -1.9420196     0.4966598
  O        1.1390870    -0.8496890    -1.7151490
  N        1.7366500     0.4402300     0.3626080
  N       -1.8489830    -0.7837230     0.4594430
  N       -1.3270270     1.0745880    -0.6709160
  C       -0.8811970    -0.0860610    -0.1982810
  C        1.4606880     0.7318840     1.7727460
  C        1.9603790     1.6404280    -0.4583390
  C       -2.9965950    -0.0375860     0.3980590
  C       -2.6480900     1.1053220    -0.2992680
  H        1.3484140    -0.2039780     2.3191610
  H        0.5624770     1.3529910     1.8963580
  H        2.3234150     1.2701900     2.1711160
  H        2.1708410     1.3362470    -1.4821670
  H        2.8360500     2.1503740    -0.0502520
  H        1.0944390     2.3121220    -0.4419640
  H       -1.7008040    -1.6902470     0.8932800
  H       -3.9262080    -0.3702980     0.8362390
  H       -3.2806590     1.9452040    -0.5535070
units angstrom
no_reorient  #important for SAPT in psi4, default
symmetry c1  #important for SAPT in psi4, default
}

set PROPERTIES_ORIGIN ["COM"]
properties('MP2/aug-cc-pvtz', properties = ['dipole'])
--------------------------------------------------------------------------

    Molecular point group: c1
  Charge       = 0
  Multiplicity = 1
  Basis Set: AUG-CC-PVTZ
    Blend: AUG-CC-PVTZ
  Basis Set: (AUG-CC-PVTZ AUX)
    Blend: AUG-CC-PVTZ-JKFIT

    Orbital Energies [Eh]
    ---------------------

    Doubly Occupied:

       1A    -92.215643     2A    -20.559227     3A    -20.550299
       4A    -15.652343     5A    -15.617643     6A    -15.584168
       7A    -11.334019     8A    -11.290980     9A    -11.280213
      10A    -11.271441    11A    -11.270091    12A     -9.180223
      13A     -6.865462    14A     -6.864914    15A     -6.864657
      16A     -1.463835    17A     -1.367456    18A     -1.341062
      19A     -1.264181    20A     -1.196256    21A     -1.047527
      22A     -0.986053    23A     -0.963040    24A     -0.876273
      25A     -0.838057    26A     -0.816324    27A     -0.754809
      28A     -0.711028    29A     -0.676830    30A     -0.668588
      31A     -0.642991    32A     -0.631293    33A     -0.624604
      34A     -0.616121    35A     -0.607336    36A     -0.582056
      37A     -0.574658    38A     -0.545622    39A     -0.514882
      40A     -0.504580    41A     -0.484559    42A     -0.476673
      43A     -0.471147    44A     -0.427215    45A     -0.421306
      46A     -0.344103

  @DF-RHF Final Energy:  -905.30394075670813

   => Energetics <=

    Nuclear Repulsion Energy =            797.2914975821870485
    One-Electron Energy =               -2825.5072982372062143
    Two-Electron Energy =                1122.9118598983109223
    Total Energy =                       -905.3039407567082435
  Basis Set: (AUG-CC-PVTZ AUX)
    Blend: AUG-CC-PVTZ-RI
    Molecular point group: c1

    Geometry (in Angstrom), charge = 0, multiplicity = 1:

       Center              X                  Y                   Z               Mass
    ------------   -----------------  -----------------  -----------------  -----------------
         S            0.780646832747    -0.670195447734    -0.271464706599    31.972071174400
         O            0.666049732747    -1.890092047734     0.537490093401    15.994914619570
         O            1.155944832747    -0.797761447734    -1.674318706599    15.994914619570
         N            1.753507832747     0.492157552266     0.403438293401    14.003074004430
         N           -1.832125167253    -0.731795447734     0.500273293401    14.003074004430
         N           -1.310169167253     1.126515552266    -0.630085706599    14.003074004430
         C           -0.864339167253    -0.034133447734    -0.157450706599    12.000000000000
         C            1.477545832747     0.783811552266     1.813576293401    12.000000000000
         C            1.977236832747     1.692355552266    -0.417508706599    12.000000000000
         C           -2.979737167253     0.014341552266     0.438889293401    12.000000000000
         C           -2.631232167253     1.157249552266    -0.258437706599    12.000000000000
         H            1.365271832747    -0.152050447734     2.359991293401     1.007825032230
         H            0.579334832747     1.404918552266     1.937188293401     1.007825032230
         H            2.340272832747     1.322117552266     2.211946293401     1.007825032230
         H            2.187698832747     1.388174552266    -1.441336706599     1.007825032230
         H            2.852907832747     2.202301552266    -0.009421706599     1.007825032230
         H            1.111296832747     2.364049552266    -0.401133706599     1.007825032230
         H           -1.683946167253    -1.638319447734     0.934110293401     1.007825032230
         H           -3.909350167253    -0.318370447734     0.877069293401     1.007825032230
         H           -3.263801167253     1.997131552266    -0.512676706599     1.007825032230

  Basis Set: AUG-CC-PVTZ
    Blend: AUG-CC-PVTZ
  Basis Set: (AUG-CC-PVTZ AUX)
    Blend: AUG-CC-PVTZ-JKFIT
	 Reference Energy          =    -905.3039407567081298 [Eh]
	 Singles Energy            =      -0.0000000000000000 [Eh]
	 Same-Spin Energy          =      -0.5972949967382866 [Eh]
	 Opposite-Spin Energy      =      -1.7751376846422220 [Eh]
	 Correlation Energy        =      -2.3724326813805083 [Eh]
	 Total Energy              =    -907.6763734380886035 [Eh]

	 ================> DF-SCS-MP2 Energies <==================
	-----------------------------------------------------------
	 SCS Same-Spin Scale       =       0.3333333333333333 [-]
	 SCS Opposite-Spin Scale   =       1.2000000000000000 [-]
	 SCS Same-Spin Energy      =      -0.1990983322460955 [Eh]
	 SCS Opposite-Spin Energy  =      -2.1301652215706661 [Eh]
	 SCS Correlation Energy    =      -2.3292635538167614 [Eh]
	 SCS Total Energy          =    -907.6332043105248886 [Eh]
	-----------------------------------------------------------

  Dipole Moment: [D]
     X:    -2.3830      Y:     2.0793      Z:     3.8220     Total:     4.9608

*** Psi4 exiting successfully. Buy a developer a beer!
