                               Psi4 1.3.2 release

  ==> Input File <==

--------------------------------------------------------------------------
#psi4
#
memory 32 gb

molecule  {
0 1
  S        0.7637890    -0.7221230    -0.3122950
  O        0.7742258    -1.8485999     0.6293147
  O        1.1390870    -0.8496890    -1.7151490
  N        1.7366500     0.4402300     0.3626080
  N       -1.8489830    -0.7837230     0.4594430
  N       -1.3270270     1.0745880    -0.6709160
  C       -0.8811970    -0.0860610    -0.1982810
  C        1.4606880     0.7318840     1.7727460
  C        1.9603790     1.6404280    -0.4583390
  C       -2.9965950    -0.0375860     0.3980590
  C       -2.6480900     1.1053220    -0.2992680
  H        1.3484140    -0.2039780     2.3191610
  H        0.5624770     1.3529910     1.8963580
  H        2.3234150     1.2701900     2.1711160
  H        2.1708410     1.3362470    -1.4821670
  H        2.8360500     2.1503740    -0.0502520
  H        1.0944390     2.3121220    -0.4419640
  H       -1.7008040    -1.6902470     0.8932800
  H       -3.9262080    -0.3702980     0.8362390
  H       -3.2806590     1.9452040    -0.5535070
units angstrom
no_reorient  #important for SAPT in psi4, default
symmetry c1  #important for SAPT in psi4, default
}

set PROPERTIES_ORIGIN ["COM"]
properties('MP2/aug-cc-pvtz', properties = ['dipole'])
--------------------------------------------------------------------------

    Molecular point group: c1
  Charge       = 0
  Multiplicity = 1
  Basis Set: AUG-CC-PVTZ
    Blend: AUG-CC-PVTZ
  Basis Set: (AUG-CC-PVTZ AUX)
    Blend: AUG-CC-PVTZ-JKFIT

    Orbital Energies [Eh]
    ---------------------

    Doubly Occupied:

       1A    -92.215850     2A    -20.558126     3A    -20.557728
       4A    -15.656081     5A    -15.609045     6A    -15.587493
       7A    -11.338696     8A    -11.293843     9A    -11.274216
      10A    -11.273521    11A    -11.264661    12A     -9.180372
      13A     -6.865594    14A     -6.865217    15A     -6.864740
      16A     -1.464612    17A     -1.370883    18A     -1.346819
      19A     -1.255726    20A     -1.199507    21A     -1.050828
      22A     -0.980180    23A     -0.958942    24A     -0.877382
      25A     -0.841417    26A     -0.819074    27A     -0.752275
      28A     -0.710635    29A     -0.676946    30A     -0.668016
      31A     -0.642599    32A     -0.633120    33A     -0.625205
      34A     -0.617171    35A     -0.609305    36A     -0.575538
      37A     -0.569835    38A     -0.540650    39A     -0.513777
      40A     -0.509007    41A     -0.485625    42A     -0.480710
      43A     -0.471405    44A     -0.430045    45A     -0.416743
      46A     -0.346734

  @DF-RHF Final Energy:  -905.30519559290121

   => Energetics <=

    Nuclear Repulsion Energy =            797.5858373328526341
    One-Electron Energy =               -2826.0902768021651355
    Two-Electron Energy =                1123.1992438764114013
    Total Energy =                       -905.3051955929011001
  Basis Set: (AUG-CC-PVTZ AUX)
    Blend: AUG-CC-PVTZ-RI
    Molecular point group: c1

    Geometry (in Angstrom), charge = 0, multiplicity = 1:

       Center              X                  Y                   Z               Mass
    ------------   -----------------  -----------------  -----------------  -----------------
         S            0.769221507839    -0.678731936040    -0.283586421854    31.972071174400
         O            0.779658307839    -1.805208836040     0.658023278146    15.994914619570
         O            1.144519507839    -0.806297936040    -1.686440421854    15.994914619570
         N            1.742082507839     0.483621063960     0.391316578146    14.003074004430
         N           -1.843550492161    -0.740331936040     0.488151578146    14.003074004430
         N           -1.321594492161     1.117979063960    -0.642207421854    14.003074004430
         C           -0.875764492161    -0.042669936040    -0.169572421854    12.000000000000
         C            1.466120507839     0.775275063960     1.801454578146    12.000000000000
         C            1.965811507839     1.683819063960    -0.429630421854    12.000000000000
         C           -2.991162492161     0.005805063960     0.426767578146    12.000000000000
         C           -2.642657492161     1.148713063960    -0.270559421854    12.000000000000
         H            1.353846507839    -0.160586936040     2.347869578146     1.007825032230
         H            0.567909507839     1.396382063960     1.925066578146     1.007825032230
         H            2.328847507839     1.313581063960     2.199824578146     1.007825032230
         H            2.176273507839     1.379638063960    -1.453458421854     1.007825032230
         H            2.841482507839     2.193765063960    -0.021543421854     1.007825032230
         H            1.099871507839     2.355513063960    -0.413255421854     1.007825032230
         H           -1.695371492161    -1.646855936040     0.921988578146     1.007825032230
         H           -3.920775492161    -0.326906936040     0.864947578146     1.007825032230
         H           -3.275226492161     1.988595063960    -0.524798421854     1.007825032230

  Basis Set: AUG-CC-PVTZ
    Blend: AUG-CC-PVTZ
  Basis Set: (AUG-CC-PVTZ AUX)
    Blend: AUG-CC-PVTZ-JKFIT
	 Reference Energy          =    -905.3051955929012138 [Eh]
	 Singles Energy            =      -0.0000000000000000 [Eh]
	 Same-Spin Energy          =      -0.5976130541641060 [Eh]
	 Opposite-Spin Energy      =      -1.7757081808515800 [Eh]
	 Correlation Energy        =      -2.3733212350156858 [Eh]
	 Total Energy              =    -907.6785168279169511 [Eh]

	 ================> DF-SCS-MP2 Energies <==================
	-----------------------------------------------------------
	 SCS Same-Spin Scale       =       0.3333333333333333 [-]
	 SCS Opposite-Spin Scale   =       1.2000000000000000 [-]
	 SCS Same-Spin Energy      =      -0.1992043513880353 [Eh]
	 SCS Opposite-Spin Energy  =      -2.1308498170218959 [Eh]
	 SCS Correlation Energy    =      -2.3300541684099314 [Eh]
	 SCS Total Energy          =    -907.6352497613111154 [Eh]
	-----------------------------------------------------------

  Dipole Moment: [D]
     X:    -2.7823      Y:     1.8175      Z:     3.4882     Total:     4.8179

*** Psi4 exiting successfully. Buy a developer a beer!
