                               Psi4 1.3.2 release

  ==> Input File <==

--------------------------------------------------------------------------
#psi4
#
memory 32 gb

molecule  {
0 1
  S        0.7637890    -0.7221230    -0.3122950
  O        0.7428910    -1.8740890     0.5977740
  O        1.1390870    -0.8496890    -1.7151490
  N        1.7366500     0.4402300     0.3626080
  N       -1.8489830    -0.7837230     0.4594430
  N       -1.3270270     1.0745880    -0.6709160
  C       -0.9023397    -0.0904869    -0.1897762
  C        1.4606880     0.7318840     1.7727460
  C        1.9603790     1.6404280    -0.4583390
  C       -2.9965950    -0.0375860     0.3980590
  C       -2.6480900     1.1053220    -0.2992680
  H        1.3484140    -0.2039780     2.3191610
  H        0.5624770     1.3529910     1.8963580
  H        2.3234150     1.2701900     2.1711160
  H        2.1708410     1.3362470    -1.4821670
  H        2.8360500     2.1503740    -0.0502520
  H        1.0944390     2.3121220    -0.4419640
  H       -1.7008040    -1.6902470     0.8932800
  H       -3.9262080    -0.3702980     0.8362390
  H       -3.2806590     1.9452040    -0.5535070
units angstrom
no_reorient  #important for SAPT in psi4, default
symmetry c1  #important for SAPT in psi4, default
}

set PROPERTIES_ORIGIN ["COM"]
properties('MP2/aug-cc-pvtz', properties = ['dipole'])
--------------------------------------------------------------------------

    Molecular point group: c1
  Charge       = 0
  Multiplicity = 1
  Basis Set: AUG-CC-PVTZ
    Blend: AUG-CC-PVTZ
  Basis Set: (AUG-CC-PVTZ AUX)
    Blend: AUG-CC-PVTZ-JKFIT

    Orbital Energies [Eh]
    ---------------------

    Doubly Occupied:

       1A    -92.215536     2A    -20.557982     3A    -20.556211
       4A    -15.655806     5A    -15.611752     6A    -15.584780
       7A    -11.337317     8A    -11.291149     9A    -11.275461
      10A    -11.273655    11A    -11.266092    12A     -9.179921
      13A     -6.865099    14A     -6.864722    15A     -6.864307
      16A     -1.463752    17A     -1.375742    18A     -1.345228
      19A     -1.258042    20A     -1.201073    21A     -1.048528
      22A     -0.981814    23A     -0.958915    24A     -0.874710
      25A     -0.841059    26A     -0.823608    27A     -0.752756
      28A     -0.710444    29A     -0.675811    30A     -0.667956
      31A     -0.642566    32A     -0.634153    33A     -0.627605
      34A     -0.616991    35A     -0.608660    36A     -0.577251
      37A     -0.571198    38A     -0.542032    39A     -0.513228
      40A     -0.507742    41A     -0.485230    42A     -0.479940
      43A     -0.470965    44A     -0.429614    45A     -0.417911
      46A     -0.346304

  @DF-RHF Final Energy:  -905.30631084261461

   => Energetics <=

    Nuclear Repulsion Energy =            797.3669951367076010
    One-Electron Energy =               -2825.6453760598114968
    Two-Electron Energy =                1122.9720700804891749
    Total Energy =                       -905.3063108426147210
  Basis Set: (AUG-CC-PVTZ AUX)
    Blend: AUG-CC-PVTZ-RI
    Molecular point group: c1

    Geometry (in Angstrom), charge = 0, multiplicity = 1:

       Center              X                  Y                   Z               Mass
    ------------   -----------------  -----------------  -----------------  -----------------
         S            0.773534254501    -0.676099379460    -0.281287349384    31.972071174400
         O            0.752636254501    -1.828065379460     0.628781650616    15.994914619570
         O            1.148832254501    -0.803665379460    -1.684141349384    15.994914619570
         N            1.746395254501     0.486253620540     0.393615650616    14.003074004430
         N           -1.839237745499    -0.737699379460     0.490450650616    14.003074004430
         N           -1.317281745499     1.120611620540    -0.639908349384    14.003074004430
         C           -0.892594445499    -0.044463279460    -0.158768549384    12.000000000000
         C            1.470433254501     0.777907620540     1.803753650616    12.000000000000
         C            1.970124254501     1.686451620540    -0.427331349384    12.000000000000
         C           -2.986849745499     0.008437620540     0.429066650616    12.000000000000
         C           -2.638344745499     1.151345620540    -0.268260349384    12.000000000000
         H            1.358159254501    -0.157954379460     2.350168650616     1.007825032230
         H            0.572222254501     1.399014620540     1.927365650616     1.007825032230
         H            2.333160254501     1.316213620540     2.202123650616     1.007825032230
         H            2.180586254501     1.382270620540    -1.451159349384     1.007825032230
         H            2.845795254501     2.196397620540    -0.019244349384     1.007825032230
         H            1.104184254501     2.358145620540    -0.410956349384     1.007825032230
         H           -1.691058745499    -1.644223379460     0.924287650616     1.007825032230
         H           -3.916462745499    -0.324274379460     0.867246650616     1.007825032230
         H           -3.270913745499     1.991227620540    -0.522499349384     1.007825032230

  Basis Set: AUG-CC-PVTZ
    Blend: AUG-CC-PVTZ
  Basis Set: (AUG-CC-PVTZ AUX)
    Blend: AUG-CC-PVTZ-JKFIT
	 Reference Energy          =    -905.3063108426146073 [Eh]
	 Singles Energy            =      -0.0000000000000000 [Eh]
	 Same-Spin Energy          =      -0.5971709493431249 [Eh]
	 Opposite-Spin Energy      =      -1.7748849244643388 [Eh]
	 Correlation Energy        =      -2.3720558738074637 [Eh]
	 Total Energy              =    -907.6783667164220333 [Eh]

	 ================> DF-SCS-MP2 Energies <==================
	-----------------------------------------------------------
	 SCS Same-Spin Scale       =       0.3333333333333333 [-]
	 SCS Opposite-Spin Scale   =       1.2000000000000000 [-]
	 SCS Same-Spin Energy      =      -0.1990569831143749 [Eh]
	 SCS Opposite-Spin Energy  =      -2.1298619093572064 [Eh]
	 SCS Correlation Energy    =      -2.3289188924715813 [Eh]
	 SCS Total Energy          =    -907.6352297350862273 [Eh]
	-----------------------------------------------------------

  Dipole Moment: [D]
     X:    -2.6556      Y:     1.8694      Z:     3.5759     Total:     4.8305

*** Psi4 exiting successfully. Buy a developer a beer!
