                               Psi4 1.3.2 release

  ==> Input File <==

--------------------------------------------------------------------------
#psi4
#
memory 32 gb

molecule  {
0 1
  S        0.7637890    -0.7221230    -0.3122950
  O        0.7428910    -1.8740890     0.5977740
  O        1.1390870    -0.8496890    -1.7151490
  N        1.7366500     0.4402300     0.3626080
  N       -1.8489830    -0.7837230     0.4594430
  N       -1.3296809     1.0959915    -0.6813475
  C       -0.8811970    -0.0860610    -0.1982810
  C        1.4606880     0.7318840     1.7727460
  C        1.9603790     1.6404280    -0.4583390
  C       -2.9965950    -0.0375860     0.3980590
  C       -2.6480900     1.1053220    -0.2992680
  H        1.3484140    -0.2039780     2.3191610
  H        0.5624770     1.3529910     1.8963580
  H        2.3234150     1.2701900     2.1711160
  H        2.1708410     1.3362470    -1.4821670
  H        2.8360500     2.1503740    -0.0502520
  H        1.0944390     2.3121220    -0.4419640
  H       -1.7008040    -1.6902470     0.8932800
  H       -3.9262080    -0.3702980     0.8362390
  H       -3.2806590     1.9452040    -0.5535070
units angstrom
no_reorient  #important for SAPT in psi4, default
symmetry c1  #important for SAPT in psi4, default
}

set PROPERTIES_ORIGIN ["COM"]
properties('MP2/aug-cc-pvtz', properties = ['dipole'])
--------------------------------------------------------------------------

    Molecular point group: c1
  Charge       = 0
  Multiplicity = 1
  Basis Set: AUG-CC-PVTZ
    Blend: AUG-CC-PVTZ
  Basis Set: (AUG-CC-PVTZ AUX)
    Blend: AUG-CC-PVTZ-JKFIT

    Orbital Energies [Eh]
    ---------------------

    Doubly Occupied:

       1A    -92.216097     2A    -20.558688     3A    -20.555954
       4A    -15.658156     5A    -15.611355     6A    -15.590123
       7A    -11.340201     8A    -11.292880     9A    -11.275263
      10A    -11.274126    11A    -11.266053    12A     -9.180563
      13A     -6.865785    14A     -6.865384    15A     -6.864961
      16A     -1.464383    17A     -1.367509    18A     -1.345437
      19A     -1.258026    20A     -1.196950    21A     -1.048785
      22A     -0.981700    23A     -0.959886    24A     -0.878333
      25A     -0.838963    26A     -0.818998    27A     -0.752522
      28A     -0.710662    29A     -0.675984    30A     -0.668230
      31A     -0.642208    32A     -0.633202    33A     -0.624445
      34A     -0.615952    35A     -0.606952    36A     -0.577128
      37A     -0.571096    38A     -0.541944    39A     -0.513824
      40A     -0.508016    41A     -0.484466    42A     -0.480153
      43A     -0.474277    44A     -0.428596    45A     -0.418552
      46A     -0.344724

  @DF-RHF Final Energy:  -905.30306154031496

   => Energetics <=

    Nuclear Repulsion Energy =            796.7594807999113300
    One-Electron Energy =               -2824.4301007417066103
    Two-Electron Energy =                1122.3675584014804372
    Total Energy =                       -905.3030615403149568
  Basis Set: (AUG-CC-PVTZ AUX)
    Blend: AUG-CC-PVTZ-RI
    Molecular point group: c1

    Geometry (in Angstrom), charge = 0, multiplicity = 1:

       Center              X                  Y                   Z               Mass
    ------------   -----------------  -----------------  -----------------  -----------------
         S            0.772297121690    -0.678115047164    -0.279869796410    31.972071174400
         O            0.751399121690    -1.830081047164     0.630199203590    15.994914619570
         O            1.147595121690    -0.805681047164    -1.682723796410    15.994914619570
         N            1.745158121690     0.484237952836     0.395033203590    14.003074004430
         N           -1.840474878310    -0.739715047164     0.491868203590    14.003074004430
         N           -1.321172778310     1.139999452836    -0.648922296410    14.003074004430
         C           -0.872688878310    -0.042053047164    -0.165855796410    12.000000000000
         C            1.469196121690     0.775891952836     1.805171203590    12.000000000000
         C            1.968887121690     1.684435952836    -0.425913796410    12.000000000000
         C           -2.988086878310     0.006421952836     0.430484203590    12.000000000000
         C           -2.639581878310     1.149329952836    -0.266842796410    12.000000000000
         H            1.356922121690    -0.159970047164     2.351586203590     1.007825032230
         H            0.570985121690     1.396998952836     1.928783203590     1.007825032230
         H            2.331923121690     1.314197952836     2.203541203590     1.007825032230
         H            2.179349121690     1.380254952836    -1.449741796410     1.007825032230
         H            2.844558121690     2.194381952836    -0.017826796410     1.007825032230
         H            1.102947121690     2.356129952836    -0.409538796410     1.007825032230
         H           -1.692295878310    -1.646239047164     0.925705203590     1.007825032230
         H           -3.917699878310    -0.326290047164     0.868664203590     1.007825032230
         H           -3.272150878310     1.989211952836    -0.521081796410     1.007825032230

  Basis Set: AUG-CC-PVTZ
    Blend: AUG-CC-PVTZ
  Basis Set: (AUG-CC-PVTZ AUX)
    Blend: AUG-CC-PVTZ-JKFIT
	 Reference Energy          =    -905.3030615403149568 [Eh]
	 Singles Energy            =      -0.0000000000000000 [Eh]
	 Same-Spin Energy          =      -0.5980754917718146 [Eh]
	 Opposite-Spin Energy      =      -1.7767115150029009 [Eh]
	 Correlation Energy        =      -2.3747870067747154 [Eh]
	 Total Energy              =    -907.6778485470896385 [Eh]

	 ================> DF-SCS-MP2 Energies <==================
	-----------------------------------------------------------
	 SCS Same-Spin Scale       =       0.3333333333333333 [-]
	 SCS Opposite-Spin Scale   =       1.2000000000000000 [-]
	 SCS Same-Spin Energy      =      -0.1993584972572715 [Eh]
	 SCS Opposite-Spin Energy  =      -2.1320538180034809 [Eh]
	 SCS Correlation Energy    =      -2.3314123152607524 [Eh]
	 SCS Total Energy          =    -907.6344738555757203 [Eh]
	-----------------------------------------------------------

  Dipole Moment: [D]
     X:    -2.6970      Y:     1.8481      Z:     3.5943     Total:     4.8588

*** Psi4 exiting successfully. Buy a developer a beer!
