                               Psi4 1.3.2 release

  ==> Input File <==

--------------------------------------------------------------------------
#psi4
#
memory 32 gb

molecule  {
0 1
  S        0.7637890    -0.7221230    -0.3122950
  O        0.7428910    -1.8740890     0.5977740
  O        1.1390870    -0.8496890    -1.7151490
  N        1.6895454     0.4724055     0.3726093
  N       -1.8489830    -0.7837230     0.4594430
  N       -1.3270270     1.0745880    -0.6709160
  C       -0.8811970    -0.0860610    -0.1982810
  C        1.4606880     0.7318840     1.7727460
  C        1.9603790     1.6404280    -0.4583390
  C       -2.9965950    -0.0375860     0.3980590
  C       -2.6480900     1.1053220    -0.2992680
  H        1.3484140    -0.2039780     2.3191610
  H        0.5624770     1.3529910     1.8963580
  H        2.3234150     1.2701900     2.1711160
  H        2.1708410     1.3362470    -1.4821670
  H        2.8360500     2.1503740    -0.0502520
  H        1.0944390     2.3121220    -0.4419640
  H       -1.7008040    -1.6902470     0.8932800
  H       -3.9262080    -0.3702980     0.8362390
  H       -3.2806590     1.9452040    -0.5535070
units angstrom
no_reorient  #important for SAPT in psi4, default
symmetry c1  #important for SAPT in psi4, default
}

set PROPERTIES_ORIGIN ["COM"]
properties('MP2/aug-cc-pvtz', properties = ['dipole'])
--------------------------------------------------------------------------

    Molecular point group: c1
  Charge       = 0
  Multiplicity = 1
  Basis Set: AUG-CC-PVTZ
    Blend: AUG-CC-PVTZ
  Basis Set: (AUG-CC-PVTZ AUX)
    Blend: AUG-CC-PVTZ-JKFIT

    Orbital Energies [Eh]
    ---------------------

    Doubly Occupied:

       1A    -92.217659     2A    -20.560276     3A    -20.558252
       4A    -15.653994     5A    -15.607801     6A    -15.585317
       7A    -11.336029     8A    -11.291833     9A    -11.273764
      10A    -11.272574    11A    -11.265668    12A     -9.181851
      13A     -6.867112    14A     -6.866665    15A     -6.866312
      16A     -1.465537    17A     -1.369024    18A     -1.346914
      19A     -1.263900    20A     -1.197624    21A     -1.049528
      22A     -0.985801    23A     -0.961428    24A     -0.874432
      25A     -0.839536    26A     -0.817070    27A     -0.754240
      28A     -0.713148    29A     -0.678456    30A     -0.670143
      31A     -0.644237    32A     -0.632028    33A     -0.624996
      34A     -0.617234    35A     -0.609285    36A     -0.577031
      37A     -0.570640    38A     -0.548322    39A     -0.516270
      40A     -0.509201    41A     -0.485718    42A     -0.481705
      43A     -0.470324    44A     -0.428368    45A     -0.411432
      46A     -0.344546

  @DF-RHF Final Energy:  -905.30528153120679

   => Energetics <=

    Nuclear Repulsion Energy =            798.2164997924073759
    One-Electron Energy =               -2827.3171131124104249
    Two-Electron Energy =                1123.7953317887963749
    Total Energy =                       -905.3052815312066741
  Basis Set: (AUG-CC-PVTZ AUX)
    Blend: AUG-CC-PVTZ-RI
    Molecular point group: c1

    Geometry (in Angstrom), charge = 0, multiplicity = 1:

       Center              X                  Y                   Z               Mass
    ------------   -----------------  -----------------  -----------------  -----------------
         S            0.775853114252    -0.678976791790    -0.281504391249    31.972071174400
         O            0.754955114252    -1.830942791790     0.628564608751    15.994914619570
         O            1.151151114252    -0.806542791790    -1.684358391249    15.994914619570
         N            1.701609514252     0.515551708210     0.403399908751    14.003074004430
         N           -1.836918885748    -0.740576791790     0.490233608751    14.003074004430
         N           -1.314962885748     1.117734208210    -0.640125391249    14.003074004430
         C           -0.869132885748    -0.042914791790    -0.167490391249    12.000000000000
         C            1.472752114252     0.775030208210     1.803536608751    12.000000000000
         C            1.972443114252     1.683574208210    -0.427548391249    12.000000000000
         C           -2.984530885748     0.005560208210     0.428849608751    12.000000000000
         C           -2.636025885748     1.148468208210    -0.268477391249    12.000000000000
         H            1.360478114252    -0.160831791790     2.349951608751     1.007825032230
         H            0.574541114252     1.396137208210     1.927148608751     1.007825032230
         H            2.335479114252     1.313336208210     2.201906608751     1.007825032230
         H            2.182905114252     1.379393208210    -1.451376391249     1.007825032230
         H            2.848114114252     2.193520208210    -0.019461391249     1.007825032230
         H            1.106503114252     2.355268208210    -0.411173391249     1.007825032230
         H           -1.688739885748    -1.647100791790     0.924070608751     1.007825032230
         H           -3.914143885748    -0.327151791790     0.867029608751     1.007825032230
         H           -3.268594885748     1.988350208210    -0.522716391249     1.007825032230

  Basis Set: AUG-CC-PVTZ
    Blend: AUG-CC-PVTZ
  Basis Set: (AUG-CC-PVTZ AUX)
    Blend: AUG-CC-PVTZ-JKFIT
	 Reference Energy          =    -905.3052815312067878 [Eh]
	 Singles Energy            =      -0.0000000000000000 [Eh]
	 Same-Spin Energy          =      -0.5976080623764692 [Eh]
	 Opposite-Spin Energy      =      -1.7751946676575978 [Eh]
	 Correlation Energy        =      -2.3728027300340671 [Eh]
	 Total Energy              =    -907.6780842612408833 [Eh]

	 ================> DF-SCS-MP2 Energies <==================
	-----------------------------------------------------------
	 SCS Same-Spin Scale       =       0.3333333333333333 [-]
	 SCS Opposite-Spin Scale   =       1.2000000000000000 [-]
	 SCS Same-Spin Energy      =      -0.1992026874588231 [Eh]
	 SCS Opposite-Spin Energy  =      -2.1302336011891172 [Eh]
	 SCS Correlation Energy    =      -2.3294362886479405 [Eh]
	 SCS Total Energy          =    -907.6347178198546999 [Eh]
	-----------------------------------------------------------

  Dipole Moment: [D]
     X:    -2.5276      Y:     1.7854      Z:     3.5240     Total:     4.6899

*** Psi4 exiting successfully. Buy a developer a beer!
