                               Psi4 1.4a3.dev225

  ==> Input File <==

--------------------------------------------------------------------------
#psi4
#
memory 32 gb

molecule  {
0 1
  S        0.7637890    -0.7221230    -0.3122950
  O        0.7428910    -1.8740890     0.5977740
  O        1.1390870    -0.8496890    -1.7151490
  N        1.7366500     0.4402300     0.3626080
  N       -1.8489830    -0.7837230     0.4594430
  N       -1.3270270     1.0745880    -0.6709160
  C       -0.8954048    -0.0963032    -0.1886251
  C        1.4606880     0.7318840     1.7727460
  C        1.9603790     1.6404280    -0.4583390
  C       -2.9965950    -0.0375860     0.3980590
  C       -2.6480900     1.1053220    -0.2992680
  H        1.3484140    -0.2039780     2.3191610
  H        0.5624770     1.3529910     1.8963580
  H        2.3234150     1.2701900     2.1711160
  H        2.1708410     1.3362470    -1.4821670
  H        2.8360500     2.1503740    -0.0502520
  H        1.0944390     2.3121220    -0.4419640
  H       -1.7008040    -1.6902470     0.8932800
  H       -3.9262080    -0.3702980     0.8362390
  H       -3.2806590     1.9452040    -0.5535070
units angstrom
no_reorient  #important for SAPT in psi4, default
symmetry c1  #important for SAPT in psi4, default
}

set PROPERTIES_ORIGIN ["COM"]
properties('MP2/aug-cc-pvtz', properties = ['dipole'])
--------------------------------------------------------------------------

    Molecular point group: c1
  Charge       = 0
  Multiplicity = 1
  Basis Set: AUG-CC-PVTZ
    Blend: AUG-CC-PVTZ
  Basis Set: (AUG-CC-PVTZ AUX)
    Blend: AUG-CC-PVTZ-JKFIT

    Orbital Energies [Eh]
    ---------------------

    Doubly Occupied:

       1A    -92.215706     2A    -20.557819     3A    -20.556258
       4A    -15.656546     5A    -15.611802     6A    -15.585425
       7A    -11.337300     8A    -11.291449     9A    -11.275426
      10A    -11.273881    11A    -11.266057    12A     -9.180135
      13A     -6.865324    14A     -6.864955    15A     -6.864521
      16A     -1.464027    17A     -1.374308    18A     -1.345254
      19A     -1.258095    20A     -1.199089    21A     -1.049404
      22A     -0.981796    23A     -0.959327    24A     -0.875778
      25A     -0.840723    26A     -0.822918    27A     -0.752782
      28A     -0.710593    29A     -0.676089    30A     -0.668062
      31A     -0.642621    32A     -0.633557    33A     -0.627248
      34A     -0.617052    35A     -0.608519    36A     -0.577224
      37A     -0.571150    38A     -0.542011    39A     -0.513374
      40A     -0.507801    41A     -0.484254    42A     -0.479974
      43A     -0.471463    44A     -0.428718    45A     -0.418323
      46A     -0.346068

  @DF-RHF Final Energy:  -905.30578339178442

   => Energetics <=

    Nuclear Repulsion Energy =            797.4129474590247355
    One-Electron Energy =               -2825.7370468310300566
    Two-Electron Energy =                1123.0183159802209047
    Total Energy =                       -905.3057833917844164
  Basis Set: (AUG-CC-PVTZ AUX)
    Blend: AUG-CC-PVTZ-RI
    Molecular point group: c1

    Geometry (in Angstrom), charge = 0, multiplicity = 1:

       Center              X                  Y                   Z               Mass
    ------------   -----------------  -----------------  -----------------  -----------------
         S            0.773058831374    -0.675700642127    -0.281366263220    31.972071174400
         O            0.752160831374    -1.827666642127     0.628702736780    15.994914619570
         O            1.148356831374    -0.803266642127    -1.684220263220    15.994914619570
         N            1.745919831374     0.486652357873     0.393536736780    14.003074004430
         N           -1.839713168626    -0.737300642127     0.490371736780    14.003074004430
         N           -1.317757168626     1.121010357873    -0.639987263220    14.003074004430
         C           -0.886134968626    -0.049880842127    -0.157696363220    12.000000000000
         C            1.469957831374     0.778306357873     1.803674736780    12.000000000000
         C            1.969648831374     1.686850357873    -0.427410263220    12.000000000000
         C           -2.987325168626     0.008836357873     0.428987736780    12.000000000000
         C           -2.638820168626     1.151744357873    -0.268339263220    12.000000000000
         H            1.357683831374    -0.157555642127     2.350089736780     1.007825032230
         H            0.571746831374     1.399413357873     1.927286736780     1.007825032230
         H            2.332684831374     1.316612357873     2.202044736780     1.007825032230
         H            2.180110831374     1.382669357873    -1.451238263220     1.007825032230
         H            2.845319831374     2.196796357873    -0.019323263220     1.007825032230
         H            1.103708831374     2.358544357873    -0.411035263220     1.007825032230
         H           -1.691534168626    -1.643824642127     0.924208736780     1.007825032230
         H           -3.916938168626    -0.323875642127     0.867167736780     1.007825032230
         H           -3.271389168626     1.991626357873    -0.522578263220     1.007825032230

  Basis Set: AUG-CC-PVTZ
    Blend: AUG-CC-PVTZ
  Basis Set: (AUG-CC-PVTZ AUX)
    Blend: AUG-CC-PVTZ-JKFIT
	 Reference Energy          =    -905.3057833917844164 [Eh]
	 Singles Energy            =      -0.0000000000000000 [Eh]
	 Same-Spin Energy          =      -0.5974165600638366 [Eh]
	 Opposite-Spin Energy      =      -1.7752727675308040 [Eh]
	 Correlation Energy        =      -2.3726893275946406 [Eh]
	 Total Energy              =    -907.6784727193791014 [Eh]

	 ================> DF-SCS-MP2 Energies <==================
	-----------------------------------------------------------
	 SCS Same-Spin Scale       =       0.3333333333333333 [-]
	 SCS Opposite-Spin Scale   =       1.2000000000000000 [-]
	 SCS Same-Spin Energy      =      -0.1991388533546122 [Eh]
	 SCS Opposite-Spin Energy  =      -2.1303273210369649 [Eh]
	 SCS Correlation Energy    =      -2.3294661743915772 [Eh]
	 SCS Total Energy          =    -907.6352495661759576 [Eh]
	-----------------------------------------------------------

  Dipole Moment: [D]
     X:    -2.6732      Y:     1.8712      Z:     3.5799     Total:     4.8439

*** Psi4 exiting successfully. Buy a developer a beer!
