                               Psi4 1.3.2 release

  ==> Input File <==

--------------------------------------------------------------------------
#psi4
#
memory 32 gb

molecule  {
0 1
  S        0.7637890    -0.7221230    -0.3122950
  O        0.7428910    -1.8740890     0.5977740
  O        1.1390870    -0.8496890    -1.7151490
  N        1.7366500     0.4402300     0.3626080
  N       -1.8489830    -0.7837230     0.4594430
  N       -1.3270270     1.0745880    -0.6709160
  C       -0.8811970    -0.0860610    -0.1982810
  C        1.4606880     0.7318840     1.7727460
  C        1.9603790     1.6404280    -0.4583390
  C       -2.9965950    -0.0375860     0.3980590
  C       -2.6480900     1.1053220    -0.2992680
  H        1.3484140    -0.2039780     2.3191610
  H        0.5624770     1.3529910     1.8963580
  H        2.3234150     1.2701900     2.1711160
  H        2.1708410     1.3362470    -1.4821670
  H        2.8360500     2.1503740    -0.0502520
  H        1.0944390     2.3121220    -0.4419640
  H       -1.6862173    -1.7794847     0.9359867
  H       -3.9262080    -0.3702980     0.8362390
  H       -3.2806590     1.9452040    -0.5535070
units angstrom
no_reorient  #important for SAPT in psi4, default
symmetry c1  #important for SAPT in psi4, default
}

set PROPERTIES_ORIGIN ["COM"]
properties('MP2/aug-cc-pvtz', properties = ['dipole'])
--------------------------------------------------------------------------

    Molecular point group: c1
  Charge       = 0
  Multiplicity = 1
  Basis Set: AUG-CC-PVTZ
    Blend: AUG-CC-PVTZ
  Basis Set: (AUG-CC-PVTZ AUX)
    Blend: AUG-CC-PVTZ-JKFIT

    Orbital Energies [Eh]
    ---------------------

    Doubly Occupied:

       1A    -92.215365     2A    -20.558386     3A    -20.555461
       4A    -15.661391     5A    -15.610892     6A    -15.585494
       7A    -11.336233     8A    -11.291872     9A    -11.274964
      10A    -11.272364    11A    -11.265753    12A     -9.179897
      13A     -6.865110    14A     -6.864713    15A     -6.864294
      16A     -1.463956    17A     -1.365622    18A     -1.345174
      19A     -1.257592    20A     -1.190519    21A     -1.048151
      22A     -0.981366    23A     -0.958576    24A     -0.871774
      25A     -0.832980    26A     -0.804577    27A     -0.751537
      28A     -0.710175    29A     -0.674618    30A     -0.667834
      31A     -0.641293    32A     -0.625969    33A     -0.623101
      34A     -0.614402    35A     -0.608016    36A     -0.576871
      37A     -0.570735    38A     -0.541632    39A     -0.513811
      40A     -0.507483    41A     -0.484766    42A     -0.479813
      43A     -0.470326    44A     -0.427086    45A     -0.417556
      46A     -0.344849

  @DF-RHF Final Energy:  -905.29504474071621

   => Energetics <=

    Nuclear Repulsion Energy =            796.8942599360555050
    One-Electron Energy =               -2824.8299103490157904
    Two-Electron Energy =                1122.6406056722439644
    Total Energy =                       -905.2950447407163210
  Basis Set: (AUG-CC-PVTZ AUX)
    Blend: AUG-CC-PVTZ-RI
    Molecular point group: c1

    Geometry (in Angstrom), charge = 0, multiplicity = 1:

       Center              X                  Y                   Z               Mass
    ------------   -----------------  -----------------  -----------------  -----------------
         S            0.772000828609    -0.675888999763    -0.280950191038    31.972071174400
         O            0.751102828609    -1.827854999763     0.629118808962    15.994914619570
         O            1.147298828609    -0.803454999763    -1.683804191038    15.994914619570
         N            1.744861828609     0.486464000237     0.393952808962    14.003074004430
         N           -1.840771171391    -0.737488999763     0.490787808962    14.003074004430
         N           -1.318815171391     1.120822000237    -0.639571191038    14.003074004430
         C           -0.872985171391    -0.039826999763    -0.166936191038    12.000000000000
         C            1.468899828609     0.778118000237     1.804090808962    12.000000000000
         C            1.968590828609     1.686662000237    -0.426994191038    12.000000000000
         C           -2.988383171391     0.008648000237     0.429403808962    12.000000000000
         C           -2.639878171391     1.151556000237    -0.267923191038    12.000000000000
         H            1.356625828609    -0.157743999763     2.350505808962     1.007825032230
         H            0.570688828609     1.399225000237     1.927702808962     1.007825032230
         H            2.331626828609     1.316424000237     2.202460808962     1.007825032230
         H            2.179052828609     1.382481000237    -1.450822191038     1.007825032230
         H            2.844261828609     2.196608000237    -0.018907191038     1.007825032230
         H            1.102650828609     2.358356000237    -0.410619191038     1.007825032230
         H           -1.678005471391    -1.733250699763     0.967331508962     1.007825032230
         H           -3.917996171391    -0.324063999763     0.867583808962     1.007825032230
         H           -3.272447171391     1.991438000237    -0.522162191038     1.007825032230

  Basis Set: AUG-CC-PVTZ
    Blend: AUG-CC-PVTZ
  Basis Set: (AUG-CC-PVTZ AUX)
    Blend: AUG-CC-PVTZ-JKFIT
	 Reference Energy          =    -905.2950447407162073 [Eh]
	 Singles Energy            =      -0.0000000000000000 [Eh]
	 Same-Spin Energy          =      -0.5984599672580455 [Eh]
	 Opposite-Spin Energy      =      -1.7774688595157251 [Eh]
	 Correlation Energy        =      -2.3759288267737704 [Eh]
	 Total Energy              =    -907.6709735674900230 [Eh]

	 ================> DF-SCS-MP2 Energies <==================
	-----------------------------------------------------------
	 SCS Same-Spin Scale       =       0.3333333333333333 [-]
	 SCS Opposite-Spin Scale   =       1.2000000000000000 [-]
	 SCS Same-Spin Energy      =      -0.1994866557526818 [Eh]
	 SCS Opposite-Spin Energy  =      -2.1329626314188701 [Eh]
	 SCS Correlation Energy    =      -2.3324492871715519 [Eh]
	 SCS Total Energy          =    -907.6274940278877921 [Eh]
	-----------------------------------------------------------

  Dipole Moment: [D]
     X:    -2.6690      Y:     1.7536      Z:     3.6330     Total:     4.8371

*** Psi4 exiting successfully. Buy a developer a beer!
