                               Psi4 1.3.2 release

  ==> Input File <==

--------------------------------------------------------------------------
#psi4
#
memory 32 gb

molecule  {
0 1
  S        0.7637890    -0.7221230    -0.3122950
  O        0.7277880    -1.8428681     0.6355037
  O        1.1390870    -0.8496890    -1.7151490
  N        1.7366500     0.4402300     0.3626080
  N       -1.8489830    -0.7837230     0.4594430
  N       -1.3270270     1.0745880    -0.6709160
  C       -0.8811970    -0.0860610    -0.1982810
  C        1.4606880     0.7318840     1.7727460
  C        1.9603790     1.6404280    -0.4583390
  C       -2.9965950    -0.0375860     0.3980590
  C       -2.6480900     1.1053220    -0.2992680
  H        1.3484140    -0.2039780     2.3191610
  H        0.5624770     1.3529910     1.8963580
  H        2.3234150     1.2701900     2.1711160
  H        2.1708410     1.3362470    -1.4821670
  H        2.8360500     2.1503740    -0.0502520
  H        1.0944390     2.3121220    -0.4419640
  H       -1.7008040    -1.6902470     0.8932800
  H       -3.9262080    -0.3702980     0.8362390
  H       -3.2806590     1.9452040    -0.5535070
units angstrom
no_reorient  #important for SAPT in psi4, default
symmetry c1  #important for SAPT in psi4, default
}

set PROPERTIES_ORIGIN ["COM"]
properties('MP2/aug-cc-pvtz', properties = ['dipole'])
--------------------------------------------------------------------------

    Molecular point group: c1
  Charge       = 0
  Multiplicity = 1
  Basis Set: AUG-CC-PVTZ
    Blend: AUG-CC-PVTZ
  Basis Set: (AUG-CC-PVTZ AUX)
    Blend: AUG-CC-PVTZ-JKFIT

    Orbital Energies [Eh]
    ---------------------

    Doubly Occupied:

       1A    -92.216512     2A    -20.559213     3A    -20.558827
       4A    -15.654206     5A    -15.610424     6A    -15.585777
       7A    -11.336445     8A    -11.292393     9A    -11.274041
      10A    -11.272756    11A    -11.265514    12A     -9.180958
      13A     -6.866173    14A     -6.865836    15A     -6.865317
      16A     -1.465392    17A     -1.369319    18A     -1.348396
      19A     -1.256834    20A     -1.197849    21A     -1.048958
      22A     -0.980854    23A     -0.959194    24A     -0.876594
      25A     -0.839798    26A     -0.817633    27A     -0.752967
      28A     -0.711368    29A     -0.676423    30A     -0.668933
      31A     -0.641958    32A     -0.631925    33A     -0.624539
      34A     -0.616908    35A     -0.609194    36A     -0.576067
      37A     -0.570414    38A     -0.541392    39A     -0.514376
      40A     -0.510416    41A     -0.484805    42A     -0.482328
      43A     -0.470896    44A     -0.428578    45A     -0.417276
      46A     -0.345338

  @DF-RHF Final Energy:  -905.30499585989207

   => Energetics <=

    Nuclear Repulsion Energy =            797.9305264854147026
    One-Electron Energy =               -2826.7884181628819533
    Two-Electron Energy =                1123.5528958175752905
    Total Energy =                       -905.3049958598919602
  Basis Set: (AUG-CC-PVTZ AUX)
    Blend: AUG-CC-PVTZ-RI
    Molecular point group: c1

    Geometry (in Angstrom), charge = 0, multiplicity = 1:

       Center              X                  Y                   Z               Mass
    ------------   -----------------  -----------------  -----------------  -----------------
         S            0.773464892657    -0.679255695415    -0.284151959168    31.972071174400
         O            0.737463892657    -1.800000795415     0.663646740832    15.994914619570
         O            1.148762892657    -0.806821695415    -1.687005959168    15.994914619570
         N            1.746325892657     0.483097304585     0.390751040832    14.003074004430
         N           -1.839307107343    -0.740855695415     0.487586040832    14.003074004430
         N           -1.317351107343     1.117455304585    -0.642772959168    14.003074004430
         C           -0.871521107343    -0.043193695415    -0.170137959168    12.000000000000
         C            1.470363892657     0.774751304585     1.800889040832    12.000000000000
         C            1.970054892657     1.683295304585    -0.430195959168    12.000000000000
         C           -2.986919107343     0.005281304585     0.426202040832    12.000000000000
         C           -2.638414107343     1.148189304585    -0.271124959168    12.000000000000
         H            1.358089892657    -0.161110695415     2.347304040832     1.007825032230
         H            0.572152892657     1.395858304585     1.924501040832     1.007825032230
         H            2.333090892657     1.313057304585     2.199259040832     1.007825032230
         H            2.180516892657     1.379114304585    -1.454023959168     1.007825032230
         H            2.845725892657     2.193241304585    -0.022108959168     1.007825032230
         H            1.104114892657     2.354989304585    -0.413820959168     1.007825032230
         H           -1.691128107343    -1.647379695415     0.921423040832     1.007825032230
         H           -3.916532107343    -0.327430695415     0.864382040832     1.007825032230
         H           -3.270983107343     1.988071304585    -0.525363959168     1.007825032230

  Basis Set: AUG-CC-PVTZ
    Blend: AUG-CC-PVTZ
  Basis Set: (AUG-CC-PVTZ AUX)
    Blend: AUG-CC-PVTZ-JKFIT
	 Reference Energy          =    -905.3049958598920739 [Eh]
	 Singles Energy            =      -0.0000000000000000 [Eh]
	 Same-Spin Energy          =      -0.5976785800318375 [Eh]
	 Opposite-Spin Energy      =      -1.7758053744054436 [Eh]
	 Correlation Energy        =      -2.3734839544372810 [Eh]
	 Total Energy              =    -907.6784798143293074 [Eh]

	 ================> DF-SCS-MP2 Energies <==================
	-----------------------------------------------------------
	 SCS Same-Spin Scale       =       0.3333333333333333 [-]
	 SCS Opposite-Spin Scale   =       1.2000000000000000 [-]
	 SCS Same-Spin Energy      =      -0.1992261933439458 [Eh]
	 SCS Opposite-Spin Energy  =      -2.1309664492865323 [Eh]
	 SCS Correlation Energy    =      -2.3301926426304780 [Eh]
	 SCS Total Energy          =    -907.6351885025225101 [Eh]
	-----------------------------------------------------------

  Dipole Moment: [D]
     X:    -2.6249      Y:     1.8003      Z:     3.4729     Total:     4.7109

*** Psi4 exiting successfully. Buy a developer a beer!
