                               Psi4 1.3.2 release

  ==> Input File <==

--------------------------------------------------------------------------
#psi4
#
memory 32 gb

molecule  {
0 1
  S        0.7637890    -0.7221230    -0.3122950
  O        0.6446663    -1.8523317     0.6172888
  O        1.1390870    -0.8496890    -1.7151490
  N        1.7366500     0.4402300     0.3626080
  N       -1.8489830    -0.7837230     0.4594430
  N       -1.3270270     1.0745880    -0.6709160
  C       -0.8811970    -0.0860610    -0.1982810
  C        1.4606880     0.7318840     1.7727460
  C        1.9603790     1.6404280    -0.4583390
  C       -2.9965950    -0.0375860     0.3980590
  C       -2.6480900     1.1053220    -0.2992680
  H        1.3484140    -0.2039780     2.3191610
  H        0.5624770     1.3529910     1.8963580
  H        2.3234150     1.2701900     2.1711160
  H        2.1708410     1.3362470    -1.4821670
  H        2.8360500     2.1503740    -0.0502520
  H        1.0944390     2.3121220    -0.4419640
  H       -1.7008040    -1.6902470     0.8932800
  H       -3.9262080    -0.3702980     0.8362390
  H       -3.2806590     1.9452040    -0.5535070
units angstrom
no_reorient  #important for SAPT in psi4, default
symmetry c1  #important for SAPT in psi4, default
}

set PROPERTIES_ORIGIN ["COM"]
properties('MP2/aug-cc-pvtz', properties = ['dipole'])
--------------------------------------------------------------------------

    Molecular point group: c1
  Charge       = 0
  Multiplicity = 1
  Basis Set: AUG-CC-PVTZ
    Blend: AUG-CC-PVTZ
  Basis Set: (AUG-CC-PVTZ AUX)
    Blend: AUG-CC-PVTZ-JKFIT

    Orbital Energies [Eh]
    ---------------------

    Doubly Occupied:

       1A    -92.217333     2A    -20.559885     3A    -20.559759
       4A    -15.650946     5A    -15.613837     6A    -15.582839
       7A    -11.332560     8A    -11.289890     9A    -11.276072
      10A    -11.270263    11A    -11.267667    12A     -9.181704
      13A     -6.866917    14A     -6.866589    15A     -6.866059
      16A     -1.466301    17A     -1.366746    18A     -1.349184
      19A     -1.259933    20A     -1.195006    21A     -1.045796
      22A     -0.982883    23A     -0.960392    24A     -0.875317
      25A     -0.836982    26A     -0.815175    27A     -0.754416
      28A     -0.712434    29A     -0.675735    30A     -0.670190
      31A     -0.641238    32A     -0.630216    33A     -0.623499
      34A     -0.616292    35A     -0.608386    36A     -0.578062
      37A     -0.572087    38A     -0.543313    39A     -0.515558
      40A     -0.511259    41A     -0.483973    42A     -0.483228
      43A     -0.469999    44A     -0.426096    45A     -0.418688
      46A     -0.342939

  @DF-RHF Final Energy:  -905.30386130656052

   => Energetics <=

    Nuclear Repulsion Energy =            798.3480128391520338
    One-Electron Energy =               -2827.6364692183196894
    Two-Electron Energy =                1123.9845950726071351
    Total Energy =                       -905.3038613065605205
  Basis Set: (AUG-CC-PVTZ AUX)
    Blend: AUG-CC-PVTZ-RI
    Molecular point group: c1

    Geometry (in Angstrom), charge = 0, multiplicity = 1:

       Center              X                  Y                   Z               Mass
    ------------   -----------------  -----------------  -----------------  -----------------
         S            0.781060372198    -0.678390932301    -0.282487521358    31.972071174400
         O            0.661937672198    -1.808599632301     0.647096278642    15.994914619570
         O            1.156358372198    -0.805956932301    -1.685341521358    15.994914619570
         N            1.753921372198     0.483962067699     0.392415478642    14.003074004430
         N           -1.831711627802    -0.739990932301     0.489250478642    14.003074004430
         N           -1.309755627802     1.118320067699    -0.641108521358    14.003074004430
         C           -0.863925627802    -0.042328932301    -0.168473521358    12.000000000000
         C            1.477959372198     0.775616067699     1.802553478642    12.000000000000
         C            1.977650372198     1.684160067699    -0.428531521358    12.000000000000
         C           -2.979323627802     0.006146067699     0.427866478642    12.000000000000
         C           -2.630818627802     1.149054067699    -0.269460521358    12.000000000000
         H            1.365685372198    -0.160245932301     2.348968478642     1.007825032230
         H            0.579748372198     1.396723067699     1.926165478642     1.007825032230
         H            2.340686372198     1.313922067699     2.200923478642     1.007825032230
         H            2.188112372198     1.379979067699    -1.452359521358     1.007825032230
         H            2.853321372198     2.194106067699    -0.020444521358     1.007825032230
         H            1.111710372198     2.355854067699    -0.412156521358     1.007825032230
         H           -1.683532627802    -1.646514932301     0.923087478642     1.007825032230
         H           -3.908936627802    -0.326565932301     0.866046478642     1.007825032230
         H           -3.263387627802     1.988936067699    -0.523699521358     1.007825032230

  Basis Set: AUG-CC-PVTZ
    Blend: AUG-CC-PVTZ
  Basis Set: (AUG-CC-PVTZ AUX)
    Blend: AUG-CC-PVTZ-JKFIT
	 Reference Energy          =    -905.3038613065605205 [Eh]
	 Singles Energy            =      -0.0000000000000000 [Eh]
	 Same-Spin Energy          =      -0.5977325001612757 [Eh]
	 Opposite-Spin Energy      =      -1.7758748662761923 [Eh]
	 Correlation Energy        =      -2.3736073664374677 [Eh]
	 Total Energy              =    -907.6774686729979749 [Eh]

	 ================> DF-SCS-MP2 Energies <==================
	-----------------------------------------------------------
	 SCS Same-Spin Scale       =       0.3333333333333333 [-]
	 SCS Opposite-Spin Scale   =       1.2000000000000000 [-]
	 SCS Same-Spin Energy      =      -0.1992441667204252 [Eh]
	 SCS Opposite-Spin Energy  =      -2.1310498395314306 [Eh]
	 SCS Correlation Energy    =      -2.3302940062518558 [Eh]
	 SCS Total Energy          =    -907.6341553128123678 [Eh]
	-----------------------------------------------------------

  Dipole Moment: [D]
     X:    -2.3416      Y:     1.8255      Z:     3.5189     Total:     4.6041

*** Psi4 exiting successfully. Buy a developer a beer!
