                               Psi4 1.3.2 release

  ==> Input File <==

--------------------------------------------------------------------------
#psi4
#
memory 32 gb

molecule  {
0 1
  S        0.7722832    -0.6966779    -0.3275219
  O        0.7428910    -1.8740890     0.5977740
  O        1.1390870    -0.8496890    -1.7151490
  N        1.7366500     0.4402300     0.3626080
  N       -1.8489830    -0.7837230     0.4594430
  N       -1.3270270     1.0745880    -0.6709160
  C       -0.8811970    -0.0860610    -0.1982810
  C        1.4606880     0.7318840     1.7727460
  C        1.9603790     1.6404280    -0.4583390
  C       -2.9965950    -0.0375860     0.3980590
  C       -2.6480900     1.1053220    -0.2992680
  H        1.3484140    -0.2039780     2.3191610
  H        0.5624770     1.3529910     1.8963580
  H        2.3234150     1.2701900     2.1711160
  H        2.1708410     1.3362470    -1.4821670
  H        2.8360500     2.1503740    -0.0502520
  H        1.0944390     2.3121220    -0.4419640
  H       -1.7008040    -1.6902470     0.8932800
  H       -3.9262080    -0.3702980     0.8362390
  H       -3.2806590     1.9452040    -0.5535070
units angstrom
no_reorient  #important for SAPT in psi4, default
symmetry c1  #important for SAPT in psi4, default
}

set PROPERTIES_ORIGIN ["COM"]
properties('MP2/aug-cc-pvtz', properties = ['dipole'])
--------------------------------------------------------------------------

    Molecular point group: c1
  Charge       = 0
  Multiplicity = 1
  Basis Set: AUG-CC-PVTZ
    Blend: AUG-CC-PVTZ
  Basis Set: (AUG-CC-PVTZ AUX)
    Blend: AUG-CC-PVTZ-JKFIT

    Orbital Energies [Eh]
    ---------------------

    Doubly Occupied:

       1A    -92.215246     2A    -20.559006     3A    -20.550786
       4A    -15.654631     5A    -15.614158     6A    -15.586368
       7A    -11.337145     8A    -11.292959     9A    -11.277076
      10A    -11.273049    11A    -11.268473    12A     -9.179934
      13A     -6.865137    14A     -6.864726    15A     -6.864286
      16A     -1.462028    17A     -1.370034    18A     -1.337118
      19A     -1.263130    20A     -1.198315    21A     -1.049457
      22A     -0.984343    23A     -0.963298    24A     -0.878199
      25A     -0.839451    26A     -0.818583    27A     -0.753240
      28A     -0.710364    29A     -0.678123    30A     -0.668706
      31A     -0.642703    32A     -0.632661    33A     -0.625207
      34A     -0.615816    35A     -0.607820    36A     -0.577494
      37A     -0.572759    38A     -0.544016    39A     -0.511863
      40A     -0.506289    41A     -0.483589    42A     -0.475872
      43A     -0.471065    44A     -0.429169    45A     -0.421634
      46A     -0.345981

  @DF-RHF Final Energy:  -905.30394552767575

   => Energetics <=

    Nuclear Repulsion Energy =            797.6428835410309830
    One-Electron Energy =               -2826.2110437191336132
    Two-Electron Energy =                1123.2642146504267657
    Total Energy =                       -905.3039455276757508
  Basis Set: (AUG-CC-PVTZ AUX)
    Blend: AUG-CC-PVTZ-RI
    Molecular point group: c1

    Geometry (in Angstrom), charge = 0, multiplicity = 1:

       Center              X                  Y                   Z               Mass
    ------------   -----------------  -----------------  -----------------  -----------------
         S            0.779027512303    -0.655605351703    -0.293149944519    31.972071174400
         O            0.749635312303    -1.833016451703     0.632145955481    15.994914619570
         O            1.145831312303    -0.808616451703    -1.680777044519    15.994914619570
         N            1.743394312303     0.481302548297     0.396979955481    14.003074004430
         N           -1.842238687697    -0.742650451703     0.493814955481    14.003074004430
         N           -1.320282687697     1.115660548297    -0.636544044519    14.003074004430
         C           -0.874452687697    -0.044988451703    -0.163909044519    12.000000000000
         C            1.467432312303     0.772956548297     1.807117955481    12.000000000000
         C            1.967123312303     1.681500548297    -0.423967044519    12.000000000000
         C           -2.989850687697     0.003486548297     0.432430955481    12.000000000000
         C           -2.641345687697     1.146394548297    -0.264896044519    12.000000000000
         H            1.355158312303    -0.162905451703     2.353532955481     1.007825032230
         H            0.569221312303     1.394063548297     1.930729955481     1.007825032230
         H            2.330159312303     1.311262548297     2.205487955481     1.007825032230
         H            2.177585312303     1.377319548297    -1.447795044519     1.007825032230
         H            2.842794312303     2.191446548297    -0.015880044519     1.007825032230
         H            1.101183312303     2.353194548297    -0.407592044519     1.007825032230
         H           -1.694059687697    -1.649174451703     0.927651955481     1.007825032230
         H           -3.919463687697    -0.329225451703     0.870610955481     1.007825032230
         H           -3.273914687697     1.986276548297    -0.519135044519     1.007825032230

  Basis Set: AUG-CC-PVTZ
    Blend: AUG-CC-PVTZ
  Basis Set: (AUG-CC-PVTZ AUX)
    Blend: AUG-CC-PVTZ-JKFIT
	 Reference Energy          =    -905.3039455276757508 [Eh]
	 Singles Energy            =      -0.0000000000000000 [Eh]
	 Same-Spin Energy          =      -0.5976187998303040 [Eh]
	 Opposite-Spin Energy      =      -1.7756777501251086 [Eh]
	 Correlation Energy        =      -2.3732965499554126 [Eh]
	 Total Energy              =    -907.6772420776311492 [Eh]

	 ================> DF-SCS-MP2 Energies <==================
	-----------------------------------------------------------
	 SCS Same-Spin Scale       =       0.3333333333333333 [-]
	 SCS Opposite-Spin Scale   =       1.2000000000000000 [-]
	 SCS Same-Spin Energy      =      -0.1992062666101013 [Eh]
	 SCS Opposite-Spin Energy  =      -2.1308133001501304 [Eh]
	 SCS Correlation Energy    =      -2.3300195667602317 [Eh]
	 SCS Total Energy          =    -907.6339650944360073 [Eh]
	-----------------------------------------------------------

  Dipole Moment: [D]
     X:    -2.5814      Y:     2.1287      Z:     3.4614     Total:     4.8142

*** Psi4 exiting successfully. Buy a developer a beer!
