                               Psi4 1.3.2 release

  ==> Input File <==

--------------------------------------------------------------------------
#psi4
#
memory 32 gb

molecule  {
0 1
  S        0.7802738    -0.6710468    -0.3427095
  O        0.7428910    -1.8740890     0.5977740
  O        1.1390870    -0.8496890    -1.7151490
  N        1.7366500     0.4402300     0.3626080
  N       -1.8489830    -0.7837230     0.4594430
  N       -1.3270270     1.0745880    -0.6709160
  C       -0.8811970    -0.0860610    -0.1982810
  C        1.4606880     0.7318840     1.7727460
  C        1.9603790     1.6404280    -0.4583390
  C       -2.9965950    -0.0375860     0.3980590
  C       -2.6480900     1.1053220    -0.2992680
  H        1.3484140    -0.2039780     2.3191610
  H        0.5624770     1.3529910     1.8963580
  H        2.3234150     1.2701900     2.1711160
  H        2.1708410     1.3362470    -1.4821670
  H        2.8360500     2.1503740    -0.0502520
  H        1.0944390     2.3121220    -0.4419640
  H       -1.7008040    -1.6902470     0.8932800
  H       -3.9262080    -0.3702980     0.8362390
  H       -3.2806590     1.9452040    -0.5535070
units angstrom
no_reorient  #important for SAPT in psi4, default
symmetry c1  #important for SAPT in psi4, default
}

set PROPERTIES_ORIGIN ["COM"]
properties('MP2/aug-cc-pvtz', properties = ['dipole'])
--------------------------------------------------------------------------

    Molecular point group: c1
  Charge       = 0
  Multiplicity = 1
  Basis Set: AUG-CC-PVTZ
    Blend: AUG-CC-PVTZ
  Basis Set: (AUG-CC-PVTZ AUX)
    Blend: AUG-CC-PVTZ-JKFIT

    Orbital Energies [Eh]
    ---------------------

    Doubly Occupied:

       1A    -92.214218     2A    -20.562028     3A    -20.543071
       4A    -15.654152     5A    -15.616890     6A    -15.586089
       7A    -11.336880     8A    -11.292807     9A    -11.278845
      10A    -11.272595    11A    -11.270811    12A     -9.179314
      13A     -6.864472    14A     -6.864111    15A     -6.863581
      16A     -1.463549    17A     -1.370050    18A     -1.326847
      19A     -1.266906    20A     -1.197974    21A     -1.048965
      22A     -0.987023    23A     -0.966552    24A     -0.879223
      25A     -0.838384    26A     -0.818795    27A     -0.753976
      28A     -0.710556    29A     -0.679745    30A     -0.669893
      31A     -0.643074    32A     -0.632653    33A     -0.625300
      34A     -0.614744    35A     -0.606923    36A     -0.578428
      37A     -0.574146    38A     -0.546353    39A     -0.511345
      40A     -0.505709    41A     -0.480739    42A     -0.469955
      43A     -0.467737    44A     -0.429272    45A     -0.424767
      46A     -0.345858

  @DF-RHF Final Energy:  -905.29922317432079

   => Energetics <=

    Nuclear Repulsion Energy =            797.8322357239478606
    One-Electron Energy =               -2826.5923082432605042
    Two-Electron Energy =                1123.4608493449918569
    Total Energy =                       -905.2992231743207867
  Basis Set: (AUG-CC-PVTZ AUX)
    Blend: AUG-CC-PVTZ-RI
    Molecular point group: c1

    Geometry (in Angstrom), charge = 0, multiplicity = 1:

       Center              X                  Y                   Z               Mass
    ------------   -----------------  -----------------  -----------------  -----------------
         S            0.785558595775    -0.634655879375    -0.305563465825    31.972071174400
         O            0.748175795775    -1.837698079375     0.634920034175    15.994914619570
         O            1.144371795775    -0.813298079375    -1.678002965825    15.994914619570
         N            1.741934795775     0.476620920625     0.399754034175    14.003074004430
         N           -1.843698204225    -0.747332079375     0.496589034175    14.003074004430
         N           -1.321742204225     1.110978920625    -0.633769965825    14.003074004430
         C           -0.875912204225    -0.049670079375    -0.161134965825    12.000000000000
         C            1.465972795775     0.768274920625     1.809892034175    12.000000000000
         C            1.965663795775     1.676818920625    -0.421192965825    12.000000000000
         C           -2.991310204225    -0.001195079375     0.435205034175    12.000000000000
         C           -2.642805204225     1.141712920625    -0.262121965825    12.000000000000
         H            1.353698795775    -0.167587079375     2.356307034175     1.007825032230
         H            0.567761795775     1.389381920625     1.933504034175     1.007825032230
         H            2.328699795775     1.306580920625     2.208262034175     1.007825032230
         H            2.176125795775     1.372637920625    -1.445020965825     1.007825032230
         H            2.841334795775     2.186764920625    -0.013105965825     1.007825032230
         H            1.099723795775     2.348512920625    -0.404817965825     1.007825032230
         H           -1.695519204225    -1.653856079375     0.930426034175     1.007825032230
         H           -3.920923204225    -0.333907079375     0.873385034175     1.007825032230
         H           -3.275374204225     1.981594920625    -0.516360965825     1.007825032230

  Basis Set: AUG-CC-PVTZ
    Blend: AUG-CC-PVTZ
  Basis Set: (AUG-CC-PVTZ AUX)
    Blend: AUG-CC-PVTZ-JKFIT
	 Reference Energy          =    -905.2992231743207867 [Eh]
	 Singles Energy            =      -0.0000000000000000 [Eh]
	 Same-Spin Energy          =      -0.5977491893904623 [Eh]
	 Opposite-Spin Energy      =      -1.7759421242289202 [Eh]
	 Correlation Energy        =      -2.3736913136193825 [Eh]
	 Total Energy              =    -907.6729144879401474 [Eh]

	 ================> DF-SCS-MP2 Energies <==================
	-----------------------------------------------------------
	 SCS Same-Spin Scale       =       0.3333333333333333 [-]
	 SCS Opposite-Spin Scale   =       1.2000000000000000 [-]
	 SCS Same-Spin Energy      =      -0.1992497297968208 [Eh]
	 SCS Opposite-Spin Energy  =      -2.1311305490747041 [Eh]
	 SCS Correlation Energy    =      -2.3303802788715249 [Eh]
	 SCS Total Energy          =    -907.6296034531923169 [Eh]
	-----------------------------------------------------------

  Dipole Moment: [D]
     X:    -2.4873      Y:     2.3714      Z:     3.3524     Total:     4.8009

*** Psi4 exiting successfully. Buy a developer a beer!
