                               Psi4 1.4a3.dev225

  ==> Input File <==

--------------------------------------------------------------------------
#psi4
#
memory 32 gb

molecule  {
0 1
  S        0.7637890    -0.7221230    -0.3122950
  O        0.7428910    -1.8740890     0.5977740
  O        1.1390870    -0.8496890    -1.7151490
  N        1.7366500     0.4402300     0.3626080
  N       -1.8489830    -0.7837230     0.4594430
  N       -1.3270270     1.0745880    -0.6709160
  C       -0.8811970    -0.0860610    -0.1982810
  C        1.4606880     0.7318840     1.7727460
  C        1.9603790     1.6404280    -0.4583390
  C       -2.9965950    -0.0375860     0.3980590
  C       -2.6288422     1.1048742    -0.3046829
  H        1.3484140    -0.2039780     2.3191610
  H        0.5624770     1.3529910     1.8963580
  H        2.3234150     1.2701900     2.1711160
  H        2.1708410     1.3362470    -1.4821670
  H        2.8360500     2.1503740    -0.0502520
  H        1.0944390     2.3121220    -0.4419640
  H       -1.7008040    -1.6902470     0.8932800
  H       -3.9262080    -0.3702980     0.8362390
  H       -3.2806590     1.9452040    -0.5535070
units angstrom
no_reorient  #important for SAPT in psi4, default
symmetry c1  #important for SAPT in psi4, default
}

set PROPERTIES_ORIGIN ["COM"]
properties('MP2/aug-cc-pvtz', properties = ['dipole'])
--------------------------------------------------------------------------

    Molecular point group: c1
  Charge       = 0
  Multiplicity = 1
  Basis Set: AUG-CC-PVTZ
    Blend: AUG-CC-PVTZ
  Basis Set: (AUG-CC-PVTZ AUX)
    Blend: AUG-CC-PVTZ-JKFIT

    Orbital Energies [Eh]
    ---------------------

    Doubly Occupied:

       1A    -92.215550     2A    -20.558244     3A    -20.555624
       4A    -15.656591     5A    -15.611102     6A    -15.586116
       7A    -11.336829     8A    -11.293039     9A    -11.275220
      10A    -11.273928    11A    -11.266117    12A     -9.180049
      13A     -6.865267    14A     -6.864866    15A     -6.864448
      16A     -1.464124    17A     -1.372413    18A     -1.345239
      19A     -1.257874    20A     -1.203427    21A     -1.048854
      22A     -0.981661    23A     -0.959372    24A     -0.877647
      25A     -0.840719    26A     -0.818943    27A     -0.752907
      28A     -0.710712    29A     -0.677041    30A     -0.668133
      31A     -0.642987    32A     -0.633856    33A     -0.625779
      34A     -0.615480    35A     -0.608677    36A     -0.577168
      37A     -0.571088    38A     -0.541898    39A     -0.513779
      40A     -0.507773    41A     -0.484711    42A     -0.479818
      43A     -0.472258    44A     -0.432619    45A     -0.418156
      46A     -0.343600

  @DF-RHF Final Energy:  -905.30531499685060

   => Energetics <=

    Nuclear Repulsion Energy =            797.8592878202520069
    One-Electron Energy =               -2826.6257965055560817
    Two-Electron Energy =                1123.4611936884532497
    Total Energy =                       -905.3053149968507114
  Basis Set: (AUG-CC-PVTZ AUX)
    Blend: AUG-CC-PVTZ-RI
    Molecular point group: c1

    Geometry (in Angstrom), charge = 0, multiplicity = 1:

       Center              X                  Y                   Z               Mass
    ------------   -----------------  -----------------  -----------------  -----------------
         S            0.770765277613    -0.676372098713    -0.280333082228    31.972071174400
         O            0.749867277613    -1.828338098713     0.629735917772    15.994914619570
         O            1.146063277613    -0.803938098713    -1.683187082228    15.994914619570
         N            1.743626277613     0.485980901287     0.394569917772    14.003074004430
         N           -1.842006722387    -0.737972098713     0.491404917772    14.003074004430
         N           -1.320050722387     1.120338901287    -0.638954082228    14.003074004430
         C           -0.874220722387    -0.040310098713    -0.166319082228    12.000000000000
         C            1.467664277613     0.777634901287     1.804707917772    12.000000000000
         C            1.967355277613     1.686178901287    -0.426377082228    12.000000000000
         C           -2.989618722387     0.008164901287     0.430020917772    12.000000000000
         C           -2.621865922387     1.150625101287    -0.272720982228    12.000000000000
         H            1.355390277613    -0.158227098713     2.351122917772     1.007825032230
         H            0.569453277613     1.398741901287     1.928319917772     1.007825032230
         H            2.330391277613     1.315940901287     2.203077917772     1.007825032230
         H            2.177817277613     1.381997901287    -1.450205082228     1.007825032230
         H            2.843026277613     2.196124901287    -0.018290082228     1.007825032230
         H            1.101415277613     2.357872901287    -0.410002082228     1.007825032230
         H           -1.693827722387    -1.644496098713     0.925241917772     1.007825032230
         H           -3.919231722387    -0.324547098713     0.868200917772     1.007825032230
         H           -3.273682722387     1.990954901287    -0.521545082228     1.007825032230

  Basis Set: AUG-CC-PVTZ
    Blend: AUG-CC-PVTZ
  Basis Set: (AUG-CC-PVTZ AUX)
    Blend: AUG-CC-PVTZ-JKFIT
	 Reference Energy          =    -905.3053149968505977 [Eh]
	 Singles Energy            =      -0.0000000000000000 [Eh]
	 Same-Spin Energy          =      -0.5977262456126573 [Eh]
	 Opposite-Spin Energy      =      -1.7754757918310431 [Eh]
	 Correlation Energy        =      -2.3732020374437006 [Eh]
	 Total Energy              =    -907.6785170342942592 [Eh]

	 ================> DF-SCS-MP2 Energies <==================
	-----------------------------------------------------------
	 SCS Same-Spin Scale       =       0.3333333333333333 [-]
	 SCS Opposite-Spin Scale   =       1.2000000000000000 [-]
	 SCS Same-Spin Energy      =      -0.1992420818708858 [Eh]
	 SCS Opposite-Spin Energy  =      -2.1305709501972516 [Eh]
	 SCS Correlation Energy    =      -2.3298130320681372 [Eh]
	 SCS Total Energy          =    -907.6351280289187571 [Eh]
	-----------------------------------------------------------

  Dipole Moment: [D]
     X:    -2.6831      Y:     1.8897      Z:     3.5678     Total:     4.8476

*** Psi4 exiting successfully. Buy a developer a beer!
