                               Psi4 1.4a3.dev225

  ==> Input File <==

--------------------------------------------------------------------------
#psi4
#
memory 32 gb

molecule  {
0 1
  S        0.7637890    -0.7221230    -0.3122950
  O        0.7428910    -1.8740890     0.5977740
  O        1.1390870    -0.8496890    -1.7151490
  N        1.7366500     0.4402300     0.3626080
  N       -1.8489830    -0.7837230     0.4594430
  N       -1.3270270     1.0745880    -0.6709160
  C       -0.8811970    -0.0860610    -0.1982810
  C        1.4606880     0.7318840     1.7727460
  C        1.9603790     1.6404280    -0.4583390
  C       -2.9965950    -0.0375860     0.3980590
  C       -2.5999705     1.1042025    -0.3128052
  H        1.3484140    -0.2039780     2.3191610
  H        0.5624770     1.3529910     1.8963580
  H        2.3234150     1.2701900     2.1711160
  H        2.1708410     1.3362470    -1.4821670
  H        2.8360500     2.1503740    -0.0502520
  H        1.0944390     2.3121220    -0.4419640
  H       -1.7008040    -1.6902470     0.8932800
  H       -3.9262080    -0.3702980     0.8362390
  H       -3.2806590     1.9452040    -0.5535070
units angstrom
no_reorient  #important for SAPT in psi4, default
symmetry c1  #important for SAPT in psi4, default
}

set PROPERTIES_ORIGIN ["COM"]
properties('MP2/aug-cc-pvtz', properties = ['dipole'])
--------------------------------------------------------------------------

    Molecular point group: c1
  Charge       = 0
  Multiplicity = 1
  Basis Set: AUG-CC-PVTZ
    Blend: AUG-CC-PVTZ
  Basis Set: (AUG-CC-PVTZ AUX)
    Blend: AUG-CC-PVTZ-JKFIT

    Orbital Energies [Eh]
    ---------------------

    Doubly Occupied:

       1A    -92.215096     2A    -20.557803     3A    -20.555181
       4A    -15.658877     5A    -15.610759     6A    -15.585171
       7A    -11.335760     8A    -11.292971     9A    -11.275115
      10A    -11.274614    11A    -11.266117    12A     -9.179564
      13A     -6.864781    14A     -6.864386    15A     -6.863970
      16A     -1.463762    17A     -1.376388    18A     -1.344926
      19A     -1.257637    20A     -1.210891    21A     -1.047168
      22A     -0.981561    23A     -0.958433    24A     -0.878839
      25A     -0.840906    26A     -0.819696    27A     -0.752794
      28A     -0.710679    29A     -0.677347    30A     -0.668075
      31A     -0.643684    32A     -0.636538    33A     -0.626905
      34A     -0.613781    35A     -0.607105    36A     -0.577048
      37A     -0.571010    38A     -0.541803    39A     -0.513354
      40A     -0.507546    41A     -0.483064    42A     -0.479491
      43A     -0.473088    44A     -0.438003    45A     -0.418168
      46A     -0.339882

  @DF-RHF Final Energy:  -905.30258878360985

   => Energetics <=

    Nuclear Repulsion Energy =            798.4507460693197345
    One-Electron Energy =               -2827.7871968096064847
    Two-Electron Energy =                1124.0338619566769012
    Total Energy =                       -905.3025887836097354
  Basis Set: (AUG-CC-PVTZ AUX)
    Blend: AUG-CC-PVTZ-RI
    Molecular point group: c1

    Geometry (in Angstrom), charge = 0, multiplicity = 1:

       Center              X                  Y                   Z               Mass
    ------------   -----------------  -----------------  -----------------  -----------------
         S            0.768785973816    -0.676326050217    -0.279776256712    31.972071174400
         O            0.747887973816    -1.828292050217     0.630292743288    15.994914619570
         O            1.144083973816    -0.803892050217    -1.682630256712    15.994914619570
         N            1.741646973816     0.486026949783     0.395126743288    14.003074004430
         N           -1.843986026184    -0.737926050217     0.491961743288    14.003074004430
         N           -1.322030026184     1.120384949783    -0.638397256712    14.003074004430
         C           -0.876200026184    -0.040264050217    -0.165762256712    12.000000000000
         C            1.465684973816     0.777680949783     1.805264743288    12.000000000000
         C            1.965375973816     1.686224949783    -0.425820256712    12.000000000000
         C           -2.991598026184     0.008210949783     0.430577743288    12.000000000000
         C           -2.594973526184     1.149999449783    -0.280286456712    12.000000000000
         H            1.353410973816    -0.158181050217     2.351679743288     1.007825032230
         H            0.567473973816     1.398787949783     1.928876743288     1.007825032230
         H            2.328411973816     1.315986949783     2.203634743288     1.007825032230
         H            2.175837973816     1.382043949783    -1.449648256712     1.007825032230
         H            2.841046973816     2.196170949783    -0.017733256712     1.007825032230
         H            1.099435973816     2.357918949783    -0.409445256712     1.007825032230
         H           -1.695807026184    -1.644450050217     0.925798743288     1.007825032230
         H           -3.921211026184    -0.324501050217     0.868757743288     1.007825032230
         H           -3.275662026184     1.991000949783    -0.520988256712     1.007825032230

  Basis Set: AUG-CC-PVTZ
    Blend: AUG-CC-PVTZ
  Basis Set: (AUG-CC-PVTZ AUX)
    Blend: AUG-CC-PVTZ-JKFIT
	 Reference Energy          =    -905.3025887836098491 [Eh]
	 Singles Energy            =      -0.0000000000000000 [Eh]
	 Same-Spin Energy          =      -0.5981149903102523 [Eh]
	 Opposite-Spin Energy      =      -1.7755853558293757 [Eh]
	 Correlation Energy        =      -2.3737003461396280 [Eh]
	 Total Energy              =    -907.6762891297494207 [Eh]

	 ================> DF-SCS-MP2 Energies <==================
	-----------------------------------------------------------
	 SCS Same-Spin Scale       =       0.3333333333333333 [-]
	 SCS Opposite-Spin Scale   =       1.2000000000000000 [-]
	 SCS Same-Spin Energy      =      -0.1993716634367508 [Eh]
	 SCS Opposite-Spin Energy  =      -2.1307024269952506 [Eh]
	 SCS Correlation Energy    =      -2.3300740904320012 [Eh]
	 SCS Total Energy          =    -907.6326628740418982 [Eh]
	-----------------------------------------------------------

  Dipole Moment: [D]
     X:    -2.6815      Y:     1.8898      Z:     3.5632     Total:     4.8433

*** Psi4 exiting successfully. Buy a developer a beer!
