                               Psi4 1.3.2 release

  ==> Input File <==

--------------------------------------------------------------------------
#psi4
#
memory 32 gb

molecule  {
0 1
  S        0.8215911    -0.7071172    -0.4115229
  O        0.7428910    -1.8740890     0.5977740
  O        1.1390870    -0.8496890    -1.7151490
  N        1.7366500     0.4402300     0.3626080
  N       -1.8489830    -0.7837230     0.4594430
  N       -1.3270270     1.0745880    -0.6709160
  C       -0.8811970    -0.0860610    -0.1982810
  C        1.4606880     0.7318840     1.7727460
  C        1.9603790     1.6404280    -0.4583390
  C       -2.9965950    -0.0375860     0.3980590
  C       -2.6480900     1.1053220    -0.2992680
  H        1.3484140    -0.2039780     2.3191610
  H        0.5624770     1.3529910     1.8963580
  H        2.3234150     1.2701900     2.1711160
  H        2.1708410     1.3362470    -1.4821670
  H        2.8360500     2.1503740    -0.0502520
  H        1.0944390     2.3121220    -0.4419640
  H       -1.7008040    -1.6902470     0.8932800
  H       -3.9262080    -0.3702980     0.8362390
  H       -3.2806590     1.9452040    -0.5535070
units angstrom
no_reorient  #important for SAPT in psi4, default
symmetry c1  #important for SAPT in psi4, default
}

set PROPERTIES_ORIGIN ["COM"]
properties('MP2/aug-cc-pvtz', properties = ['dipole'])
--------------------------------------------------------------------------

    Molecular point group: c1
  Charge       = 0
  Multiplicity = 1
  Basis Set: AUG-CC-PVTZ
    Blend: AUG-CC-PVTZ
  Basis Set: (AUG-CC-PVTZ AUX)
    Blend: AUG-CC-PVTZ-JKFIT

    Orbital Energies [Eh]
    ---------------------

    Doubly Occupied:

       1A    -92.214142     2A    -20.583324     3A    -20.541495
       4A    -15.647365     5A    -15.611824     6A    -15.578253
       7A    -11.332441     8A    -11.286048     9A    -11.275184
      10A    -11.268402    11A    -11.266833    12A     -9.180575
      13A     -6.866047    14A     -6.865278    15A     -6.864625
      16A     -1.514024    17A     -1.365702    18A     -1.331316
      19A     -1.255777    20A     -1.191290    21A     -1.036360
      22A     -0.983184    23A     -0.957223    24A     -0.866901
      25A     -0.831240    26A     -0.812795    27A     -0.756226
      28A     -0.721772    29A     -0.679882    30A     -0.676965
      31A     -0.647307    32A     -0.627687    33A     -0.620414
      34A     -0.617873    35A     -0.606355    36A     -0.586388
      37A     -0.571250    38A     -0.545380    39A     -0.530298
      40A     -0.515000    41A     -0.476153    42A     -0.473090
      43A     -0.460051    44A     -0.423565    45A     -0.414851
      46A     -0.339299

  @DF-RHF Final Energy:  -905.28375202384552

   => Energetics <=

    Nuclear Repulsion Energy =            796.5236667470115890
    One-Electron Energy =               -2823.9799240944403209
    Two-Electron Energy =                1122.1725053235829819
    Total Energy =                       -905.2837520238456364
  Basis Set: (AUG-CC-PVTZ AUX)
    Blend: AUG-CC-PVTZ-RI
    Molecular point group: c1

    Geometry (in Angstrom), charge = 0, multiplicity = 1:

       Center              X                  Y                   Z               Mass
    ------------   -----------------  -----------------  -----------------  -----------------
         S            0.819329118033    -0.664137869874    -0.361807810356    31.972071174400
         O            0.740629018033    -1.831109669874     0.647489089644    15.994914619570
         O            1.136825018033    -0.806709669874    -1.665433910356    15.994914619570
         N            1.734388018033     0.483209330126     0.412323089644    14.003074004430
         N           -1.851244981967    -0.740743669874     0.509158089644    14.003074004430
         N           -1.329288981967     1.117567330126    -0.621200910356    14.003074004430
         C           -0.883458981967    -0.043081669874    -0.148565910356    12.000000000000
         C            1.458426018033     0.774863330126     1.822461089644    12.000000000000
         C            1.958117018033     1.683407330126    -0.408623910356    12.000000000000
         C           -2.998856981967     0.005393330126     0.447774089644    12.000000000000
         C           -2.650351981967     1.148301330126    -0.249552910356    12.000000000000
         H            1.346152018033    -0.160998669874     2.368876089644     1.007825032230
         H            0.560215018033     1.395970330126     1.946073089644     1.007825032230
         H            2.321153018033     1.313169330126     2.220831089644     1.007825032230
         H            2.168579018033     1.379226330126    -1.432451910356     1.007825032230
         H            2.833788018033     2.193353330126    -0.000536910356     1.007825032230
         H            1.092177018033     2.355101330126    -0.392248910356     1.007825032230
         H           -1.703065981967    -1.647267669874     0.942995089644     1.007825032230
         H           -3.928469981967    -0.327318669874     0.885954089644     1.007825032230
         H           -3.282920981967     1.988183330126    -0.503791910356     1.007825032230

  Basis Set: AUG-CC-PVTZ
    Blend: AUG-CC-PVTZ
  Basis Set: (AUG-CC-PVTZ AUX)
    Blend: AUG-CC-PVTZ-JKFIT
	 Reference Energy          =    -905.2837520238455227 [Eh]
	 Singles Energy            =      -0.0000000000000000 [Eh]
	 Same-Spin Energy          =      -0.5960099544658998 [Eh]
	 Opposite-Spin Energy      =      -1.7736958673085774 [Eh]
	 Correlation Energy        =      -2.3697058217744771 [Eh]
	 Total Energy              =    -907.6534578456199824 [Eh]

	 ================> DF-SCS-MP2 Energies <==================
	-----------------------------------------------------------
	 SCS Same-Spin Scale       =       0.3333333333333333 [-]
	 SCS Opposite-Spin Scale   =       1.2000000000000000 [-]
	 SCS Same-Spin Energy      =      -0.1986699848219666 [Eh]
	 SCS Opposite-Spin Energy  =      -2.1284350407702930 [Eh]
	 SCS Correlation Energy    =      -2.3271050255922594 [Eh]
	 SCS Total Energy          =    -907.6108570494377545 [Eh]
	-----------------------------------------------------------

  Dipole Moment: [D]
     X:    -2.0191      Y:     1.9856      Z:     2.7215     Total:     3.9276

*** Psi4 exiting successfully. Buy a developer a beer!
