                               Psi4 1.3.2 release

  ==> Input File <==

--------------------------------------------------------------------------
#psi4
#
memory 32 gb

molecule  {
0 1
  S        0.7637890    -0.7221230    -0.3122950
  O        0.7428910    -1.8740890     0.5977740
  O        1.1390870    -0.8496890    -1.7151490
  N        1.7366500     0.4402300     0.3626080
  N       -1.8489830    -0.7837230     0.4594430
  N       -1.3196596     0.9464387    -0.6063561
  C       -0.8811970    -0.0860610    -0.1982810
  C        1.4606880     0.7318840     1.7727460
  C        1.9603790     1.6404280    -0.4583390
  C       -2.9965950    -0.0375860     0.3980590
  C       -2.6480900     1.1053220    -0.2992680
  H        1.3484140    -0.2039780     2.3191610
  H        0.5624770     1.3529910     1.8963580
  H        2.3234150     1.2701900     2.1711160
  H        2.1708410     1.3362470    -1.4821670
  H        2.8360500     2.1503740    -0.0502520
  H        1.0944390     2.3121220    -0.4419640
  H       -1.7008040    -1.6902470     0.8932800
  H       -3.9262080    -0.3702980     0.8362390
  H       -3.2806590     1.9452040    -0.5535070
units angstrom
no_reorient  #important for SAPT in psi4, default
symmetry c1  #important for SAPT in psi4, default
}

set PROPERTIES_ORIGIN ["COM"]
properties('MP2/aug-cc-pvtz', properties = ['dipole'])
--------------------------------------------------------------------------

    Molecular point group: c1
  Charge       = 0
  Multiplicity = 1
  Basis Set: AUG-CC-PVTZ
    Blend: AUG-CC-PVTZ
  Basis Set: (AUG-CC-PVTZ AUX)
    Blend: AUG-CC-PVTZ-JKFIT

    Orbital Energies [Eh]
    ---------------------

    Doubly Occupied:

       1A    -92.213064     2A    -20.556869     3A    -20.555318
       4A    -15.636513     5A    -15.610977     6A    -15.564377
       7A    -11.318902     8A    -11.294708     9A    -11.275439
      10A    -11.271046    11A    -11.266739    12A     -9.178072
      13A     -6.863241    14A     -6.862820    15A     -6.862422
      16A     -1.464084    17A     -1.393544    18A     -1.344665
      19A     -1.257898    20A     -1.207853    21A     -1.058047
      22A     -0.981943    23A     -0.961205    24A     -0.872095
      25A     -0.851385    26A     -0.811997    27A     -0.755268
      28A     -0.711255    29A     -0.683919    30A     -0.667844
      31A     -0.648607    32A     -0.635185    33A     -0.629681
      34A     -0.620905    35A     -0.612255    36A     -0.577587
      37A     -0.571388    38A     -0.542106    39A     -0.516536
      40A     -0.507051    41A     -0.491574    42A     -0.478958
      43A     -0.452873    44A     -0.436252    45A     -0.412615
      46A     -0.352731

  @DF-RHF Final Energy:  -905.29341253876328

   => Energetics <=

    Nuclear Repulsion Energy =            801.9134770523647830
    One-Electron Energy =               -2834.7341523948675786
    Two-Electron Energy =                1127.5272628037396316
    Total Energy =                       -905.2934125387632776
  Basis Set: (AUG-CC-PVTZ AUX)
    Blend: AUG-CC-PVTZ-RI
    Molecular point group: c1

    Geometry (in Angstrom), charge = 0, multiplicity = 1:

       Center              X                  Y                   Z               Mass
    ------------   -----------------  -----------------  -----------------  -----------------
         S            0.771495431992    -0.666151036600    -0.285869001385    31.972071174400
         O            0.750597431992    -1.818117036600     0.624199998615    15.994914619570
         O            1.146793431992    -0.793717036600    -1.688723001385    15.994914619570
         N            1.744356431992     0.496201963400     0.389033998615    14.003074004430
         N           -1.841276568008    -0.727751036600     0.485868998615    14.003074004430
         N           -1.311953168008     1.002410663400    -0.579930101385    14.003074004430
         C           -0.873490568008    -0.030089036600    -0.171855001385    12.000000000000
         C            1.468394431992     0.787855963400     1.799171998615    12.000000000000
         C            1.968085431992     1.696399963400    -0.431913001385    12.000000000000
         C           -2.988888568008     0.018385963400     0.424484998615    12.000000000000
         C           -2.640383568008     1.161293963400    -0.272842001385    12.000000000000
         H            1.356120431992    -0.148006036600     2.345586998615     1.007825032230
         H            0.570183431992     1.408962963400     1.922783998615     1.007825032230
         H            2.331121431992     1.326161963400     2.197541998615     1.007825032230
         H            2.178547431992     1.392218963400    -1.455741001385     1.007825032230
         H            2.843756431992     2.206345963400    -0.023826001385     1.007825032230
         H            1.102145431992     2.368093963400    -0.415538001385     1.007825032230
         H           -1.693097568008    -1.634275036600     0.919705998615     1.007825032230
         H           -3.918501568008    -0.314326036600     0.862664998615     1.007825032230
         H           -3.272952568008     2.001175963400    -0.527081001385     1.007825032230

  Basis Set: AUG-CC-PVTZ
    Blend: AUG-CC-PVTZ
  Basis Set: (AUG-CC-PVTZ AUX)
    Blend: AUG-CC-PVTZ-JKFIT
	 Reference Energy          =    -905.2934125387632776 [Eh]
	 Singles Energy            =      -0.0000000000000000 [Eh]
	 Same-Spin Energy          =      -0.5945022962218243 [Eh]
	 Opposite-Spin Energy      =      -1.7693208132742804 [Eh]
	 Correlation Energy        =      -2.3638231094961046 [Eh]
	 Total Energy              =    -907.6572356482594159 [Eh]

	 ================> DF-SCS-MP2 Energies <==================
	-----------------------------------------------------------
	 SCS Same-Spin Scale       =       0.3333333333333333 [-]
	 SCS Opposite-Spin Scale   =       1.2000000000000000 [-]
	 SCS Same-Spin Energy      =      -0.1981674320739414 [Eh]
	 SCS Opposite-Spin Energy  =      -2.1231849759291364 [Eh]
	 SCS Correlation Energy    =      -2.3213524080030776 [Eh]
	 SCS Total Energy          =    -907.6147649467663996 [Eh]
	-----------------------------------------------------------

  Dipole Moment: [D]
     X:    -2.5908      Y:     2.2230      Z:     3.3805     Total:     4.8043

*** Psi4 exiting successfully. Buy a developer a beer!
