                               Psi4 1.3.2 release

  ==> Input File <==

--------------------------------------------------------------------------
#psi4
#
memory 32 gb

molecule  {
0 1
  S        0.7637890    -0.7221230    -0.3122950
  O        0.7428910    -1.8740890     0.5977740
  O        1.1390870    -0.8496890    -1.7151490
  N        1.7366500     0.4402300     0.3626080
  N       -1.8489830    -0.7837230     0.4594430
  N       -1.3270270     1.0745880    -0.6709160
  C       -1.0232751    -0.1884829    -0.1017223
  C        1.4606880     0.7318840     1.7727460
  C        1.9603790     1.6404280    -0.4583390
  C       -2.9965950    -0.0375860     0.3980590
  C       -2.6480900     1.1053220    -0.2992680
  H        1.3484140    -0.2039780     2.3191610
  H        0.5624770     1.3529910     1.8963580
  H        2.3234150     1.2701900     2.1711160
  H        2.1708410     1.3362470    -1.4821670
  H        2.8360500     2.1503740    -0.0502520
  H        1.0944390     2.3121220    -0.4419640
  H       -1.7008040    -1.6902470     0.8932800
  H       -3.9262080    -0.3702980     0.8362390
  H       -3.2806590     1.9452040    -0.5535070
units angstrom
no_reorient  #important for SAPT in psi4, default
symmetry c1  #important for SAPT in psi4, default
}

set PROPERTIES_ORIGIN ["COM"]
properties('MP2/aug-cc-pvtz', properties = ['dipole'])
--------------------------------------------------------------------------

    Molecular point group: c1
  Charge       = 0
  Multiplicity = 1
  Basis Set: AUG-CC-PVTZ
    Blend: AUG-CC-PVTZ
  Basis Set: (AUG-CC-PVTZ AUX)
    Blend: AUG-CC-PVTZ-JKFIT

    Orbital Energies [Eh]
    ---------------------

    Doubly Occupied:

       1A    -92.214410     2A    -20.559877     3A    -20.552713
       4A    -15.665907     5A    -15.616511     6A    -15.572826
       7A    -11.335107     8A    -11.277602     9A    -11.276992
      10A    -11.274485    11A    -11.265844    12A     -9.178349
      13A     -6.863313    14A     -6.863191    15A     -6.862531
      16A     -1.464271    17A     -1.431104    18A     -1.344375
      19A     -1.259199    20A     -1.200357    21A     -1.045092
      22A     -0.982805    23A     -0.955590    24A     -0.879912
      25A     -0.849425    26A     -0.843773    27A     -0.750562
      28A     -0.710636    29A     -0.676296    30A     -0.668543
      31A     -0.661473    32A     -0.643863    33A     -0.629126
      34A     -0.616696    35A     -0.598347    36A     -0.577190
      37A     -0.571533    38A     -0.542843    39A     -0.509469
      40A     -0.507594    41A     -0.480500    42A     -0.472652
      43A     -0.461075    44A     -0.431755    45A     -0.417682
      46A     -0.338994

  @DF-RHF Final Energy:  -905.24732912958382

   => Energetics <=

    Nuclear Repulsion Energy =            797.1645949911181788
    One-Electron Energy =               -2825.0190724518861316
    Two-Electron Energy =                1122.6071483311841348
    Total Energy =                       -905.2473291295839317
  Basis Set: (AUG-CC-PVTZ AUX)
    Blend: AUG-CC-PVTZ-RI
    Molecular point group: c1

    Geometry (in Angstrom), charge = 0, multiplicity = 1:

       Center              X                  Y                   Z               Mass
    ------------   -----------------  -----------------  -----------------  -----------------
         S            0.781824999292    -0.669381248735    -0.287323897928    31.972071174400
         O            0.760926999292    -1.821347248735     0.622745102072    15.994914619570
         O            1.157122999292    -0.796947248735    -1.690177897928    15.994914619570
         N            1.754685999292     0.492971751265     0.387579102072    14.003074004430
         N           -1.830947000708    -0.730981248735     0.484414102072    14.003074004430
         N           -1.308991000708     1.127329751265    -0.645944897928    14.003074004430
         C           -1.005239100708    -0.135741148735    -0.076751197928    12.000000000000
         C            1.478723999292     0.784625751265     1.797717102072    12.000000000000
         C            1.978414999292     1.693169751265    -0.433367897928    12.000000000000
         C           -2.978559000708     0.015155751265     0.423030102072    12.000000000000
         C           -2.630054000708     1.158063751265    -0.274296897928    12.000000000000
         H            1.366449999292    -0.151236248735     2.344132102072     1.007825032230
         H            0.580512999292     1.405732751265     1.921329102072     1.007825032230
         H            2.341450999292     1.322931751265     2.196087102072     1.007825032230
         H            2.188876999292     1.388988751265    -1.457195897928     1.007825032230
         H            2.854085999292     2.203115751265    -0.025280897928     1.007825032230
         H            1.112474999292     2.364863751265    -0.416992897928     1.007825032230
         H           -1.682768000708    -1.637505248735     0.918251102072     1.007825032230
         H           -3.908172000708    -0.317556248735     0.861210102072     1.007825032230
         H           -3.262623000708     1.997945751265    -0.528535897928     1.007825032230

  Basis Set: AUG-CC-PVTZ
    Blend: AUG-CC-PVTZ
  Basis Set: (AUG-CC-PVTZ AUX)
    Blend: AUG-CC-PVTZ-JKFIT
	 Reference Energy          =    -905.2473291295838180 [Eh]
	 Singles Energy            =      -0.0000000000000000 [Eh]
	 Same-Spin Energy          =      -0.5970766252591607 [Eh]
	 Opposite-Spin Energy      =      -1.7745280080997654 [Eh]
	 Correlation Energy        =      -2.3716046333589262 [Eh]
	 Total Energy              =    -907.6189337629427882 [Eh]

	 ================> DF-SCS-MP2 Energies <==================
	-----------------------------------------------------------
	 SCS Same-Spin Scale       =       0.3333333333333333 [-]
	 SCS Opposite-Spin Scale   =       1.2000000000000000 [-]
	 SCS Same-Spin Energy      =      -0.1990255417530536 [Eh]
	 SCS Opposite-Spin Energy  =      -2.1294336097197184 [Eh]
	 SCS Correlation Energy    =      -2.3284591514727722 [Eh]
	 SCS Total Energy          =    -907.5757882810565889 [Eh]
	-----------------------------------------------------------

  Dipole Moment: [D]
     X:    -2.4329      Y:     1.6649      Z:     3.6609     Total:     4.7003

*** Psi4 exiting successfully. Buy a developer a beer!
