                               Psi4 1.3.2 release

  ==> Input File <==

--------------------------------------------------------------------------
#psi4
#
memory 32 gb

molecule  {
0 1
  S        0.7024023    -0.8704579    -0.2203672
  O        0.7428910    -1.8740890     0.5977740
  O        1.1390870    -0.8496890    -1.7151490
  N        1.7366500     0.4402300     0.3626080
  N       -1.8489830    -0.7837230     0.4594430
  N       -1.3270270     1.0745880    -0.6709160
  C       -0.8811970    -0.0860610    -0.1982810
  C        1.4606880     0.7318840     1.7727460
  C        1.9603790     1.6404280    -0.4583390
  C       -2.9965950    -0.0375860     0.3980590
  C       -2.6480900     1.1053220    -0.2992680
  H        1.3484140    -0.2039780     2.3191610
  H        0.5624770     1.3529910     1.8963580
  H        2.3234150     1.2701900     2.1711160
  H        2.1708410     1.3362470    -1.4821670
  H        2.8360500     2.1503740    -0.0502520
  H        1.0944390     2.3121220    -0.4419640
  H       -1.7008040    -1.6902470     0.8932800
  H       -3.9262080    -0.3702980     0.8362390
  H       -3.2806590     1.9452040    -0.5535070
units angstrom
no_reorient  #important for SAPT in psi4, default
symmetry c1  #important for SAPT in psi4, default
}

set PROPERTIES_ORIGIN ["COM"]
properties('MP2/aug-cc-pvtz', properties = ['dipole'])
--------------------------------------------------------------------------

    Molecular point group: c1
  Charge       = 0
  Multiplicity = 1
  Basis Set: AUG-CC-PVTZ
    Blend: AUG-CC-PVTZ
  Basis Set: (AUG-CC-PVTZ AUX)
    Blend: AUG-CC-PVTZ-JKFIT

    Orbital Energies [Eh]
    ---------------------

    Doubly Occupied:

       1A    -92.208525     2A    -20.602458     3A    -20.536898
       4A    -15.659098     5A    -15.592218     6A    -15.589032
       7A    -11.341631     8A    -11.294723     9A    -11.276998
      10A    -11.264312    11A    -11.251794    12A     -9.178956
      13A     -6.865274    14A     -6.863072    15A     -6.861981
      16A     -1.564778    17A     -1.376392    18A     -1.320167
      19A     -1.221573    20A     -1.201937    21A     -1.054517
      22A     -0.966995    23A     -0.941974    24A     -0.870078
      25A     -0.848649    26A     -0.817801    27A     -0.767402
      28A     -0.729132    29A     -0.689598    30A     -0.683981
      31A     -0.644423    32A     -0.635491    33A     -0.625608
      34A     -0.618821    35A     -0.610355    36A     -0.595204
      37A     -0.559024    38A     -0.538572    39A     -0.533550
      40A     -0.507521    41A     -0.477642    42A     -0.468158
      43A     -0.449193    44A     -0.431437    45A     -0.394125
      46A     -0.346185

  @DF-RHF Final Energy:  -905.24126038411532

   => Energetics <=

    Nuclear Repulsion Energy =            797.0727540919049261
    One-Electron Energy =               -2824.8735215169199364
    Two-Electron Energy =                1122.5595070408996889
    Total Energy =                       -905.2412603841153214
  Basis Set: (AUG-CC-PVTZ AUX)
    Blend: AUG-CC-PVTZ-RI
    Molecular point group: c1

    Geometry (in Angstrom), charge = 0, multiplicity = 1:

       Center              X                  Y                   Z               Mass
    ------------   -----------------  -----------------  -----------------  -----------------
         S            0.721910651113    -0.797643707498    -0.205567498877    31.972071174400
         O            0.762399351113    -1.801274807498     0.612573701123    15.994914619570
         O            1.158595351113    -0.776874807498    -1.700349298877    15.994914619570
         N            1.756158351113     0.513044192502     0.377407701123    14.003074004430
         N           -1.829474648887    -0.710908807498     0.474242701123    14.003074004430
         N           -1.307518648887     1.147402192502    -0.656116298877    14.003074004430
         C           -0.861688648887    -0.013246807498    -0.183481298877    12.000000000000
         C            1.480196351113     0.804698192502     1.787545701123    12.000000000000
         C            1.979887351113     1.713242192502    -0.443539298877    12.000000000000
         C           -2.977086648887     0.035228192502     0.412858701123    12.000000000000
         C           -2.628581648887     1.178136192502    -0.284468298877    12.000000000000
         H            1.367922351113    -0.131163807498     2.333960701123     1.007825032230
         H            0.581985351113     1.425805192502     1.911157701123     1.007825032230
         H            2.342923351113     1.343004192502     2.185915701123     1.007825032230
         H            2.190349351113     1.409061192502    -1.467367298877     1.007825032230
         H            2.855558351113     2.223188192502    -0.035452298877     1.007825032230
         H            1.113947351113     2.384936192502    -0.427164298877     1.007825032230
         H           -1.681295648887    -1.617432807498     0.908079701123     1.007825032230
         H           -3.906699648887    -0.297483807498     0.851038701123     1.007825032230
         H           -3.261150648887     2.018018192502    -0.538707298877     1.007825032230

  Basis Set: AUG-CC-PVTZ
    Blend: AUG-CC-PVTZ
  Basis Set: (AUG-CC-PVTZ AUX)
    Blend: AUG-CC-PVTZ-JKFIT
	 Reference Energy          =    -905.2412603841153214 [Eh]
	 Singles Energy            =      -0.0000000000000000 [Eh]
	 Same-Spin Energy          =      -0.5963284960478761 [Eh]
	 Opposite-Spin Energy      =      -1.7747338600129332 [Eh]
	 Correlation Energy        =      -2.3710623560608095 [Eh]
	 Total Energy              =    -907.6123227401761824 [Eh]

	 ================> DF-SCS-MP2 Energies <==================
	-----------------------------------------------------------
	 SCS Same-Spin Scale       =       0.3333333333333333 [-]
	 SCS Opposite-Spin Scale   =       1.2000000000000000 [-]
	 SCS Same-Spin Energy      =      -0.1987761653492920 [Eh]
	 SCS Opposite-Spin Energy  =      -2.1296806320155199 [Eh]
	 SCS Correlation Energy    =      -2.3284567973648120 [Eh]
	 SCS Total Energy          =    -907.5697171814800868 [Eh]
	-----------------------------------------------------------

  Dipole Moment: [D]
     X:    -3.3985      Y:     0.5601      Z:     4.2102     Total:     5.4396

*** Psi4 exiting successfully. Buy a developer a beer!
