                               Psi4 1.3.2 release

  ==> Input File <==

--------------------------------------------------------------------------
#psi4
#
memory 32 gb

molecule  {
0 1
  S        0.7637890    -0.7221230    -0.3122950
  O        0.7428910    -1.8740890     0.5977740
  O        1.1390870    -0.8496890    -1.7151490
  N        1.7366500     0.4402300     0.3626080
  N       -1.8489830    -0.7837230     0.4594430
  N       -1.3247755     1.0531939    -0.6603713
  C       -0.8811970    -0.0860610    -0.1982810
  C        1.4606880     0.7318840     1.7727460
  C        1.9603790     1.6404280    -0.4583390
  C       -2.9965950    -0.0375860     0.3980590
  C       -2.6480900     1.1053220    -0.2992680
  H        1.3484140    -0.2039780     2.3191610
  H        0.5624770     1.3529910     1.8963580
  H        2.3234150     1.2701900     2.1711160
  H        2.1708410     1.3362470    -1.4821670
  H        2.8360500     2.1503740    -0.0502520
  H        1.0944390     2.3121220    -0.4419640
  H       -1.7008040    -1.6902470     0.8932800
  H       -3.9262080    -0.3702980     0.8362390
  H       -3.2806590     1.9452040    -0.5535070
units angstrom
no_reorient  #important for SAPT in psi4, default
symmetry c1  #important for SAPT in psi4, default
}

set PROPERTIES_ORIGIN ["COM"]
properties('MP2/aug-cc-pvtz', properties = ['dipole'])
--------------------------------------------------------------------------

    Molecular point group: c1
  Charge       = 0
  Multiplicity = 1
  Basis Set: AUG-CC-PVTZ
    Blend: AUG-CC-PVTZ
  Basis Set: (AUG-CC-PVTZ AUX)
    Blend: AUG-CC-PVTZ-JKFIT

    Orbital Energies [Eh]
    ---------------------

    Doubly Occupied:

       1A    -92.215525     2A    -20.558328     3A    -20.555838
       4A    -15.652109     5A    -15.611275     6A    -15.583126
       7A    -11.334673     8A    -11.293387     9A    -11.275311
      10A    -11.272979    11A    -11.266191    12A     -9.180104
      13A     -6.865318    14A     -6.864909    15A     -6.864493
      16A     -1.464319    17A     -1.372918    18A     -1.345382
      19A     -1.258018    20A     -1.200421    21A     -1.051251
      22A     -0.981752    23A     -0.960112    24A     -0.876031
      25A     -0.842311    26A     -0.817591    27A     -0.753341
      28A     -0.710793    29A     -0.677823    30A     -0.668120
      31A     -0.643265    32A     -0.632186    33A     -0.625874
      34A     -0.618259    35A     -0.610232    36A     -0.577327
      37A     -0.571153    38A     -0.541974    39A     -0.514326
      40A     -0.507830    41A     -0.486571    42A     -0.479886
      43A     -0.468420    44A     -0.430201    45A     -0.417508
      46A     -0.347399

  @DF-RHF Final Energy:  -905.30760910264814

   => Energetics <=

    Nuclear Repulsion Energy =            798.1944467066897460
    One-Electron Energy =               -2827.3117953228188526
    Two-Electron Energy =                1123.8097395134811904
    Total Energy =                       -905.3076091026480299
  Basis Set: (AUG-CC-PVTZ AUX)
    Blend: AUG-CC-PVTZ-RI
    Molecular point group: c1

    Geometry (in Angstrom), charge = 0, multiplicity = 1:

       Center              X                  Y                   Z               Mass
    ------------   -----------------  -----------------  -----------------  -----------------
         S            0.771904696691    -0.674691300243    -0.281547862474    31.972071174400
         O            0.751006696691    -1.826657300243     0.628521137526    15.994914619570
         O            1.147202696691    -0.802257300243    -1.684401862474    15.994914619570
         N            1.744765696691     0.487661699757     0.393355137526    14.003074004430
         N           -1.840867303309    -0.736291300243     0.490190137526    14.003074004430
         N           -1.316659803309     1.100625599757    -0.629624162474    14.003074004430
         C           -0.873081303309    -0.038629300243    -0.167533862474    12.000000000000
         C            1.468803696691     0.779315699757     1.803493137526    12.000000000000
         C            1.968494696691     1.687859699757    -0.427591862474    12.000000000000
         C           -2.988479303309     0.009845699757     0.428806137526    12.000000000000
         C           -2.639974303309     1.152753699757    -0.268520862474    12.000000000000
         H            1.356529696691    -0.156546300243     2.349908137526     1.007825032230
         H            0.570592696691     1.400422699757     1.927105137526     1.007825032230
         H            2.331530696691     1.317621699757     2.201863137526     1.007825032230
         H            2.178956696691     1.383678699757    -1.451419862474     1.007825032230
         H            2.844165696691     2.197805699757    -0.019504862474     1.007825032230
         H            1.102554696691     2.359553699757    -0.411216862474     1.007825032230
         H           -1.692688303309    -1.642815300243     0.924027137526     1.007825032230
         H           -3.918092303309    -0.322866300243     0.866986137526     1.007825032230
         H           -3.272543303309     1.992635699757    -0.522759862474     1.007825032230

  Basis Set: AUG-CC-PVTZ
    Blend: AUG-CC-PVTZ
  Basis Set: (AUG-CC-PVTZ AUX)
    Blend: AUG-CC-PVTZ-JKFIT
	 Reference Energy          =    -905.3076091026481436 [Eh]
	 Singles Energy            =      -0.0000000000000000 [Eh]
	 Same-Spin Energy          =      -0.5969020448896887 [Eh]
	 Opposite-Spin Energy      =      -1.7742634642032389 [Eh]
	 Correlation Energy        =      -2.3711655090929273 [Eh]
	 Total Energy              =    -907.6787746117411189 [Eh]

	 ================> DF-SCS-MP2 Energies <==================
	-----------------------------------------------------------
	 SCS Same-Spin Scale       =       0.3333333333333333 [-]
	 SCS Opposite-Spin Scale   =       1.2000000000000000 [-]
	 SCS Same-Spin Energy      =      -0.1989673482965629 [Eh]
	 SCS Opposite-Spin Energy  =      -2.1291161570438866 [Eh]
	 SCS Correlation Energy    =      -2.3280835053404494 [Eh]
	 SCS Total Energy          =    -907.6356926079886307 [Eh]
	-----------------------------------------------------------

  Dipole Moment: [D]
     X:    -2.6655      Y:     1.9361      Z:     3.5433     Total:     4.8382

*** Psi4 exiting successfully. Buy a developer a beer!
