                               Psi4 1.3.2 release

  ==> Input File <==

--------------------------------------------------------------------------
#psi4
#
memory 32 gb

molecule  {
0 1
  S        0.7637890    -0.7221230    -0.3122950
  O        0.7428910    -1.8740890     0.5977740
  O        1.1390870    -0.8496890    -1.7151490
  N        1.7366500     0.4402300     0.3626080
  N       -1.8489830    -0.7837230     0.4594430
  N       -1.3270270     1.0745880    -0.6709160
  C       -0.7928700    -0.1934968    -0.1668167
  C        1.4606880     0.7318840     1.7727460
  C        1.9603790     1.6404280    -0.4583390
  C       -2.9965950    -0.0375860     0.3980590
  C       -2.6480900     1.1053220    -0.2992680
  H        1.3484140    -0.2039780     2.3191610
  H        0.5624770     1.3529910     1.8963580
  H        2.3234150     1.2701900     2.1711160
  H        2.1708410     1.3362470    -1.4821670
  H        2.8360500     2.1503740    -0.0502520
  H        1.0944390     2.3121220    -0.4419640
  H       -1.7008040    -1.6902470     0.8932800
  H       -3.9262080    -0.3702980     0.8362390
  H       -3.2806590     1.9452040    -0.5535070
units angstrom
no_reorient  #important for SAPT in psi4, default
symmetry c1  #important for SAPT in psi4, default
}

set PROPERTIES_ORIGIN ["COM"]
properties('MP2/aug-cc-pvtz', properties = ['dipole'])
--------------------------------------------------------------------------

    Molecular point group: c1
  Charge       = 0
  Multiplicity = 1
  Basis Set: AUG-CC-PVTZ
    Blend: AUG-CC-PVTZ
  Basis Set: (AUG-CC-PVTZ AUX)
    Blend: AUG-CC-PVTZ-JKFIT

    Orbital Energies [Eh]
    ---------------------

    Doubly Occupied:

       1A    -92.212902     2A    -20.554231     3A    -20.552196
       4A    -15.670334     5A    -15.610598     6A    -15.596688
       7A    -11.336039     8A    -11.299490     9A    -11.280408
      10A    -11.273809    11A    -11.264506    12A     -9.178796
      13A     -6.864307    14A     -6.863695    15A     -6.863090
      16A     -1.466650    17A     -1.358153    18A     -1.342588
      19A     -1.257105    20A     -1.174994    21A     -1.065486
      22A     -0.980308    23A     -0.966339    24A     -0.892515
      25A     -0.835515    26A     -0.814726    27A     -0.751461
      28A     -0.711897    29A     -0.682472    30A     -0.668241
      31A     -0.645104    32A     -0.627177    33A     -0.623378
      34A     -0.615672    35A     -0.602303    36A     -0.575047
      37A     -0.569423    38A     -0.540466    39A     -0.513783
      40A     -0.506563    41A     -0.482757    42A     -0.476855
      43A     -0.462084    44A     -0.422062    45A     -0.419317
      46A     -0.342153

  @DF-RHF Final Energy:  -905.27031114565978

   => Energetics <=

    Nuclear Repulsion Energy =            798.3585687819380610
    One-Electron Energy =               -2827.6303976088511263
    Two-Electron Energy =                1124.0015176812530626
    Total Energy =                       -905.2703111456598890
  Basis Set: (AUG-CC-PVTZ AUX)
    Blend: AUG-CC-PVTZ-RI
    Molecular point group: c1

    Geometry (in Angstrom), charge = 0, multiplicity = 1:

       Center              X                  Y                   Z               Mass
    ------------   -----------------  -----------------  -----------------  -----------------
         S            0.766029542522    -0.669037520055    -0.282861341408    31.972071174400
         O            0.745131542522    -1.821003520055     0.627207658592    15.994914619570
         O            1.141327542522    -0.796603520055    -1.685715341408    15.994914619570
         N            1.738890542522     0.493315479945     0.392041658592    14.003074004430
         N           -1.846742457478    -0.730637520055     0.488876658592    14.003074004430
         N           -1.324786457478     1.127673479945    -0.641482341408    14.003074004430
         C           -0.790629457478    -0.140411320055    -0.137383041408    12.000000000000
         C            1.462928542522     0.784969479945     1.802179658592    12.000000000000
         C            1.962619542522     1.693513479945    -0.428905341408    12.000000000000
         C           -2.994354457478     0.015499479945     0.427492658592    12.000000000000
         C           -2.645849457478     1.158407479945    -0.269834341408    12.000000000000
         H            1.350654542522    -0.150892520055     2.348594658592     1.007825032230
         H            0.564717542522     1.406076479945     1.925791658592     1.007825032230
         H            2.325655542522     1.323275479945     2.200549658592     1.007825032230
         H            2.173081542522     1.389332479945    -1.452733341408     1.007825032230
         H            2.838290542522     2.203459479945    -0.020818341408     1.007825032230
         H            1.096679542522     2.365207479945    -0.412530341408     1.007825032230
         H           -1.698563457478    -1.637161520055     0.922713658592     1.007825032230
         H           -3.923967457478    -0.317212520055     0.865672658592     1.007825032230
         H           -3.278418457478     1.998289479945    -0.524073341408     1.007825032230

  Basis Set: AUG-CC-PVTZ
    Blend: AUG-CC-PVTZ
  Basis Set: (AUG-CC-PVTZ AUX)
    Blend: AUG-CC-PVTZ-JKFIT
	 Reference Energy          =    -905.2703111456597753 [Eh]
	 Singles Energy            =      -0.0000000000000000 [Eh]
	 Same-Spin Energy          =      -0.6023731427000386 [Eh]
	 Opposite-Spin Energy      =      -1.7837553699616844 [Eh]
	 Correlation Energy        =      -2.3861285126617231 [Eh]
	 Total Energy              =    -907.6564396583214602 [Eh]

	 ================> DF-SCS-MP2 Energies <==================
	-----------------------------------------------------------
	 SCS Same-Spin Scale       =       0.3333333333333333 [-]
	 SCS Opposite-Spin Scale   =       1.2000000000000000 [-]
	 SCS Same-Spin Energy      =      -0.2007910475666795 [Eh]
	 SCS Opposite-Spin Energy  =      -2.1405064439540213 [Eh]
	 SCS Correlation Energy    =      -2.3412974915207010 [Eh]
	 SCS Total Energy          =    -907.6116086371804386 [Eh]
	-----------------------------------------------------------

  Dipole Moment: [D]
     X:    -3.0500      Y:     1.9576      Z:     3.6319     Total:     5.1308

*** Psi4 exiting successfully. Buy a developer a beer!
