                               Psi4 1.4a3.dev225

  ==> Input File <==

--------------------------------------------------------------------------
#psi4
#
memory 32 gb

molecule  {
0 1
  S        0.7637890    -0.7221230    -0.3122950
  O        0.7428910    -1.8740890     0.5977740
  O        1.1390870    -0.8496890    -1.7151490
  N        1.7366500     0.4402300     0.3626080
  N       -1.8489830    -0.7837230     0.4594430
  N       -1.3270270     1.0745880    -0.6709160
  C       -0.9277350    -0.0680663    -0.1950555
  C        1.4606880     0.7318840     1.7727460
  C        1.9603790     1.6404280    -0.4583390
  C       -2.9965950    -0.0375860     0.3980590
  C       -2.6480900     1.1053220    -0.2992680
  H        1.3484140    -0.2039780     2.3191610
  H        0.5624770     1.3529910     1.8963580
  H        2.3234150     1.2701900     2.1711160
  H        2.1708410     1.3362470    -1.4821670
  H        2.8360500     2.1503740    -0.0502520
  H        1.0944390     2.3121220    -0.4419640
  H       -1.7008040    -1.6902470     0.8932800
  H       -3.9262080    -0.3702980     0.8362390
  H       -3.2806590     1.9452040    -0.5535070
units angstrom
no_reorient  #important for SAPT in psi4, default
symmetry c1  #important for SAPT in psi4, default
}

set PROPERTIES_ORIGIN ["COM"]
properties('MP2/aug-cc-pvtz', properties = ['dipole'])
--------------------------------------------------------------------------

    Molecular point group: c1
  Charge       = 0
  Multiplicity = 1
  Basis Set: AUG-CC-PVTZ
    Blend: AUG-CC-PVTZ
  Basis Set: (AUG-CC-PVTZ AUX)
    Blend: AUG-CC-PVTZ-JKFIT

    Orbital Energies [Eh]
    ---------------------

    Doubly Occupied:

       1A    -92.214493     2A    -20.558419     3A    -20.555781
       4A    -15.653072     5A    -15.611377     6A    -15.582579
       7A    -11.337417     8A    -11.290413     9A    -11.275504
      10A    -11.273013    11A    -11.266157    12A     -9.178779
      13A     -6.863918    14A     -6.863496    15A     -6.863160
      16A     -1.462600    17A     -1.381250    18A     -1.344924
      19A     -1.257704    20A     -1.208974    21A     -1.045467
      22A     -0.981789    23A     -0.957405    24A     -0.871000
      25A     -0.842372    26A     -0.825799    27A     -0.752559
      28A     -0.709796    29A     -0.674975    30A     -0.667447
      31A     -0.643000    32A     -0.636276    33A     -0.628480
      34A     -0.616694    35A     -0.609082    36A     -0.577229
      37A     -0.571304    38A     -0.542020    39A     -0.512651
      40A     -0.507359    41A     -0.489503    42A     -0.479676
      43A     -0.468265    44A     -0.433409    45A     -0.416047
      46A     -0.347213

  @DF-RHF Final Energy:  -905.30634593778279

   => Energetics <=

    Nuclear Repulsion Energy =            797.2129456913298782
    One-Electron Energy =               -2825.3388888374652197
    Two-Electron Energy =                1122.8195972083526613
    Total Energy =                       -905.3063459377826803
  Basis Set: (AUG-CC-PVTZ AUX)
    Blend: AUG-CC-PVTZ-RI
    Molecular point group: c1

    Geometry (in Angstrom), charge = 0, multiplicity = 1:

       Center              X                  Y                   Z               Mass
    ------------   -----------------  -----------------  -----------------  -----------------
         S            0.775275233166    -0.677636427113    -0.280925426167    31.972071174400
         O            0.754377233166    -1.829602427113     0.629143573833    15.994914619570
         O            1.150573233166    -0.805202427113    -1.683779426167    15.994914619570
         N            1.748136233166     0.484716572887     0.393977573833    14.003074004430
         N           -1.837496766834    -0.739236427113     0.490812573833    14.003074004430
         N           -1.315540766834     1.119074572887    -0.639546426167    14.003074004430
         C           -0.916248766834    -0.023579727113    -0.163685926167    12.000000000000
         C            1.472174233166     0.776370572887     1.804115573833    12.000000000000
         C            1.971865233166     1.684914572887    -0.426969426167    12.000000000000
         C           -2.985108766834     0.006900572887     0.429428573833    12.000000000000
         C           -2.636603766834     1.149808572887    -0.267898426167    12.000000000000
         H            1.359900233166    -0.159491427113     2.350530573833     1.007825032230
         H            0.573963233166     1.397477572887     1.927727573833     1.007825032230
         H            2.334901233166     1.314676572887     2.202485573833     1.007825032230
         H            2.182327233166     1.380733572887    -1.450797426167     1.007825032230
         H            2.847536233166     2.194860572887    -0.018882426167     1.007825032230
         H            1.105925233166     2.356608572887    -0.410594426167     1.007825032230
         H           -1.689317766834    -1.645760427113     0.924649573833     1.007825032230
         H           -3.914721766834    -0.325811427113     0.867608573833     1.007825032230
         H           -3.269172766834     1.989690572887    -0.522137426167     1.007825032230

  Basis Set: AUG-CC-PVTZ
    Blend: AUG-CC-PVTZ
  Basis Set: (AUG-CC-PVTZ AUX)
    Blend: AUG-CC-PVTZ-JKFIT
	 Reference Energy          =    -905.3063459377827940 [Eh]
	 Singles Energy            =      -0.0000000000000000 [Eh]
	 Same-Spin Energy          =      -0.5963244728162460 [Eh]
	 Opposite-Spin Energy      =      -1.7735915790872467 [Eh]
	 Correlation Energy        =      -2.3699160519034930 [Eh]
	 Total Energy              =    -907.6762619896862816 [Eh]

	 ================> DF-SCS-MP2 Energies <==================
	-----------------------------------------------------------
	 SCS Same-Spin Scale       =       0.3333333333333333 [-]
	 SCS Opposite-Spin Scale   =       1.2000000000000000 [-]
	 SCS Same-Spin Energy      =      -0.1987748242720820 [Eh]
	 SCS Opposite-Spin Energy  =      -2.1283098949046959 [Eh]
	 SCS Correlation Energy    =      -2.3270847191767778 [Eh]
	 SCS Total Energy          =    -907.6334306569596038 [Eh]
	-----------------------------------------------------------

  Dipole Moment: [D]
     X:    -2.6016      Y:     1.8699      Z:     3.5593     Total:     4.7889

*** Psi4 exiting successfully. Buy a developer a beer!
