                               Psi4 1.3.2 release

  ==> Input File <==

--------------------------------------------------------------------------
#psi4
#
memory 32 gb

molecule  {
0 1
  S        0.7637890    -0.7221230    -0.3122950
  O        0.7428910    -1.8740890     0.5977740
  O        1.1390870    -0.8496890    -1.7151490
  N        1.7366500     0.4402300     0.3626080
  N       -1.8489830    -0.7837230     0.4594430
  N       -1.3270270     1.0745880    -0.6709160
  C       -0.8811970    -0.0860610    -0.1982810
  C        1.4606880     0.7318840     1.7727460
  C        1.9603790     1.6404280    -0.4583390
  C       -2.9128411    -0.0920398     0.4025389
  C       -2.6480900     1.1053220    -0.2992680
  H        1.3484140    -0.2039780     2.3191610
  H        0.5624770     1.3529910     1.8963580
  H        2.3234150     1.2701900     2.1711160
  H        2.1708410     1.3362470    -1.4821670
  H        2.8360500     2.1503740    -0.0502520
  H        1.0944390     2.3121220    -0.4419640
  H       -1.7008040    -1.6902470     0.8932800
  H       -3.9262080    -0.3702980     0.8362390
  H       -3.2806590     1.9452040    -0.5535070
units angstrom
no_reorient  #important for SAPT in psi4, default
symmetry c1  #important for SAPT in psi4, default
}

set PROPERTIES_ORIGIN ["COM"]
properties('MP2/aug-cc-pvtz', properties = ['dipole'])
--------------------------------------------------------------------------

    Molecular point group: c1
  Charge       = 0
  Multiplicity = 1
  Basis Set: AUG-CC-PVTZ
    Blend: AUG-CC-PVTZ
  Basis Set: (AUG-CC-PVTZ AUX)
    Blend: AUG-CC-PVTZ-JKFIT

    Orbital Energies [Eh]
    ---------------------

    Doubly Occupied:

       1A    -92.213251     2A    -20.556876     3A    -20.552981
       4A    -15.661488     5A    -15.608809     6A    -15.590304
       7A    -11.328241     8A    -11.296086     9A    -11.274052
      10A    -11.270770    11A    -11.264756    12A     -9.177645
      13A     -6.862849    14A     -6.862483    15A     -6.862069
      16A     -1.462554    17A     -1.395218    18A     -1.343559
      19A     -1.256104    20A     -1.213416    21A     -1.047047
      22A     -0.980267    23A     -0.955655    24A     -0.874416
      25A     -0.851207    26A     -0.827874    27A     -0.752513
      28A     -0.710941    29A     -0.685292    30A     -0.666370
      31A     -0.649696    32A     -0.635964    33A     -0.622027
      34A     -0.615576    35A     -0.601950    36A     -0.576100
      37A     -0.569980    38A     -0.540563    39A     -0.512007
      40A     -0.506875    41A     -0.482018    42A     -0.478348
      43A     -0.470366    44A     -0.439197    45A     -0.416375
      46A     -0.335427

  @DF-RHF Final Energy:  -905.29333181168965

   => Energetics <=

    Nuclear Repulsion Energy =            799.5785855003524603
    One-Electron Energy =               -2830.0287088375093845
    Two-Electron Energy =                1125.1567915254674972
    Total Energy =                       -905.2933318116895407
  Basis Set: (AUG-CC-PVTZ AUX)
    Blend: AUG-CC-PVTZ-RI
    Molecular point group: c1

    Geometry (in Angstrom), charge = 0, multiplicity = 1:

       Center              X                  Y                   Z               Mass
    ------------   -----------------  -----------------  -----------------  -----------------
         S            0.766343052090    -0.672669709146    -0.281011421751    31.972071174400
         O            0.745445052090    -1.824635709146     0.629057578249    15.994914619570
         O            1.141641052090    -0.800235709146    -1.683865421751    15.994914619570
         N            1.739204052090     0.489683290854     0.393891578249    14.003074004430
         N           -1.846428947910    -0.734269709146     0.490726578249    14.003074004430
         N           -1.324472947910     1.124041290854    -0.639632421751    14.003074004430
         C           -0.878642947910    -0.036607709146    -0.166997421751    12.000000000000
         C            1.463242052090     0.781337290854     1.804029578249    12.000000000000
         C            1.962933052090     1.689881290854    -0.427055421751    12.000000000000
         C           -2.910287047910    -0.042586509146     0.433822478249    12.000000000000
         C           -2.645535947910     1.154775290854    -0.267984421751    12.000000000000
         H            1.350968052090    -0.154524709146     2.350444578249     1.007825032230
         H            0.565031052090     1.402444290854     1.927641578249     1.007825032230
         H            2.325969052090     1.319643290854     2.202399578249     1.007825032230
         H            2.173395052090     1.385700290854    -1.450883421751     1.007825032230
         H            2.838604052090     2.199827290854    -0.018968421751     1.007825032230
         H            1.096993052090     2.361575290854    -0.410680421751     1.007825032230
         H           -1.698249947910    -1.640793709146     0.924563578249     1.007825032230
         H           -3.923653947910    -0.320844709146     0.867522578249     1.007825032230
         H           -3.278104947910     1.994657290854    -0.522223421751     1.007825032230

  Basis Set: AUG-CC-PVTZ
    Blend: AUG-CC-PVTZ
  Basis Set: (AUG-CC-PVTZ AUX)
    Blend: AUG-CC-PVTZ-JKFIT
	 Reference Energy          =    -905.2933318116896544 [Eh]
	 Singles Energy            =      -0.0000000000000000 [Eh]
	 Same-Spin Energy          =      -0.5982479483822469 [Eh]
	 Opposite-Spin Energy      =      -1.7749834263755129 [Eh]
	 Correlation Energy        =      -2.3732313747577596 [Eh]
	 Total Energy              =    -907.6665631864474335 [Eh]

	 ================> DF-SCS-MP2 Energies <==================
	-----------------------------------------------------------
	 SCS Same-Spin Scale       =       0.3333333333333333 [-]
	 SCS Opposite-Spin Scale   =       1.2000000000000000 [-]
	 SCS Same-Spin Energy      =      -0.1994159827940823 [Eh]
	 SCS Opposite-Spin Energy  =      -2.1299801116506152 [Eh]
	 SCS Correlation Energy    =      -2.3293960944446974 [Eh]
	 SCS Total Energy          =    -907.6227279061344007 [Eh]
	-----------------------------------------------------------

  Dipole Moment: [D]
     X:    -2.7450      Y:     1.7994      Z:     3.6141     Total:     4.8820

*** Psi4 exiting successfully. Buy a developer a beer!
