                               Psi4 1.3.2 release

  ==> Input File <==

--------------------------------------------------------------------------
#psi4
#
memory 32 gb

molecule  {
0 1
  S        0.7720443    -0.6971396    -0.3283930
  O        0.7428910    -1.8740890     0.5977740
  O        1.1390870    -0.8496890    -1.7151490
  N        1.7366500     0.4402300     0.3626080
  N       -1.8489830    -0.7837230     0.4594430
  N       -1.3270270     1.0745880    -0.6709160
  C       -0.8811970    -0.0860610    -0.1982810
  C        1.4606880     0.7318840     1.7727460
  C        1.9603790     1.6404280    -0.4583390
  C       -2.9965950    -0.0375860     0.3980590
  C       -2.6480900     1.1053220    -0.2992680
  H        1.3484140    -0.2039780     2.3191610
  H        0.5624770     1.3529910     1.8963580
  H        2.3234150     1.2701900     2.1711160
  H        2.1708410     1.3362470    -1.4821670
  H        2.8360500     2.1503740    -0.0502520
  H        1.0944390     2.3121220    -0.4419640
  H       -1.7008040    -1.6902470     0.8932800
  H       -3.9262080    -0.3702980     0.8362390
  H       -3.2806590     1.9452040    -0.5535070
units angstrom
no_reorient  #important for SAPT in psi4, default
symmetry c1  #important for SAPT in psi4, default
}

set PROPERTIES_ORIGIN ["COM"]
properties('MP2/aug-cc-pvtz', properties = ['dipole'])
--------------------------------------------------------------------------

    Molecular point group: c1
  Charge       = 0
  Multiplicity = 1
  Basis Set: AUG-CC-PVTZ
    Blend: AUG-CC-PVTZ
  Basis Set: (AUG-CC-PVTZ AUX)
    Blend: AUG-CC-PVTZ-JKFIT

    Orbital Energies [Eh]
    ---------------------

    Doubly Occupied:

       1A    -92.215249     2A    -20.559221     3A    -20.550766
       4A    -15.654639     5A    -15.614028     6A    -15.586380
       7A    -11.337154     8A    -11.292968     9A    -11.276968
      10A    -11.273056    11A    -11.268380    12A     -9.179940
      13A     -6.865141    14A     -6.864732    15A     -6.864295
      16A     -1.462314    17A     -1.370078    18A     -1.337296
      19A     -1.262860    20A     -1.198323    21A     -1.049462
      22A     -0.984224    23A     -0.963123    24A     -0.878141
      25A     -0.839458    26A     -0.818588    27A     -0.753215
      28A     -0.710403    29A     -0.678072    30A     -0.668669
      31A     -0.642747    32A     -0.632656    33A     -0.625173
      34A     -0.615850    35A     -0.607903    36A     -0.577484
      37A     -0.572673    38A     -0.543927    39A     -0.511924
      40A     -0.506519    41A     -0.483560    42A     -0.475998
      43A     -0.471051    44A     -0.429174    45A     -0.421471
      46A     -0.345988

  @DF-RHF Final Energy:  -905.30394932430590

   => Energetics <=

    Nuclear Repulsion Energy =            797.6318395283786913
    One-Electron Energy =               -2826.1890962629713613
    Two-Electron Energy =                1123.2533074102866522
    Total Energy =                       -905.3039493243059042
  Basis Set: (AUG-CC-PVTZ AUX)
    Blend: AUG-CC-PVTZ-RI
    Molecular point group: c1

    Geometry (in Angstrom), charge = 0, multiplicity = 1:

       Center              X                  Y                   Z               Mass
    ------------   -----------------  -----------------  -----------------  -----------------
         S            0.778832248387    -0.655982720266    -0.293861934459    31.972071174400
         O            0.749678948387    -1.832932120266     0.632305065541    15.994914619570
         O            1.145874948387    -0.808532120266    -1.680617934459    15.994914619570
         N            1.743437948387     0.481386879734     0.397139065541    14.003074004430
         N           -1.842195051613    -0.742566120266     0.493974065541    14.003074004430
         N           -1.320239051613     1.115744879734    -0.636384934459    14.003074004430
         C           -0.874409051613    -0.044904120266    -0.163749934459    12.000000000000
         C            1.467475948387     0.773040879734     1.807277065541    12.000000000000
         C            1.967166948387     1.681584879734    -0.423807934459    12.000000000000
         C           -2.989807051613     0.003570879734     0.432590065541    12.000000000000
         C           -2.641302051613     1.146478879734    -0.264736934459    12.000000000000
         H            1.355201948387    -0.162821120266     2.353692065541     1.007825032230
         H            0.569264948387     1.394147879734     1.930889065541     1.007825032230
         H            2.330202948387     1.311346879734     2.205647065541     1.007825032230
         H            2.177628948387     1.377403879734    -1.447635934459     1.007825032230
         H            2.842837948387     2.191530879734    -0.015720934459     1.007825032230
         H            1.101226948387     2.353278879734    -0.407432934459     1.007825032230
         H           -1.694016051613    -1.649090120266     0.927811065541     1.007825032230
         H           -3.919420051613    -0.329141120266     0.870770065541     1.007825032230
         H           -3.273871051613     1.986360879734    -0.518975934459     1.007825032230

  Basis Set: AUG-CC-PVTZ
    Blend: AUG-CC-PVTZ
  Basis Set: (AUG-CC-PVTZ AUX)
    Blend: AUG-CC-PVTZ-JKFIT
	 Reference Energy          =    -905.3039493243059042 [Eh]
	 Singles Energy            =      -0.0000000000000000 [Eh]
	 Same-Spin Energy          =      -0.5976087441926005 [Eh]
	 Opposite-Spin Energy      =      -1.7756662353306947 [Eh]
	 Correlation Energy        =      -2.3732749795232952 [Eh]
	 Total Energy              =    -907.6772243038292345 [Eh]

	 ================> DF-SCS-MP2 Energies <==================
	-----------------------------------------------------------
	 SCS Same-Spin Scale       =       0.3333333333333333 [-]
	 SCS Opposite-Spin Scale   =       1.2000000000000000 [-]
	 SCS Same-Spin Energy      =      -0.1992029147308668 [Eh]
	 SCS Opposite-Spin Energy  =      -2.1307994823968337 [Eh]
	 SCS Correlation Energy    =      -2.3300023971277004 [Eh]
	 SCS Total Energy          =    -907.6339517214336183 [Eh]
	-----------------------------------------------------------

  Dipole Moment: [D]
     X:    -2.5844      Y:     2.1233      Z:     3.4533     Total:     4.8076

*** Psi4 exiting successfully. Buy a developer a beer!
