                               Psi4 1.3.2 release

  ==> Input File <==

--------------------------------------------------------------------------
#psi4
#
memory 32 gb

molecule  {
0 1
  S        0.7637890    -0.7221230    -0.3122950
  O        0.7428910    -1.8740890     0.5977740
  O        1.1390870    -0.8496890    -1.7151490
  N        1.7366500     0.4402300     0.3626080
  N       -1.8489830    -0.7837230     0.4594430
  N       -1.3270270     1.0745880    -0.6709160
  C       -0.9129577    -0.0517323    -0.2068820
  C        1.4606880     0.7318840     1.7727460
  C        1.9603790     1.6404280    -0.4583390
  C       -2.9965950    -0.0375860     0.3980590
  C       -2.6480900     1.1053220    -0.2992680
  H        1.3484140    -0.2039780     2.3191610
  H        0.5624770     1.3529910     1.8963580
  H        2.3234150     1.2701900     2.1711160
  H        2.1708410     1.3362470    -1.4821670
  H        2.8360500     2.1503740    -0.0502520
  H        1.0944390     2.3121220    -0.4419640
  H       -1.7008040    -1.6902470     0.8932800
  H       -3.9262080    -0.3702980     0.8362390
  H       -3.2806590     1.9452040    -0.5535070
units angstrom
no_reorient  #important for SAPT in psi4, default
symmetry c1  #important for SAPT in psi4, default
}

set PROPERTIES_ORIGIN ["COM"]
properties('MP2/aug-cc-pvtz', properties = ['dipole'])
--------------------------------------------------------------------------

    Molecular point group: c1
  Charge       = 0
  Multiplicity = 1
  Basis Set: AUG-CC-PVTZ
    Blend: AUG-CC-PVTZ
  Basis Set: (AUG-CC-PVTZ AUX)
    Blend: AUG-CC-PVTZ-JKFIT

    Orbital Energies [Eh]
    ---------------------

    Doubly Occupied:

       1A    -92.214799     2A    -20.559479     3A    -20.555505
       4A    -15.650770     5A    -15.610838     6A    -15.583501
       7A    -11.337519     8A    -11.292199     9A    -11.275407
      10A    -11.272325    11A    -11.266315    12A     -9.179144
      13A     -6.864314    14A     -6.863845    15A     -6.863539
      16A     -1.462963    17A     -1.377034    18A     -1.345274
      19A     -1.257668    20A     -1.209204    21A     -1.045545
      22A     -0.981777    23A     -0.958060    24A     -0.871835
      25A     -0.842576    26A     -0.820464    27A     -0.752729
      28A     -0.709951    29A     -0.675859    30A     -0.667602
      31A     -0.643039    32A     -0.634764    33A     -0.626372
      34A     -0.616686    35A     -0.609583    36A     -0.577338
      37A     -0.571362    38A     -0.542032    39A     -0.513616
      40A     -0.507616    41A     -0.491134    42A     -0.479902
      43A     -0.468341    44A     -0.434910    45A     -0.415619
      46A     -0.347049

  @DF-RHF Final Energy:  -905.30657680929141

   => Energetics <=

    Nuclear Repulsion Energy =            797.2647065625490086
    One-Electron Energy =               -2825.4477674581776228
    Two-Electron Energy =                1122.8764840863370864
    Total Energy =                       -905.3065768092915278
  Basis Set: (AUG-CC-PVTZ AUX)
    Blend: AUG-CC-PVTZ-RI
    Molecular point group: c1

    Geometry (in Angstrom), charge = 0, multiplicity = 1:

       Center              X                  Y                   Z               Mass
    ------------   -----------------  -----------------  -----------------  -----------------
         S            0.774262173110    -0.678756206974    -0.280114658656    31.972071174400
         O            0.753364173110    -1.830722206974     0.629954341344    15.994914619570
         O            1.149560173110    -0.806322206974    -1.682968658656    15.994914619570
         N            1.747123173110     0.483596793026     0.394788341344    14.003074004430
         N           -1.838509826890    -0.740356206974     0.491623341344    14.003074004430
         N           -1.316553826890     1.117954793026    -0.638735658656    14.003074004430
         C           -0.902484526890    -0.008365506974    -0.174701658656    12.000000000000
         C            1.471161173110     0.775250793026     1.804926341344    12.000000000000
         C            1.970852173110     1.683794793026    -0.426158658656    12.000000000000
         C           -2.986121826890     0.005780793026     0.430239341344    12.000000000000
         C           -2.637616826890     1.148688793026    -0.267087658656    12.000000000000
         H            1.358887173110    -0.160611206974     2.351341341344     1.007825032230
         H            0.572950173110     1.396357793026     1.928538341344     1.007825032230
         H            2.333888173110     1.313556793026     2.203296341344     1.007825032230
         H            2.181314173110     1.379613793026    -1.449986658656     1.007825032230
         H            2.846523173110     2.193740793026    -0.018071658656     1.007825032230
         H            1.104912173110     2.355488793026    -0.409783658656     1.007825032230
         H           -1.690330826890    -1.646880206974     0.925460341344     1.007825032230
         H           -3.915734826890    -0.326931206974     0.868419341344     1.007825032230
         H           -3.270185826890     1.988570793026    -0.521326658656     1.007825032230

  Basis Set: AUG-CC-PVTZ
    Blend: AUG-CC-PVTZ
  Basis Set: (AUG-CC-PVTZ AUX)
    Blend: AUG-CC-PVTZ-JKFIT
	 Reference Energy          =    -905.3065768092914141 [Eh]
	 Singles Energy            =      -0.0000000000000000 [Eh]
	 Same-Spin Energy          =      -0.5962255897457358 [Eh]
	 Opposite-Spin Energy      =      -1.7735659715283134 [Eh]
	 Correlation Energy        =      -2.3697915612740492 [Eh]
	 Total Energy              =    -907.6763683705654557 [Eh]

	 ================> DF-SCS-MP2 Energies <==================
	-----------------------------------------------------------
	 SCS Same-Spin Scale       =       0.3333333333333333 [-]
	 SCS Opposite-Spin Scale   =       1.2000000000000000 [-]
	 SCS Same-Spin Energy      =      -0.1987418632485786 [Eh]
	 SCS Opposite-Spin Energy  =      -2.1282791658339759 [Eh]
	 SCS Correlation Energy    =      -2.3270210290825544 [Eh]
	 SCS Total Energy          =    -907.6335978383739302 [Eh]
	-----------------------------------------------------------

  Dipole Moment: [D]
     X:    -2.5947      Y:     1.8967      Z:     3.5401     Total:     4.7815

*** Psi4 exiting successfully. Buy a developer a beer!
