                               Psi4 1.3.2 release

  ==> Input File <==

--------------------------------------------------------------------------
#psi4
#
memory 32 gb

molecule  {
0 1
  S        0.7637890    -0.7221230    -0.3122950
  O        0.7428910    -1.8740890     0.5977740
  O        1.1390870    -0.8496890    -1.7151490
  N        1.7366500     0.4402300     0.3626080
  N       -1.8489830    -0.7837230     0.4594430
  N       -1.3270270     1.0745880    -0.6709160
  C       -0.8505262    -0.1210801    -0.1885782
  C        1.4606880     0.7318840     1.7727460
  C        1.9603790     1.6404280    -0.4583390
  C       -2.9965950    -0.0375860     0.3980590
  C       -2.6480900     1.1053220    -0.2992680
  H        1.3484140    -0.2039780     2.3191610
  H        0.5624770     1.3529910     1.8963580
  H        2.3234150     1.2701900     2.1711160
  H        2.1708410     1.3362470    -1.4821670
  H        2.8360500     2.1503740    -0.0502520
  H        1.0944390     2.3121220    -0.4419640
  H       -1.7008040    -1.6902470     0.8932800
  H       -3.9262080    -0.3702980     0.8362390
  H       -3.2806590     1.9452040    -0.5535070
units angstrom
no_reorient  #important for SAPT in psi4, default
symmetry c1  #important for SAPT in psi4, default
}

set PROPERTIES_ORIGIN ["COM"]
properties('MP2/aug-cc-pvtz', properties = ['dipole'])
--------------------------------------------------------------------------

    Molecular point group: c1
  Charge       = 0
  Multiplicity = 1
  Basis Set: AUG-CC-PVTZ
    Blend: AUG-CC-PVTZ
  Basis Set: (AUG-CC-PVTZ AUX)
    Blend: AUG-CC-PVTZ-JKFIT

    Orbital Energies [Eh]
    ---------------------

    Doubly Occupied:

       1A    -92.215772     2A    -20.556912     3A    -20.555780
       4A    -15.659962     5A    -15.611395     6A    -15.590008
       7A    -11.337323     8A    -11.294705     9A    -11.275368
      10A    -11.274957    11A    -11.265730    12A     -9.180614
      13A     -6.865899    14A     -6.865505    15A     -6.864992
      16A     -1.465383    17A     -1.364739    18A     -1.344967
      19A     -1.258021    20A     -1.189400    21A     -1.054922
      22A     -0.981439    23A     -0.961937    24A     -0.882535
      25A     -0.838767    26A     -0.816626    27A     -0.752767
      28A     -0.711266    29A     -0.678305    30A     -0.668445
      31A     -0.643460    32A     -0.630222    33A     -0.623978
      34A     -0.617089    35A     -0.607583    36A     -0.576804
      37A     -0.570702    38A     -0.541646    39A     -0.514275
      40A     -0.507804    41A     -0.482242    42A     -0.479428
      43A     -0.471511    44A     -0.424967    45A     -0.419740
      46A     -0.345003

  @DF-RHF Final Energy:  -905.29922417965474

   => Energetics <=

    Nuclear Repulsion Energy =            797.7291069866988664
    One-Electron Energy =               -2826.3748731152882101
    Two-Electron Energy =                1123.3465419489348278
    Total Energy =                       -905.2992241796546296
  Basis Set: (AUG-CC-PVTZ AUX)
    Blend: AUG-CC-PVTZ-RI
    Molecular point group: c1

    Geometry (in Angstrom), charge = 0, multiplicity = 1:

       Center              X                  Y                   Z               Mass
    ------------   -----------------  -----------------  -----------------  -----------------
         S            0.769982172106    -0.674002057968    -0.281369478457    31.972071174400
         O            0.749084172106    -1.825968057968     0.628699521543    15.994914619570
         O            1.145280172106    -0.801568057968    -1.684223478457    15.994914619570
         N            1.742843172106     0.488350942032     0.393533521543    14.003074004430
         N           -1.842789827894    -0.735602057968     0.490368521543    14.003074004430
         N           -1.320833827894     1.122708942032    -0.639990478457    14.003074004430
         C           -0.844333027894    -0.072959157968    -0.157652678457    12.000000000000
         C            1.466881172106     0.780004942032     1.803671521543    12.000000000000
         C            1.966572172106     1.688548942032    -0.427413478457    12.000000000000
         C           -2.990401827894     0.010534942032     0.428984521543    12.000000000000
         C           -2.641896827894     1.153442942032    -0.268342478457    12.000000000000
         H            1.354607172106    -0.155857057968     2.350086521543     1.007825032230
         H            0.568670172106     1.401111942032     1.927283521543     1.007825032230
         H            2.329608172106     1.318310942032     2.202041521543     1.007825032230
         H            2.177034172106     1.384367942032    -1.451241478457     1.007825032230
         H            2.842243172106     2.198494942032    -0.019326478457     1.007825032230
         H            1.100632172106     2.360242942032    -0.411038478457     1.007825032230
         H           -1.694610827894    -1.642126057968     0.924205521543     1.007825032230
         H           -3.920014827894    -0.322177057968     0.867164521543     1.007825032230
         H           -3.274465827894     1.993324942032    -0.522581478457     1.007825032230

  Basis Set: AUG-CC-PVTZ
    Blend: AUG-CC-PVTZ
  Basis Set: (AUG-CC-PVTZ AUX)
    Blend: AUG-CC-PVTZ-JKFIT
	 Reference Energy          =    -905.2992241796547432 [Eh]
	 Singles Energy            =      -0.0000000000000000 [Eh]
	 Same-Spin Energy          =      -0.5989307942758758 [Eh]
	 Opposite-Spin Energy      =      -1.7777914043773337 [Eh]
	 Correlation Energy        =      -2.3767221986532094 [Eh]
	 Total Energy              =    -907.6759463783079127 [Eh]

	 ================> DF-SCS-MP2 Energies <==================
	-----------------------------------------------------------
	 SCS Same-Spin Scale       =       0.3333333333333333 [-]
	 SCS Opposite-Spin Scale   =       1.2000000000000000 [-]
	 SCS Same-Spin Energy      =      -0.1996435980919586 [Eh]
	 SCS Opposite-Spin Energy  =      -2.1333496852528002 [Eh]
	 SCS Correlation Energy    =      -2.3329932833447589 [Eh]
	 SCS Total Energy          =    -907.6322174629995061 [Eh]
	-----------------------------------------------------------

  Dipole Moment: [D]
     X:    -2.7940      Y:     1.9006      Z:     3.5949     Total:     4.9338

*** Psi4 exiting successfully. Buy a developer a beer!
