                               Psi4 1.3.2 release

  ==> Input File <==

--------------------------------------------------------------------------
#psi4
#
memory 32 gb

molecule  {
0 1
  S        0.7637890    -0.7221230    -0.3122950
  O        0.7428910    -1.8740890     0.5977740
  O        1.1390870    -0.8496890    -1.7151490
  N        1.7366500     0.4402300     0.3626080
  N       -1.8489830    -0.7837230     0.4594430
  N       -1.3270270     1.0745880    -0.6709160
  C       -0.8811970    -0.0860610    -0.1982810
  C        1.4606880     0.7318840     1.7727460
  C        1.9603790     1.6404280    -0.4583390
  C       -2.9965950    -0.0375860     0.3980590
  C       -2.5145725     1.0499790    -0.3082101
  H        1.3484140    -0.2039780     2.3191610
  H        0.5624770     1.3529910     1.8963580
  H        2.3234150     1.2701900     2.1711160
  H        2.1708410     1.3362470    -1.4821670
  H        2.8360500     2.1503740    -0.0502520
  H        1.0944390     2.3121220    -0.4419640
  H       -1.7008040    -1.6902470     0.8932800
  H       -3.9262080    -0.3702980     0.8362390
  H       -3.2806590     1.9452040    -0.5535070
units angstrom
no_reorient  #important for SAPT in psi4, default
symmetry c1  #important for SAPT in psi4, default
}

set PROPERTIES_ORIGIN ["COM"]
properties('MP2/aug-cc-pvtz', properties = ['dipole'])
--------------------------------------------------------------------------

    Molecular point group: c1
  Charge       = 0
  Multiplicity = 1
  Basis Set: AUG-CC-PVTZ
    Blend: AUG-CC-PVTZ
  Basis Set: (AUG-CC-PVTZ AUX)
    Blend: AUG-CC-PVTZ-JKFIT

    Orbital Energies [Eh]
    ---------------------

    Doubly Occupied:

       1A    -92.214658     2A    -20.557210     3A    -20.555142
       4A    -15.662963     5A    -15.610933     6A    -15.582091
       7A    -11.336163     8A    -11.287707     9A    -11.275629
      10A    -11.274020    11A    -11.266969    12A     -9.179118
      13A     -6.864325    14A     -6.863947    15A     -6.863531
      16A     -1.463936    17A     -1.396509    18A     -1.344923
      19A     -1.258059    20A     -1.232967    21A     -1.048268
      22A     -0.982158    23A     -0.959299    24A     -0.888496
      25A     -0.836155    26A     -0.821940    27A     -0.752655
      28A     -0.711232    29A     -0.678451    30A     -0.669434
      31A     -0.651056    32A     -0.646418    33A     -0.632668
      34A     -0.613881    35A     -0.588127    36A     -0.576988
      37A     -0.570851    38A     -0.542386    39A     -0.512763
      40A     -0.508018    41A     -0.479587    42A     -0.477185
      43A     -0.473640    44A     -0.453324    45A     -0.419143
      46A     -0.337781

  @DF-RHF Final Energy:  -905.27566975496029

   => Energetics <=

    Nuclear Repulsion Energy =            801.2796199871889939
    One-Electron Energy =               -2833.2651747671156954
    Two-Electron Energy =                1126.7098850249662974
    Total Energy =                       -905.2756697549602904
  Basis Set: (AUG-CC-PVTZ AUX)
    Blend: AUG-CC-PVTZ-RI
    Molecular point group: c1

    Geometry (in Angstrom), charge = 0, multiplicity = 1:

       Center              X                  Y                   Z               Mass
    ------------   -----------------  -----------------  -----------------  -----------------
         S            0.762931500902    -0.672608749904    -0.280091274494    31.972071174400
         O            0.742033500902    -1.824574749904     0.629977725506    15.994914619570
         O            1.138229500902    -0.800174749904    -1.682945274494    15.994914619570
         N            1.735792500902     0.489744250096     0.394811725506    14.003074004430
         N           -1.849840499098    -0.734208749904     0.491646725506    14.003074004430
         N           -1.327884499098     1.124102250096    -0.638712274494    14.003074004430
         C           -0.882054499098    -0.036546749904    -0.166077274494    12.000000000000
         C            1.459830500902     0.781398250096     1.804949725506    12.000000000000
         C            1.959521500902     1.689942250096    -0.426135274494    12.000000000000
         C           -2.997452499098     0.011928250096     0.430262725506    12.000000000000
         C           -2.515429999098     1.099493250096    -0.276006374494    12.000000000000
         H            1.347556500902    -0.154463749904     2.351364725506     1.007825032230
         H            0.561619500902     1.402505250096     1.928561725506     1.007825032230
         H            2.322557500902     1.319704250096     2.203319725506     1.007825032230
         H            2.169983500902     1.385761250096    -1.449963274494     1.007825032230
         H            2.835192500902     2.199888250096    -0.018048274494     1.007825032230
         H            1.093581500902     2.361636250096    -0.409760274494     1.007825032230
         H           -1.701661499098    -1.640732749904     0.925483725506     1.007825032230
         H           -3.927065499098    -0.320783749904     0.868442725506     1.007825032230
         H           -3.281516499098     1.994718250096    -0.521303274494     1.007825032230

  Basis Set: AUG-CC-PVTZ
    Blend: AUG-CC-PVTZ
  Basis Set: (AUG-CC-PVTZ AUX)
    Blend: AUG-CC-PVTZ-JKFIT
	 Reference Energy          =    -905.2756697549602904 [Eh]
	 Singles Energy            =      -0.0000000000000000 [Eh]
	 Same-Spin Energy          =      -0.5989299560400757 [Eh]
	 Opposite-Spin Energy      =      -1.7759601824911555 [Eh]
	 Correlation Energy        =      -2.3748901385312311 [Eh]
	 Total Energy              =    -907.6505598934915042 [Eh]

	 ================> DF-SCS-MP2 Energies <==================
	-----------------------------------------------------------
	 SCS Same-Spin Scale       =       0.3333333333333333 [-]
	 SCS Opposite-Spin Scale   =       1.2000000000000000 [-]
	 SCS Same-Spin Energy      =      -0.1996433186800252 [Eh]
	 SCS Opposite-Spin Energy  =      -2.1311522189893863 [Eh]
	 SCS Correlation Energy    =      -2.3307955376694114 [Eh]
	 SCS Total Energy          =    -907.6064652926296503 [Eh]
	-----------------------------------------------------------

  Dipole Moment: [D]
     X:    -2.5802      Y:     1.7911      Z:     3.5834     Total:     4.7651

*** Psi4 exiting successfully. Buy a developer a beer!
