                               Psi4 1.3.2 release

  ==> Input File <==

--------------------------------------------------------------------------
#psi4
#
memory 32 gb

molecule  {
0 1
  S        0.7637890    -0.7221230    -0.3122950
  O        0.7272308    -1.8863091     0.5815854
  O        1.1390870    -0.8496890    -1.7151490
  N        1.7366500     0.4402300     0.3626080
  N       -1.8489830    -0.7837230     0.4594430
  N       -1.3270270     1.0745880    -0.6709160
  C       -0.8811970    -0.0860610    -0.1982810
  C        1.4606880     0.7318840     1.7727460
  C        1.9603790     1.6404280    -0.4583390
  C       -2.9965950    -0.0375860     0.3980590
  C       -2.6480900     1.1053220    -0.2992680
  H        1.3484140    -0.2039780     2.3191610
  H        0.5624770     1.3529910     1.8963580
  H        2.3234150     1.2701900     2.1711160
  H        2.1708410     1.3362470    -1.4821670
  H        2.8360500     2.1503740    -0.0502520
  H        1.0944390     2.3121220    -0.4419640
  H       -1.7008040    -1.6902470     0.8932800
  H       -3.9262080    -0.3702980     0.8362390
  H       -3.2806590     1.9452040    -0.5535070
units angstrom
no_reorient  #important for SAPT in psi4, default
symmetry c1  #important for SAPT in psi4, default
}

set PROPERTIES_ORIGIN ["COM"]
properties('MP2/aug-cc-pvtz', properties = ['dipole'])
--------------------------------------------------------------------------

    Molecular point group: c1
  Charge       = 0
  Multiplicity = 1
  Basis Set: AUG-CC-PVTZ
    Blend: AUG-CC-PVTZ
  Basis Set: (AUG-CC-PVTZ AUX)
    Blend: AUG-CC-PVTZ-JKFIT

    Orbital Energies [Eh]
    ---------------------

    Doubly Occupied:

       1A    -92.215818     2A    -20.558687     3A    -20.554979
       4A    -15.654685     5A    -15.612422     6A    -15.586256
       7A    -11.336912     8A    -11.292778     9A    -11.276146
      10A    -11.273182    11A    -11.266820    12A     -9.180339
      13A     -6.865559    14A     -6.865136    15A     -6.864744
      16A     -1.464241    17A     -1.369596    18A     -1.344717
      19A     -1.259126    20A     -1.198294    21A     -1.049584
      22A     -0.982478    23A     -0.960500    24A     -0.877012
      25A     -0.840151    26A     -0.818042    27A     -0.753258
      28A     -0.710772    29A     -0.676833    30A     -0.668253
      31A     -0.642732    32A     -0.632381    33A     -0.625090
      34A     -0.616872    35A     -0.608651    36A     -0.578071
      37A     -0.571747    38A     -0.542595    39A     -0.514189
      40A     -0.507377    41A     -0.485378    42A     -0.479587
      43A     -0.471464    44A     -0.428957    45A     -0.418695
      46A     -0.345770

  @DF-RHF Final Energy:  -905.30600046836480

   => Energetics <=

    Nuclear Repulsion Energy =            797.4268383751707461
    One-Electron Energy =               -2825.7719270799616424
    Two-Electron Energy =                1123.0390882364260960
    Total Energy =                       -905.3060004683648003
  Basis Set: (AUG-CC-PVTZ AUX)
    Blend: AUG-CC-PVTZ-RI
    Molecular point group: c1

    Geometry (in Angstrom), charge = 0, multiplicity = 1:

       Center              X                  Y                   Z               Mass
    ------------   -----------------  -----------------  -----------------  -----------------
         S            0.773515808377    -0.675286151641    -0.279225022585    31.972071174400
         O            0.736957608377    -1.839472251641     0.614655377415    15.994914619570
         O            1.148813808377    -0.802852151641    -1.682079022585    15.994914619570
         N            1.746376808377     0.487066848359     0.395677977415    14.003074004430
         N           -1.839256191623    -0.736886151641     0.492512977415    14.003074004430
         N           -1.317300191623     1.121424848359    -0.637846022585    14.003074004430
         C           -0.871470191623    -0.039224151641    -0.165211022585    12.000000000000
         C            1.470414808377     0.778720848359     1.805815977415    12.000000000000
         C            1.970105808377     1.687264848359    -0.425269022585    12.000000000000
         C           -2.986868191623     0.009250848359     0.431128977415    12.000000000000
         C           -2.638363191623     1.152158848359    -0.266198022585    12.000000000000
         H            1.358140808377    -0.157141151641     2.352230977415     1.007825032230
         H            0.572203808377     1.399827848359     1.929427977415     1.007825032230
         H            2.333141808377     1.317026848359     2.204185977415     1.007825032230
         H            2.180567808377     1.383083848359    -1.449097022585     1.007825032230
         H            2.845776808377     2.197210848359    -0.017182022585     1.007825032230
         H            1.104165808377     2.358958848359    -0.408894022585     1.007825032230
         H           -1.691077191623    -1.643410151641     0.926349977415     1.007825032230
         H           -3.916481191623    -0.323461151641     0.869308977415     1.007825032230
         H           -3.270932191623     1.992040848359    -0.520437022585     1.007825032230

  Basis Set: AUG-CC-PVTZ
    Blend: AUG-CC-PVTZ
  Basis Set: (AUG-CC-PVTZ AUX)
    Blend: AUG-CC-PVTZ-JKFIT
	 Reference Energy          =    -905.3060004683648003 [Eh]
	 Singles Energy            =      -0.0000000000000000 [Eh]
	 Same-Spin Energy          =      -0.5974238801709252 [Eh]
	 Opposite-Spin Energy      =      -1.7753598962125317 [Eh]
	 Correlation Energy        =      -2.3727837763834567 [Eh]
	 Total Energy              =    -907.6787842447482717 [Eh]

	 ================> DF-SCS-MP2 Energies <==================
	-----------------------------------------------------------
	 SCS Same-Spin Scale       =       0.3333333333333333 [-]
	 SCS Opposite-Spin Scale   =       1.2000000000000000 [-]
	 SCS Same-Spin Energy      =      -0.1991412933903084 [Eh]
	 SCS Opposite-Spin Energy  =      -2.1304318754550380 [Eh]
	 SCS Correlation Energy    =      -2.3295731688453465 [Eh]
	 SCS Total Energy          =    -907.6355736372102001 [Eh]
	-----------------------------------------------------------

  Dipole Moment: [D]
     X:    -2.6310      Y:     1.9249      Z:     3.6111     Total:     4.8649

*** Psi4 exiting successfully. Buy a developer a beer!
