                               Psi4 1.3.2 release

  ==> Input File <==

--------------------------------------------------------------------------
#psi4
#
memory 32 gb

molecule  {
0 1
  S        0.7637890    -0.7221230    -0.3122950
  O        0.7428910    -1.8740890     0.5977740
  O        1.1390870    -0.8496890    -1.7151490
  N        1.7366500     0.4402300     0.3626080
  N       -1.8489830    -0.7837230     0.4594430
  N       -1.3400485     1.1601928    -0.7119312
  C       -0.8811970    -0.0860610    -0.1982810
  C        1.4606880     0.7318840     1.7727460
  C        1.9603790     1.6404280    -0.4583390
  C       -2.9965950    -0.0375860     0.3980590
  C       -2.6480900     1.1053220    -0.2992680
  H        1.3484140    -0.2039780     2.3191610
  H        0.5624770     1.3529910     1.8963580
  H        2.3234150     1.2701900     2.1711160
  H        2.1708410     1.3362470    -1.4821670
  H        2.8360500     2.1503740    -0.0502520
  H        1.0944390     2.3121220    -0.4419640
  H       -1.7008040    -1.6902470     0.8932800
  H       -3.9262080    -0.3702980     0.8362390
  H       -3.2806590     1.9452040    -0.5535070
units angstrom
no_reorient  #important for SAPT in psi4, default
symmetry c1  #important for SAPT in psi4, default
}

set PROPERTIES_ORIGIN ["COM"]
properties('MP2/aug-cc-pvtz', properties = ['dipole'])
--------------------------------------------------------------------------

    Molecular point group: c1
  Charge       = 0
  Multiplicity = 1
  Basis Set: AUG-CC-PVTZ
    Blend: AUG-CC-PVTZ
  Basis Set: (AUG-CC-PVTZ AUX)
    Blend: AUG-CC-PVTZ-JKFIT

    Orbital Energies [Eh]
    ---------------------

    Doubly Occupied:

       1A    -92.216658     2A    -20.559063     3A    -20.556084
       4A    -15.666899     5A    -15.611469     6A    -15.599882
       7A    -11.347452     8A    -11.292084     9A    -11.276186
      10A    -11.275213    11A    -11.265924    12A     -9.181000
      13A     -6.866227    14A     -6.865839    15A     -6.865404
      16A     -1.464440    17A     -1.361964    18A     -1.345323
      19A     -1.258028    20A     -1.191742    21A     -1.045412
      22A     -0.981655    23A     -0.959799    24A     -0.882299
      25A     -0.835417    26A     -0.819353    27A     -0.751273
      28A     -0.710490    29A     -0.673841    30A     -0.668352
      31A     -0.641283    32A     -0.635191    33A     -0.622710
      34A     -0.614262    35A     -0.598562    36A     -0.576620
      37A     -0.570996    38A     -0.541932    39A     -0.513489
      40A     -0.508362    41A     -0.485539    42A     -0.480449
      43A     -0.477405    44A     -0.427500    45A     -0.419486
      46A     -0.340326

  @DF-RHF Final Energy:  -905.28892224972606

   => Energetics <=

    Nuclear Repulsion Energy =            794.6639433308819207
    One-Electron Energy =               -2820.2079644994596492
    Two-Electron Energy =                1120.2550989188516724
    Total Energy =                       -905.2889222497260562
  Basis Set: (AUG-CC-PVTZ AUX)
    Blend: AUG-CC-PVTZ-RI
    Molecular point group: c1

    Geometry (in Angstrom), charge = 0, multiplicity = 1:

       Center              X                  Y                   Z               Mass
    ------------   -----------------  -----------------  -----------------  -----------------
         S            0.773126514894    -0.683251059538    -0.277423144058    31.972071174400
         O            0.752228514894    -1.835217059538     0.632645855942    15.994914619570
         O            1.148424514894    -0.810817059538    -1.680277144058    15.994914619570
         N            1.745987514894     0.479101940462     0.397479855942    14.003074004430
         N           -1.839645485106    -0.744851059538     0.494314855942    14.003074004430
         N           -1.330710985106     1.199064740462    -0.677059344058    14.003074004430
         C           -0.871859485106    -0.047189059538    -0.163409144058    12.000000000000
         C            1.470025514894     0.770755940462     1.807617855942    12.000000000000
         C            1.969716514894     1.679299940462    -0.423467144058    12.000000000000
         C           -2.987257485106     0.001285940462     0.432930855942    12.000000000000
         C           -2.638752485106     1.144193940462    -0.264396144058    12.000000000000
         H            1.357751514894    -0.165106059538     2.354032855942     1.007825032230
         H            0.571814514894     1.391862940462     1.931229855942     1.007825032230
         H            2.332752514894     1.309061940462     2.205987855942     1.007825032230
         H            2.180178514894     1.375118940462    -1.447295144058     1.007825032230
         H            2.845387514894     2.189245940462    -0.015380144058     1.007825032230
         H            1.103776514894     2.350993940462    -0.407092144058     1.007825032230
         H           -1.691466485106    -1.651375059538     0.928151855942     1.007825032230
         H           -3.916870485106    -0.331426059538     0.871110855942     1.007825032230
         H           -3.271321485106     1.984075940462    -0.518635144058     1.007825032230

  Basis Set: AUG-CC-PVTZ
    Blend: AUG-CC-PVTZ
  Basis Set: (AUG-CC-PVTZ AUX)
    Blend: AUG-CC-PVTZ-JKFIT
	 Reference Energy          =    -905.2889222497260562 [Eh]
	 Singles Energy            =      -0.0000000000000000 [Eh]
	 Same-Spin Energy          =      -0.5999697582754827 [Eh]
	 Opposite-Spin Energy      =      -1.7807907101412654 [Eh]
	 Correlation Energy        =      -2.3807604684167480 [Eh]
	 Total Energy              =    -907.6696827181427807 [Eh]

	 ================> DF-SCS-MP2 Energies <==================
	-----------------------------------------------------------
	 SCS Same-Spin Scale       =       0.3333333333333333 [-]
	 SCS Opposite-Spin Scale   =       1.2000000000000000 [-]
	 SCS Same-Spin Energy      =      -0.1999899194251609 [Eh]
	 SCS Opposite-Spin Energy  =      -2.1369488521695184 [Eh]
	 SCS Correlation Energy    =      -2.3369387715946792 [Eh]
	 SCS Total Energy          =    -907.6258610213207021 [Eh]
	-----------------------------------------------------------

  Dipole Moment: [D]
     X:    -2.7436      Y:     1.7419      Z:     3.6566     Total:     4.8921

*** Psi4 exiting successfully. Buy a developer a beer!
