                               Psi4 1.4a3.dev225

  ==> Input File <==

--------------------------------------------------------------------------
#psi4
#
memory 32 gb

molecule  {
0 1
  S        0.7637890    -0.7221230    -0.3122950
  O        0.7428910    -1.8740890     0.5977740
  O        1.1390870    -0.8496890    -1.7151490
  N        1.7366500     0.4402300     0.3626080
  N       -1.8489830    -0.7837230     0.4594430
  N       -1.3270270     1.0745880    -0.6709160
  C       -0.8456775    -0.0604555    -0.2224207
  C        1.4606880     0.7318840     1.7727460
  C        1.9603790     1.6404280    -0.4583390
  C       -2.9965950    -0.0375860     0.3980590
  C       -2.6480900     1.1053220    -0.2992680
  H        1.3484140    -0.2039780     2.3191610
  H        0.5624770     1.3529910     1.8963580
  H        2.3234150     1.2701900     2.1711160
  H        2.1708410     1.3362470    -1.4821670
  H        2.8360500     2.1503740    -0.0502520
  H        1.0944390     2.3121220    -0.4419640
  H       -1.7008040    -1.6902470     0.8932800
  H       -3.9262080    -0.3702980     0.8362390
  H       -3.2806590     1.9452040    -0.5535070
units angstrom
no_reorient  #important for SAPT in psi4, default
symmetry c1  #important for SAPT in psi4, default
}

set PROPERTIES_ORIGIN ["COM"]
properties('MP2/aug-cc-pvtz', properties = ['dipole'])
--------------------------------------------------------------------------

    Molecular point group: c1
  Charge       = 0
  Multiplicity = 1
  Basis Set: AUG-CC-PVTZ
    Blend: AUG-CC-PVTZ
  Basis Set: (AUG-CC-PVTZ AUX)
    Blend: AUG-CC-PVTZ-JKFIT

    Orbital Energies [Eh]
    ---------------------

    Doubly Occupied:

       1A    -92.216232     2A    -20.560396     3A    -20.555104
       4A    -15.651359     5A    -15.610184     6A    -15.589642
       7A    -11.338115     8A    -11.297079     9A    -11.274985
      10A    -11.272677    11A    -11.266322    12A     -9.180994
      13A     -6.866294    14A     -6.865788    15A     -6.865393
      16A     -1.465333    17A     -1.360922    18A     -1.345942
      19A     -1.257927    20A     -1.197539    21A     -1.051596
      22A     -0.981605    23A     -0.961875    24A     -0.880666
      25A     -0.840629    26A     -0.807156    27A     -0.753251
      28A     -0.711124    29A     -0.679046    30A     -0.668581
      31A     -0.643945    32A     -0.629891    33A     -0.619943
      34A     -0.616396    35A     -0.609077    36A     -0.577298
      37A     -0.571089    38A     -0.541881    39A     -0.515904
      40A     -0.508389    41A     -0.488046    42A     -0.480215
      43A     -0.470980    44A     -0.431366    45A     -0.417311
      46A     -0.345564

  @DF-RHF Final Energy:  -905.30225727312313

   => Energetics <=

    Nuclear Repulsion Energy =            797.6413207239678513
    One-Electron Energy =               -2826.2050541638504910
    Two-Electron Energy =                1123.2614761667593939
    Total Energy =                       -905.3022572731231321
  Basis Set: (AUG-CC-PVTZ AUX)
    Blend: AUG-CC-PVTZ-RI
    Molecular point group: c1

    Geometry (in Angstrom), charge = 0, multiplicity = 1:

       Center              X                  Y                   Z               Mass
    ------------   -----------------  -----------------  -----------------  -----------------
         S            0.769649768738    -0.678158186668    -0.279049400708    31.972071174400
         O            0.748751768738    -1.830124186668     0.631019599292    15.994914619570
         O            1.144947768738    -0.805724186668    -1.681903400708    15.994914619570
         N            1.742510768738     0.484194813332     0.395853599292    14.003074004430
         N           -1.843122231262    -0.739758186668     0.492688599292    14.003074004430
         N           -1.321166231262     1.118552813332    -0.637670400708    14.003074004430
         C           -0.839816731262    -0.016490686668    -0.189175100708    12.000000000000
         C            1.466548768738     0.775848813332     1.805991599292    12.000000000000
         C            1.966239768738     1.684392813332    -0.425093400708    12.000000000000
         C           -2.990734231262     0.006378813332     0.431304599292    12.000000000000
         C           -2.642229231262     1.149286813332    -0.266022400708    12.000000000000
         H            1.354274768738    -0.160013186668     2.352406599292     1.007825032230
         H            0.568337768738     1.396955813332     1.929603599292     1.007825032230
         H            2.329275768738     1.314154813332     2.204361599292     1.007825032230
         H            2.176701768738     1.380211813332    -1.448921400708     1.007825032230
         H            2.841910768738     2.194338813332    -0.017006400708     1.007825032230
         H            1.100299768738     2.356086813332    -0.408718400708     1.007825032230
         H           -1.694943231262    -1.646282186668     0.926525599292     1.007825032230
         H           -3.920347231262    -0.326333186668     0.869484599292     1.007825032230
         H           -3.274798231262     1.989168813332    -0.520261400708     1.007825032230

  Basis Set: AUG-CC-PVTZ
    Blend: AUG-CC-PVTZ
  Basis Set: (AUG-CC-PVTZ AUX)
    Blend: AUG-CC-PVTZ-JKFIT
	 Reference Energy          =    -905.3022572731231321 [Eh]
	 Singles Energy            =      -0.0000000000000000 [Eh]
	 Same-Spin Energy          =      -0.5977013519735170 [Eh]
	 Opposite-Spin Energy      =      -1.7760711015018080 [Eh]
	 Correlation Energy        =      -2.3737724534753251 [Eh]
	 Total Energy              =    -907.6760297265984718 [Eh]

	 ================> DF-SCS-MP2 Energies <==================
	-----------------------------------------------------------
	 SCS Same-Spin Scale       =       0.3333333333333333 [-]
	 SCS Opposite-Spin Scale   =       1.2000000000000000 [-]
	 SCS Same-Spin Energy      =      -0.1992337839911723 [Eh]
	 SCS Opposite-Spin Energy  =      -2.1312853218021695 [Eh]
	 SCS Correlation Energy    =      -2.3305191057933419 [Eh]
	 SCS Total Energy          =    -907.6327763789164464 [Eh]
	-----------------------------------------------------------

  Dipole Moment: [D]
     X:    -2.6869      Y:     1.9376      Z:     3.5421     Total:     4.8497

*** Psi4 exiting successfully. Buy a developer a beer!
