                               Psi4 1.4a3.dev225

  ==> Input File <==

--------------------------------------------------------------------------
#psi4
#
memory 32 gb

molecule  {
0 1
  S        0.7637890    -0.7221230    -0.3122950
  O        0.7428910    -1.8740890     0.5977740
  O        1.1390870    -0.8496890    -1.7151490
  N        1.7366500     0.4402300     0.3626080
  N       -1.8489830    -0.7837230     0.4594430
  N       -1.3270270     1.0745880    -0.6709160
  C       -0.8879005    -0.0686094    -0.2053876
  C        1.4606880     0.7318840     1.7727460
  C        1.9603790     1.6404280    -0.4583390
  C       -2.9965950    -0.0375860     0.3980590
  C       -2.6480900     1.1053220    -0.2992680
  H        1.3484140    -0.2039780     2.3191610
  H        0.5624770     1.3529910     1.8963580
  H        2.3234150     1.2701900     2.1711160
  H        2.1708410     1.3362470    -1.4821670
  H        2.8360500     2.1503740    -0.0502520
  H        1.0944390     2.3121220    -0.4419640
  H       -1.7008040    -1.6902470     0.8932800
  H       -3.9262080    -0.3702980     0.8362390
  H       -3.2806590     1.9452040    -0.5535070
units angstrom
no_reorient  #important for SAPT in psi4, default
symmetry c1  #important for SAPT in psi4, default
}

set PROPERTIES_ORIGIN ["COM"]
properties('MP2/aug-cc-pvtz', properties = ['dipole'])
--------------------------------------------------------------------------

    Molecular point group: c1
  Charge       = 0
  Multiplicity = 1
  Basis Set: AUG-CC-PVTZ
    Blend: AUG-CC-PVTZ
  Basis Set: (AUG-CC-PVTZ AUX)
    Blend: AUG-CC-PVTZ-JKFIT

    Orbital Energies [Eh]
    ---------------------

    Doubly Occupied:

       1A    -92.215664     2A    -20.559275     3A    -20.555710
       4A    -15.652804     5A    -15.611016     6A    -15.585837
       7A    -11.337588     8A    -11.293294     9A    -11.275319
      10A    -11.272819    11A    -11.266255    12A     -9.180127
      13A     -6.865338    14A     -6.864898    15A     -6.864526
      16A     -1.464012    17A     -1.371026    18A     -1.345539
      19A     -1.257921    20A     -1.202449    21A     -1.048401
      22A     -0.981761    23A     -0.959510    24A     -0.875560
      25A     -0.841319    26A     -0.817410    27A     -0.752955
      28A     -0.710521    29A     -0.676739    30A     -0.668056
      31A     -0.642752    32A     -0.633022    33A     -0.624858
      34A     -0.616850    35A     -0.609310    36A     -0.577338
      37A     -0.571242    38A     -0.542010    39A     -0.514190
      40A     -0.507938    41A     -0.487917    42A     -0.480075
      43A     -0.470540    44A     -0.431647    45A     -0.417138
      46A     -0.346406

  @DF-RHF Final Energy:  -905.30673877595461

   => Energetics <=

    Nuclear Repulsion Energy =            797.4098923885586601
    One-Electron Energy =               -2825.7394950134867031
    Two-Electron Energy =                1123.0228638489736568
    Total Energy =                       -905.3067387759544999
  Basis Set: (AUG-CC-PVTZ AUX)
    Blend: AUG-CC-PVTZ-RI
    Molecular point group: c1

    Geometry (in Angstrom), charge = 0, multiplicity = 1:

       Center              X                  Y                   Z               Mass
    ------------   -----------------  -----------------  -----------------  -----------------
         S            0.772544372943    -0.677599194809    -0.280217107476    31.972071174400
         O            0.751646372943    -1.829565194809     0.629851892524    15.994914619570
         O            1.147842372943    -0.805165194809    -1.683071107476    15.994914619570
         N            1.745405372943     0.484753805191     0.394685892524    14.003074004430
         N           -1.840227627057    -0.739199194809     0.491520892524    14.003074004430
         N           -1.318271627057     1.119111805191    -0.638838107476    14.003074004430
         C           -0.879145127057    -0.024085594809    -0.173309707476    12.000000000000
         C            1.469443372943     0.776407805191     1.804823892524    12.000000000000
         C            1.969134372943     1.684951805191    -0.426261107476    12.000000000000
         C           -2.987839627057     0.006937805191     0.430136892524    12.000000000000
         C           -2.639334627057     1.149845805191    -0.267190107476    12.000000000000
         H            1.357169372943    -0.159454194809     2.351238892524     1.007825032230
         H            0.571232372943     1.397514805191     1.928435892524     1.007825032230
         H            2.332170372943     1.314713805191     2.203193892524     1.007825032230
         H            2.179596372943     1.380770805191    -1.450089107476     1.007825032230
         H            2.844805372943     2.194897805191    -0.018174107476     1.007825032230
         H            1.103194372943     2.356645805191    -0.409886107476     1.007825032230
         H           -1.692048627057    -1.645723194809     0.925357892524     1.007825032230
         H           -3.917452627057    -0.325774194809     0.868316892524     1.007825032230
         H           -3.271903627057     1.989727805191    -0.521429107476     1.007825032230

  Basis Set: AUG-CC-PVTZ
    Blend: AUG-CC-PVTZ
  Basis Set: (AUG-CC-PVTZ AUX)
    Blend: AUG-CC-PVTZ-JKFIT
	 Reference Energy          =    -905.3067387759546136 [Eh]
	 Singles Energy            =      -0.0000000000000000 [Eh]
	 Same-Spin Energy          =      -0.5969849271328203 [Eh]
	 Opposite-Spin Energy      =      -1.7747377004374414 [Eh]
	 Correlation Energy        =      -2.3717226275702616 [Eh]
	 Total Energy              =    -907.6784614035249206 [Eh]

	 ================> DF-SCS-MP2 Energies <==================
	-----------------------------------------------------------
	 SCS Same-Spin Scale       =       0.3333333333333333 [-]
	 SCS Opposite-Spin Scale   =       1.2000000000000000 [-]
	 SCS Same-Spin Energy      =      -0.1989949757109401 [Eh]
	 SCS Opposite-Spin Energy  =      -2.1296852405249296 [Eh]
	 SCS Correlation Energy    =      -2.3286802162358695 [Eh]
	 SCS Total Energy          =    -907.6354189921904663 [Eh]
	-----------------------------------------------------------

  Dipole Moment: [D]
     X:    -2.6447      Y:     1.8983      Z:     3.5542     Total:     4.8198

*** Psi4 exiting successfully. Buy a developer a beer!
