                               Psi4 1.3.2 release

  ==> Input File <==

--------------------------------------------------------------------------
#psi4
#
memory 32 gb

molecule  {
0 1
  S        0.7637890    -0.7221230    -0.3122950
  O        0.7428910    -1.8740890     0.5977740
  O        1.1390870    -0.8496890    -1.7151490
  N        1.7366500     0.4402300     0.3626080
  N       -1.8489830    -0.7837230     0.4594430
  N       -1.3270270     1.0745880    -0.6709160
  C       -1.0098632    -0.1072697    -0.1495007
  C        1.4606880     0.7318840     1.7727460
  C        1.9603790     1.6404280    -0.4583390
  C       -2.9965950    -0.0375860     0.3980590
  C       -2.6480900     1.1053220    -0.2992680
  H        1.3484140    -0.2039780     2.3191610
  H        0.5624770     1.3529910     1.8963580
  H        2.3234150     1.2701900     2.1711160
  H        2.1708410     1.3362470    -1.4821670
  H        2.8360500     2.1503740    -0.0502520
  H        1.0944390     2.3121220    -0.4419640
  H       -1.7008040    -1.6902470     0.8932800
  H       -3.9262080    -0.3702980     0.8362390
  H       -3.2806590     1.9452040    -0.5535070
units angstrom
no_reorient  #important for SAPT in psi4, default
symmetry c1  #important for SAPT in psi4, default
}

set PROPERTIES_ORIGIN ["COM"]
properties('MP2/aug-cc-pvtz', properties = ['dipole'])
--------------------------------------------------------------------------

    Molecular point group: c1
  Charge       = 0
  Multiplicity = 1
  Basis Set: AUG-CC-PVTZ
    Blend: AUG-CC-PVTZ
  Basis Set: (AUG-CC-PVTZ AUX)
    Blend: AUG-CC-PVTZ-JKFIT

    Orbital Energies [Eh]
    ---------------------

    Doubly Occupied:

       1A    -92.211586     2A    -20.556394     3A    -20.554762
       4A    -15.658799     5A    -15.612750     6A    -15.576800
       7A    -11.337620     8A    -11.282627     9A    -11.275821
      10A    -11.275684    11A    -11.265523    12A     -9.175730
      13A     -6.860734    14A     -6.860418    15A     -6.859995
      16A     -1.460626    17A     -1.410070    18A     -1.343208
      19A     -1.257359    20A     -1.215569    21A     -1.042971
      22A     -0.981709    23A     -0.954005    24A     -0.871889
      25A     -0.844272    26A     -0.841889    27A     -0.751221
      28A     -0.708745    29A     -0.672604    30A     -0.666775
      31A     -0.653780    32A     -0.643397    33A     -0.629951
      34A     -0.615590    35A     -0.605817    36A     -0.576645
      37A     -0.571041    38A     -0.541860    39A     -0.508982
      40A     -0.506034    41A     -0.487114    42A     -0.478324
      43A     -0.461983    44A     -0.433981    45A     -0.414234
      46A     -0.346839

  @DF-RHF Final Energy:  -905.28546232999929

   => Energetics <=

    Nuclear Repulsion Energy =            796.9877739488507586
    One-Electron Energy =               -2824.8190180024803340
    Two-Electron Energy =                1122.5457817236303981
    Total Energy =                       -905.2854623299992909
  Basis Set: (AUG-CC-PVTZ AUX)
    Blend: AUG-CC-PVTZ-RI
    Molecular point group: c1

    Geometry (in Angstrom), charge = 0, multiplicity = 1:

       Center              X                  Y                   Z               Mass
    ------------   -----------------  -----------------  -----------------  -----------------
         S            0.780905544442    -0.674948832047    -0.284048442429    31.972071174400
         O            0.760007544442    -1.826914832047     0.626020557571    15.994914619570
         O            1.156203544442    -0.802514832047    -1.686902442429    15.994914619570
         N            1.753766544442     0.487404167953     0.390854557571    14.003074004430
         N           -1.831866455558    -0.736548832047     0.487689557571    14.003074004430
         N           -1.309910455558     1.121762167953    -0.642669442429    14.003074004430
         C           -0.992746655558    -0.060095532047    -0.121254142429    12.000000000000
         C            1.477804544442     0.779058167953     1.800992557571    12.000000000000
         C            1.977495544442     1.687602167953    -0.430092442429    12.000000000000
         C           -2.979478455558     0.009588167953     0.426305557571    12.000000000000
         C           -2.630973455558     1.152496167953    -0.271021442429    12.000000000000
         H            1.365530544442    -0.156803832047     2.347407557571     1.007825032230
         H            0.579593544442     1.400165167953     1.924604557571     1.007825032230
         H            2.340531544442     1.317364167953     2.199362557571     1.007825032230
         H            2.187957544442     1.383421167953    -1.453920442429     1.007825032230
         H            2.853166544442     2.197548167953    -0.022005442429     1.007825032230
         H            1.111555544442     2.359296167953    -0.413717442429     1.007825032230
         H           -1.683687455558    -1.643072832047     0.921526557571     1.007825032230
         H           -3.909091455558    -0.323123832047     0.864485557571     1.007825032230
         H           -3.263542455558     1.992378167953    -0.525260442429     1.007825032230

  Basis Set: AUG-CC-PVTZ
    Blend: AUG-CC-PVTZ
  Basis Set: (AUG-CC-PVTZ AUX)
    Blend: AUG-CC-PVTZ-JKFIT
	 Reference Energy          =    -905.2854623299992909 [Eh]
	 Singles Energy            =      -0.0000000000000000 [Eh]
	 Same-Spin Energy          =      -0.5962003580956303 [Eh]
	 Opposite-Spin Energy      =      -1.7731153633847949 [Eh]
	 Correlation Energy        =      -2.3693157214804250 [Eh]
	 Total Energy              =    -907.6547780514797523 [Eh]

	 ================> DF-SCS-MP2 Energies <==================
	-----------------------------------------------------------
	 SCS Same-Spin Scale       =       0.3333333333333333 [-]
	 SCS Opposite-Spin Scale   =       1.2000000000000000 [-]
	 SCS Same-Spin Energy      =      -0.1987334526985434 [Eh]
	 SCS Opposite-Spin Energy  =      -2.1277384360617537 [Eh]
	 SCS Correlation Energy    =      -2.3264718887602971 [Eh]
	 SCS Total Energy          =    -907.6119342187596430 [Eh]
	-----------------------------------------------------------

  Dipole Moment: [D]
     X:    -2.5528      Y:     1.7631      Z:     3.6108     Total:     4.7606

*** Psi4 exiting successfully. Buy a developer a beer!
