                               Psi4 1.4a3.dev225

  ==> Input File <==

--------------------------------------------------------------------------
#psi4
#
memory 32 gb

molecule  {
0 1
  S        0.7637890    -0.7221230    -0.3122950
  O        0.7428910    -1.8740890     0.5977740
  O        1.1519592    -0.8540644    -1.7632651
  N        1.7366500     0.4402300     0.3626080
  N       -1.8489830    -0.7837230     0.4594430
  N       -1.3270270     1.0745880    -0.6709160
  C       -0.8811970    -0.0860610    -0.1982810
  C        1.4606880     0.7318840     1.7727460
  C        1.9603790     1.6404280    -0.4583390
  C       -2.9965950    -0.0375860     0.3980590
  C       -2.6480900     1.1053220    -0.2992680
  H        1.3484140    -0.2039780     2.3191610
  H        0.5624770     1.3529910     1.8963580
  H        2.3234150     1.2701900     2.1711160
  H        2.1708410     1.3362470    -1.4821670
  H        2.8360500     2.1503740    -0.0502520
  H        1.0944390     2.3121220    -0.4419640
  H       -1.7008040    -1.6902470     0.8932800
  H       -3.9262080    -0.3702980     0.8362390
  H       -3.2806590     1.9452040    -0.5535070
units angstrom
no_reorient  #important for SAPT in psi4, default
symmetry c1  #important for SAPT in psi4, default
}

set PROPERTIES_ORIGIN ["COM"]
properties('MP2/aug-cc-pvtz', properties = ['dipole'])
--------------------------------------------------------------------------

    Molecular point group: c1
  Charge       = 0
  Multiplicity = 1
  Basis Set: AUG-CC-PVTZ
    Blend: AUG-CC-PVTZ
  Basis Set: (AUG-CC-PVTZ AUX)
    Blend: AUG-CC-PVTZ-JKFIT

    Orbital Energies [Eh]
    ---------------------

    Doubly Occupied:

       1A    -92.219335     2A    -20.561964     3A    -20.554771
       4A    -15.656794     5A    -15.614073     6A    -15.588200
       7A    -11.339968     8A    -11.294568     9A    -11.277014
      10A    -11.274751    11A    -11.266550    12A     -9.183374
      13A     -6.868587    14A     -6.868188    15A     -6.867393
      16A     -1.452879    17A     -1.370630    18A     -1.331127
      19A     -1.258518    20A     -1.200125    21A     -1.051796
      22A     -0.982920    23A     -0.962865    24A     -0.877995
      25A     -0.841929    26A     -0.819878    27A     -0.753499
      28A     -0.708558    29A     -0.676744    30A     -0.666869
      31A     -0.641612    32A     -0.633793    33A     -0.626365
      34A     -0.617015    35A     -0.605932    36A     -0.576252
      37A     -0.571972    38A     -0.542943    39A     -0.509376
      40A     -0.503586    41A     -0.484586    42A     -0.474373
      43A     -0.471009    44A     -0.430408    45A     -0.419556
      46A     -0.347430

  @DF-RHF Final Energy:  -905.29782576676325

   => Energetics <=

    Nuclear Repulsion Energy =            794.9541003379545145
    One-Electron Energy =               -2820.8077147722328846
    Two-Electron Energy =                1120.5557886675151167
    Total Energy =                       -905.2978257667632533
  Basis Set: (AUG-CC-PVTZ AUX)
    Blend: AUG-CC-PVTZ-RI
    Molecular point group: c1

    Geometry (in Angstrom), charge = 0, multiplicity = 1:

       Center              X                  Y                   Z               Mass
    ------------   -----------------  -----------------  -----------------  -----------------
         S            0.770908579934    -0.676002983207    -0.276307557314    31.972071174400
         O            0.750010579934    -1.827968983207     0.633761442686    15.994914619570
         O            1.159078779934    -0.807944383207    -1.727277657314    15.994914619570
         N            1.743769579934     0.486350016793     0.398595442686    14.003074004430
         N           -1.841863420066    -0.737602983207     0.495430442686    14.003074004430
         N           -1.319907420066     1.120708016793    -0.634928557314    14.003074004430
         C           -0.874077420066    -0.039940983207    -0.162293557314    12.000000000000
         C            1.467807579934     0.778004016793     1.808733442686    12.000000000000
         C            1.967498579934     1.686548016793    -0.422351557314    12.000000000000
         C           -2.989475420066     0.008534016793     0.434046442686    12.000000000000
         C           -2.640970420066     1.151442016793    -0.263280557314    12.000000000000
         H            1.355533579934    -0.157857983207     2.355148442686     1.007825032230
         H            0.569596579934     1.399111016793     1.932345442686     1.007825032230
         H            2.330534579934     1.316310016793     2.207103442686     1.007825032230
         H            2.177960579934     1.382367016793    -1.446179557314     1.007825032230
         H            2.843169579934     2.196494016793    -0.014264557314     1.007825032230
         H            1.101558579934     2.358242016793    -0.405976557314     1.007825032230
         H           -1.693684420066    -1.644126983207     0.929267442686     1.007825032230
         H           -3.919088420066    -0.324177983207     0.872226442686     1.007825032230
         H           -3.273539420066     1.991324016793    -0.517519557314     1.007825032230

  Basis Set: AUG-CC-PVTZ
    Blend: AUG-CC-PVTZ
  Basis Set: (AUG-CC-PVTZ AUX)
    Blend: AUG-CC-PVTZ-JKFIT
	 Reference Energy          =    -905.2978257667632533 [Eh]
	 Singles Energy            =      -0.0000000000000000 [Eh]
	 Same-Spin Energy          =      -0.5985268379520848 [Eh]
	 Opposite-Spin Energy      =      -1.7780757354367278 [Eh]
	 Correlation Energy        =      -2.3766025733888125 [Eh]
	 Total Energy              =    -907.6744283401520761 [Eh]

	 ================> DF-SCS-MP2 Energies <==================
	-----------------------------------------------------------
	 SCS Same-Spin Scale       =       0.3333333333333333 [-]
	 SCS Opposite-Spin Scale   =       1.2000000000000000 [-]
	 SCS Same-Spin Energy      =      -0.1995089459840283 [Eh]
	 SCS Opposite-Spin Energy  =      -2.1336908825240735 [Eh]
	 SCS Correlation Energy    =      -2.3331998285081017 [Eh]
	 SCS Total Energy          =    -907.6310255952713533 [Eh]
	-----------------------------------------------------------

  Dipole Moment: [D]
     X:    -2.7826      Y:     1.9557      Z:     3.8140     Total:     5.1102

*** Psi4 exiting successfully. Buy a developer a beer!
