                               Psi4 1.3.2 release

  ==> Input File <==

--------------------------------------------------------------------------
#psi4
#
memory 32 gb

molecule  {
0 1
  S        0.7637890    -0.7221230    -0.3122950
  O        0.7428910    -1.8740890     0.5977740
  O        1.1390870    -0.8496890    -1.7151490
  N        1.7366500     0.4402300     0.3626080
  N       -1.8489830    -0.7837230     0.4594430
  N       -1.3270270     1.0745880    -0.6709160
  C       -0.8811970    -0.0860610    -0.1982810
  C        1.4606880     0.7318840     1.7727460
  C        1.9603790     1.6404280    -0.4583390
  C       -2.9965950    -0.0375860     0.3980590
  C       -2.6255318     1.0969530    -0.3012926
  H        1.3484140    -0.2039780     2.3191610
  H        0.5624770     1.3529910     1.8963580
  H        2.3234150     1.2701900     2.1711160
  H        2.1708410     1.3362470    -1.4821670
  H        2.8360500     2.1503740    -0.0502520
  H        1.0944390     2.3121220    -0.4419640
  H       -1.7008040    -1.6902470     0.8932800
  H       -3.9262080    -0.3702980     0.8362390
  H       -3.2806590     1.9452040    -0.5535070
units angstrom
no_reorient  #important for SAPT in psi4, default
symmetry c1  #important for SAPT in psi4, default
}

set PROPERTIES_ORIGIN ["COM"]
properties('MP2/aug-cc-pvtz', properties = ['dipole'])
--------------------------------------------------------------------------

    Molecular point group: c1
  Charge       = 0
  Multiplicity = 1
  Basis Set: AUG-CC-PVTZ
    Blend: AUG-CC-PVTZ
  Basis Set: (AUG-CC-PVTZ AUX)
    Blend: AUG-CC-PVTZ-JKFIT

    Orbital Energies [Eh]
    ---------------------

    Doubly Occupied:

       1A    -92.215590     2A    -20.558256     3A    -20.555725
       4A    -15.656241     5A    -15.611203     6A    -15.585925
       7A    -11.337122     8A    -11.291925     9A    -11.275296
      10A    -11.273376    11A    -11.266207    12A     -9.180100
      13A     -6.865317    14A     -6.864916    15A     -6.864498
      16A     -1.464202    17A     -1.373400    18A     -1.345314
      19A     -1.257968    20A     -1.203944    21A     -1.049651
      22A     -0.981747    23A     -0.959734    24A     -0.878303
      25A     -0.839336    26A     -0.819178    27A     -0.753005
      28A     -0.710780    29A     -0.677090    30A     -0.668238
      31A     -0.643204    32A     -0.634922    33A     -0.626250
      34A     -0.614596    35A     -0.606432    36A     -0.577188
      37A     -0.571173    38A     -0.541981    39A     -0.513764
      40A     -0.507820    41A     -0.484942    42A     -0.479884
      43A     -0.472918    44A     -0.432801    45A     -0.418310
      46A     -0.344552

  @DF-RHF Final Energy:  -905.30520136351254

   => Energetics <=

    Nuclear Repulsion Energy =            798.0726863904675383
    One-Electron Energy =               -2827.0471283959518587
    Two-Electron Energy =                1123.6692406419717827
    Total Energy =                       -905.3052013635126514
  Basis Set: (AUG-CC-PVTZ AUX)
    Blend: AUG-CC-PVTZ-RI
    Molecular point group: c1

    Geometry (in Angstrom), charge = 0, multiplicity = 1:

       Center              X                  Y                   Z               Mass
    ------------   -----------------  -----------------  -----------------  -----------------
         S            0.770538332636    -0.675829059638    -0.280565504761    31.972071174400
         O            0.749640332636    -1.827795059638     0.629503495239    15.994914619570
         O            1.145836332636    -0.803395059638    -1.683419504761    15.994914619570
         N            1.743399332636     0.486523940362     0.394337495239    14.003074004430
         N           -1.842233667364    -0.737429059638     0.491172495239    14.003074004430
         N           -1.320277667364     1.120881940362    -0.639186504761    14.003074004430
         C           -0.874447667364    -0.039767059638    -0.166551504761    12.000000000000
         C            1.467437332636     0.778177940362     1.804475495239    12.000000000000
         C            1.967128332636     1.686721940362    -0.426609504761    12.000000000000
         C           -2.989845667364     0.008707940362     0.429788495239    12.000000000000
         C           -2.618782467364     1.143246940362    -0.269563104761    12.000000000000
         H            1.355163332636    -0.157684059638     2.350890495239     1.007825032230
         H            0.569226332636     1.399284940362     1.928087495239     1.007825032230
         H            2.330164332636     1.316483940362     2.202845495239     1.007825032230
         H            2.177590332636     1.382540940362    -1.450437504761     1.007825032230
         H            2.842799332636     2.196667940362    -0.018522504761     1.007825032230
         H            1.101188332636     2.358415940362    -0.410234504761     1.007825032230
         H           -1.694054667364    -1.643953059638     0.925009495239     1.007825032230
         H           -3.919458667364    -0.324004059638     0.867968495239     1.007825032230
         H           -3.273909667364     1.991497940362    -0.521777504761     1.007825032230

  Basis Set: AUG-CC-PVTZ
    Blend: AUG-CC-PVTZ
  Basis Set: (AUG-CC-PVTZ AUX)
    Blend: AUG-CC-PVTZ-JKFIT
	 Reference Energy          =    -905.3052013635125377 [Eh]
	 Singles Energy            =      -0.0000000000000000 [Eh]
	 Same-Spin Energy          =      -0.5976755178264446 [Eh]
	 Opposite-Spin Energy      =      -1.7753383284398812 [Eh]
	 Correlation Energy        =      -2.3730138462663257 [Eh]
	 Total Energy              =    -907.6782152097788412 [Eh]

	 ================> DF-SCS-MP2 Energies <==================
	-----------------------------------------------------------
	 SCS Same-Spin Scale       =       0.3333333333333333 [-]
	 SCS Opposite-Spin Scale   =       1.2000000000000000 [-]
	 SCS Same-Spin Energy      =      -0.1992251726088148 [Eh]
	 SCS Opposite-Spin Energy  =      -2.1304059941278575 [Eh]
	 SCS Correlation Energy    =      -2.3296311667366725 [Eh]
	 SCS Total Energy          =    -907.6348325302492412 [Eh]
	-----------------------------------------------------------

  Dipole Moment: [D]
     X:    -2.6781      Y:     1.8815      Z:     3.5712     Total:     4.8441

*** Psi4 exiting successfully. Buy a developer a beer!
