                               Psi4 1.3.2 release

  ==> Input File <==

--------------------------------------------------------------------------
#psi4
#
memory 32 gb

molecule  {
0 1
  S        0.7637890    -0.7221230    -0.3122950
  O        0.7428910    -1.8740890     0.5977740
  O        1.1390870    -0.8496890    -1.7151490
  N        1.7366500     0.4402300     0.3626080
  N       -1.8489830    -0.7837230     0.4594430
  N       -1.3270270     1.0745880    -0.6709160
  C       -0.8811970    -0.0860610    -0.1982810
  C        1.4606880     0.7318840     1.7727460
  C        1.9603790     1.6404280    -0.4583390
  C       -2.9512369    -0.0534041     0.3931301
  C       -2.6480900     1.1053220    -0.2992680
  H        1.3484140    -0.2039780     2.3191610
  H        0.5624770     1.3529910     1.8963580
  H        2.3234150     1.2701900     2.1711160
  H        2.1708410     1.3362470    -1.4821670
  H        2.8360500     2.1503740    -0.0502520
  H        1.0944390     2.3121220    -0.4419640
  H       -1.7008040    -1.6902470     0.8932800
  H       -3.9262080    -0.3702980     0.8362390
  H       -3.2806590     1.9452040    -0.5535070
units angstrom
no_reorient  #important for SAPT in psi4, default
symmetry c1  #important for SAPT in psi4, default
}

set PROPERTIES_ORIGIN ["COM"]
properties('MP2/aug-cc-pvtz', properties = ['dipole'])
--------------------------------------------------------------------------

    Molecular point group: c1
  Charge       = 0
  Multiplicity = 1
  Basis Set: AUG-CC-PVTZ
    Blend: AUG-CC-PVTZ
  Basis Set: (AUG-CC-PVTZ AUX)
    Blend: AUG-CC-PVTZ-JKFIT

    Orbital Energies [Eh]
    ---------------------

    Doubly Occupied:

       1A    -92.214717     2A    -20.557923     3A    -20.554668
       4A    -15.657369     5A    -15.610254     6A    -15.587801
       7A    -11.333617     8A    -11.293505     9A    -11.274790
      10A    -11.270473    11A    -11.265522    12A     -9.179200
      13A     -6.864411    14A     -6.864021    15A     -6.863607
      16A     -1.463608    17A     -1.381304    18A     -1.344727
      19A     -1.257210    20A     -1.205108    21A     -1.049682
      22A     -0.981112    23A     -0.958301    24A     -0.876101
      25A     -0.845340    26A     -0.821484    27A     -0.752492
      28A     -0.710815    29A     -0.679950    30A     -0.667062
      31A     -0.645731    32A     -0.631356    33A     -0.624014
      34A     -0.618631    35A     -0.607106    36A     -0.576798
      37A     -0.570663    38A     -0.541373    39A     -0.513229
      40A     -0.507546    41A     -0.484064    42A     -0.479354
      43A     -0.470827    44A     -0.433315    45A     -0.417363
      46A     -0.343104

  @DF-RHF Final Energy:  -905.30360422303045

   => Energetics <=

    Nuclear Repulsion Energy =            798.6733601151009907
    One-Electron Energy =               -2828.2526326973211326
    Two-Electron Energy =                1124.2756683591899218
    Total Energy =                       -905.3036042230303337
  Basis Set: (AUG-CC-PVTZ AUX)
    Blend: AUG-CC-PVTZ-RI
    Molecular point group: c1

    Geometry (in Angstrom), charge = 0, multiplicity = 1:

       Center              X                  Y                   Z               Mass
    ------------   -----------------  -----------------  -----------------  -----------------
         S            0.768975282015    -0.675318385452    -0.280366400032    31.972071174400
         O            0.748077282015    -1.827284385452     0.629702599968    15.994914619570
         O            1.144273282015    -0.802884385452    -1.683220400032    15.994914619570
         N            1.741836282015     0.487034614548     0.394536599968    14.003074004430
         N           -1.843796717985    -0.736918385452     0.491371599968    14.003074004430
         N           -1.321840717985     1.121392614548    -0.638987400032    14.003074004430
         C           -0.876010717985    -0.039256385452    -0.166352400032    12.000000000000
         C            1.465874282015     0.778688614548     1.804674599968    12.000000000000
         C            1.965565282015     1.687232614548    -0.426410400032    12.000000000000
         C           -2.946050617985    -0.006599485452     0.425058699968    12.000000000000
         C           -2.642903717985     1.152126614548    -0.267339400032    12.000000000000
         H            1.353600282015    -0.157173385452     2.351089599968     1.007825032230
         H            0.567663282015     1.399795614548     1.928286599968     1.007825032230
         H            2.328601282015     1.316994614548     2.203044599968     1.007825032230
         H            2.176027282015     1.383051614548    -1.450238400032     1.007825032230
         H            2.841236282015     2.197178614548    -0.018323400032     1.007825032230
         H            1.099625282015     2.358926614548    -0.410035400032     1.007825032230
         H           -1.695617717985    -1.643442385452     0.925208599968     1.007825032230
         H           -3.921021717985    -0.323493385452     0.868167599968     1.007825032230
         H           -3.275472717985     1.992008614548    -0.521578400032     1.007825032230

  Basis Set: AUG-CC-PVTZ
    Blend: AUG-CC-PVTZ
  Basis Set: (AUG-CC-PVTZ AUX)
    Blend: AUG-CC-PVTZ-JKFIT
	 Reference Energy          =    -905.3036042230304474 [Eh]
	 Singles Energy            =      -0.0000000000000000 [Eh]
	 Same-Spin Energy          =      -0.5976825547584990 [Eh]
	 Opposite-Spin Energy      =      -1.7749420964906020 [Eh]
	 Correlation Energy        =      -2.3726246512491009 [Eh]
	 Total Energy              =    -907.6762288742795590 [Eh]

	 ================> DF-SCS-MP2 Energies <==================
	-----------------------------------------------------------
	 SCS Same-Spin Scale       =       0.3333333333333333 [-]
	 SCS Opposite-Spin Scale   =       1.2000000000000000 [-]
	 SCS Same-Spin Energy      =      -0.1992275182528330 [Eh]
	 SCS Opposite-Spin Energy  =      -2.1299305157887223 [Eh]
	 SCS Correlation Energy    =      -2.3291580340415554 [Eh]
	 SCS Total Energy          =    -907.6327622570720450 [Eh]
	-----------------------------------------------------------

  Dipole Moment: [D]
     X:    -2.7045      Y:     1.8549      Z:     3.5850     Total:     4.8587

*** Psi4 exiting successfully. Buy a developer a beer!
