                               Psi4 1.4a3.dev225

  ==> Input File <==

--------------------------------------------------------------------------
#psi4
#
memory 32 gb

molecule  {
0 1
  S        0.7637890    -0.7221230    -0.3122950
  O        0.7428910    -1.8740890     0.5977740
  O        1.1390870    -0.8496890    -1.7151490
  N        1.7366500     0.4402300     0.3626080
  N       -1.8489830    -0.7837230     0.4594430
  N       -1.3270270     1.0745880    -0.6709160
  C       -0.8811970    -0.0860610    -0.1982810
  C        1.4606880     0.7318840     1.7727460
  C        1.9603790     1.6404280    -0.4583390
  C       -2.9798442    -0.0484768     0.3989550
  C       -2.6480900     1.1053220    -0.2992680
  H        1.3484140    -0.2039780     2.3191610
  H        0.5624770     1.3529910     1.8963580
  H        2.3234150     1.2701900     2.1711160
  H        2.1708410     1.3362470    -1.4821670
  H        2.8360500     2.1503740    -0.0502520
  H        1.0944390     2.3121220    -0.4419640
  H       -1.7008040    -1.6902470     0.8932800
  H       -3.9262080    -0.3702980     0.8362390
  H       -3.2806590     1.9452040    -0.5535070
units angstrom
no_reorient  #important for SAPT in psi4, default
symmetry c1  #important for SAPT in psi4, default
}

set PROPERTIES_ORIGIN ["COM"]
properties('MP2/aug-cc-pvtz', properties = ['dipole'])
--------------------------------------------------------------------------

    Molecular point group: c1
  Charge       = 0
  Multiplicity = 1
  Basis Set: AUG-CC-PVTZ
    Blend: AUG-CC-PVTZ
  Basis Set: (AUG-CC-PVTZ AUX)
    Blend: AUG-CC-PVTZ-JKFIT

    Orbital Energies [Eh]
    ---------------------

    Doubly Occupied:

       1A    -92.215358     2A    -20.558227     3A    -20.555360
       4A    -15.656501     5A    -15.610851     6A    -15.587351
       7A    -11.335760     8A    -11.293547     9A    -11.275059
      10A    -11.272881    11A    -11.265865    12A     -9.179854
      13A     -6.865070    14A     -6.864673    15A     -6.864254
      16A     -1.463999    17A     -1.374329    18A     -1.345107
      19A     -1.257664    20A     -1.201556    21A     -1.049380
      22A     -0.981455    23A     -0.959114    24A     -0.876438
      25A     -0.842371    26A     -0.820101    27A     -0.752942
      28A     -0.710714    29A     -0.678418    30A     -0.667708
      31A     -0.643761    32A     -0.629553    33A     -0.625962
      34A     -0.618252    35A     -0.609210    36A     -0.577051
      37A     -0.570919    38A     -0.541700    39A     -0.513681
      40A     -0.507757    41A     -0.484904    42A     -0.479717
      43A     -0.471257    44A     -0.431155    45A     -0.417757
      46A     -0.344021

  @DF-RHF Final Energy:  -905.30559917856294

   => Energetics <=

    Nuclear Repulsion Energy =            797.8807170271367113
    One-Electron Energy =               -2826.6755068060856502
    Two-Electron Energy =                1123.4891906003861095
    Total Energy =                       -905.3055991785629431
  Basis Set: (AUG-CC-PVTZ AUX)
    Blend: AUG-CC-PVTZ-RI
    Molecular point group: c1

    Geometry (in Angstrom), charge = 0, multiplicity = 1:

       Center              X                  Y                   Z               Mass
    ------------   -----------------  -----------------  -----------------  -----------------
         S            0.770936459829    -0.675656177255    -0.280765726940    31.972071174400
         O            0.750038459829    -1.827622177255     0.629303273060    15.994914619570
         O            1.146234459829    -0.803222177255    -1.683619726940    15.994914619570
         N            1.743797459829     0.486696822745     0.394137273060    14.003074004430
         N           -1.841835540171    -0.737256177255     0.490972273060    14.003074004430
         N           -1.319879540171     1.121054822745    -0.639386726940    14.003074004430
         C           -0.874049540171    -0.039594177255    -0.166751726940    12.000000000000
         C            1.467835459829     0.778350822745     1.804275273060    12.000000000000
         C            1.967526459829     1.686894822745    -0.426809726940    12.000000000000
         C           -2.972696740171    -0.002009977255     0.430484273060    12.000000000000
         C           -2.640942540171     1.151788822745    -0.267738726940    12.000000000000
         H            1.355561459829    -0.157511177255     2.350690273060     1.007825032230
         H            0.569624459829     1.399457822745     1.927887273060     1.007825032230
         H            2.330562459829     1.316656822745     2.202645273060     1.007825032230
         H            2.177988459829     1.382713822745    -1.450637726940     1.007825032230
         H            2.843197459829     2.196840822745    -0.018722726940     1.007825032230
         H            1.101586459829     2.358588822745    -0.410434726940     1.007825032230
         H           -1.693656540171    -1.643780177255     0.924809273060     1.007825032230
         H           -3.919060540171    -0.323831177255     0.867768273060     1.007825032230
         H           -3.273511540171     1.991670822745    -0.521977726940     1.007825032230

  Basis Set: AUG-CC-PVTZ
    Blend: AUG-CC-PVTZ
  Basis Set: (AUG-CC-PVTZ AUX)
    Blend: AUG-CC-PVTZ-JKFIT
	 Reference Energy          =    -905.3055991785629431 [Eh]
	 Singles Energy            =      -0.0000000000000000 [Eh]
	 Same-Spin Energy          =      -0.5976293497727332 [Eh]
	 Opposite-Spin Energy      =      -1.7753324622775675 [Eh]
	 Correlation Energy        =      -2.3729618120503009 [Eh]
	 Total Energy              =    -907.6785609906132777 [Eh]

	 ================> DF-SCS-MP2 Energies <==================
	-----------------------------------------------------------
	 SCS Same-Spin Scale       =       0.3333333333333333 [-]
	 SCS Opposite-Spin Scale   =       1.2000000000000000 [-]
	 SCS Same-Spin Energy      =      -0.1992097832575777 [Eh]
	 SCS Opposite-Spin Energy  =      -2.1303989547330811 [Eh]
	 SCS Correlation Energy    =      -2.3296087379906587 [Eh]
	 SCS Total Energy          =    -907.6352079165535542 [Eh]
	-----------------------------------------------------------

  Dipole Moment: [D]
     X:    -2.6920      Y:     1.8733      Z:     3.5776     Total:     4.8534

*** Psi4 exiting successfully. Buy a developer a beer!
