                               Psi4 1.3.2 release

  ==> Input File <==

--------------------------------------------------------------------------
#psi4
#
memory 32 gb

molecule  {
0 1
  S        0.7637890    -0.7221230    -0.3122950
  O        0.7428910    -1.8740890     0.5977740
  O        1.1390870    -0.8496890    -1.7151490
  N        1.7366500     0.4402300     0.3626080
  N       -1.8489830    -0.7837230     0.4594430
  N       -1.3204416     0.9891329    -0.6280901
  C       -0.8811970    -0.0860610    -0.1982810
  C        1.4606880     0.7318840     1.7727460
  C        1.9603790     1.6404280    -0.4583390
  C       -2.9965950    -0.0375860     0.3980590
  C       -2.6480900     1.1053220    -0.2992680
  H        1.3484140    -0.2039780     2.3191610
  H        0.5624770     1.3529910     1.8963580
  H        2.3234150     1.2701900     2.1711160
  H        2.1708410     1.3362470    -1.4821670
  H        2.8360500     2.1503740    -0.0502520
  H        1.0944390     2.3121220    -0.4419640
  H       -1.7008040    -1.6902470     0.8932800
  H       -3.9262080    -0.3702980     0.8362390
  H       -3.2806590     1.9452040    -0.5535070
units angstrom
no_reorient  #important for SAPT in psi4, default
symmetry c1  #important for SAPT in psi4, default
}

set PROPERTIES_ORIGIN ["COM"]
properties('MP2/aug-cc-pvtz', properties = ['dipole'])
--------------------------------------------------------------------------

    Molecular point group: c1
  Charge       = 0
  Multiplicity = 1
  Basis Set: AUG-CC-PVTZ
    Blend: AUG-CC-PVTZ
  Basis Set: (AUG-CC-PVTZ AUX)
    Blend: AUG-CC-PVTZ-JKFIT

    Orbital Energies [Eh]
    ---------------------

    Doubly Occupied:

       1A    -92.214258     2A    -20.557566     3A    -20.555578
       4A    -15.642809     5A    -15.611122     6A    -15.572028
       7A    -11.325484     8A    -11.294158     9A    -11.275390
      10A    -11.271647    11A    -11.266483    12A     -9.179065
      13A     -6.864257    14A     -6.863840    15A     -6.863434
      16A     -1.464182    17A     -1.384037    18A     -1.345060
      19A     -1.257969    20A     -1.205196    21A     -1.055234
      22A     -0.981858    23A     -0.960684    24A     -0.873297
      25A     -0.847832    26A     -0.814450    27A     -0.754527
      28A     -0.711035    29A     -0.681228    30A     -0.667939
      31A     -0.645892    32A     -0.632900    33A     -0.627993
      34A     -0.621262    35A     -0.611981    36A     -0.577516
      37A     -0.571272    38A     -0.542045    39A     -0.515486
      40A     -0.507442    41A     -0.489741    42A     -0.479391
      43A     -0.458843    44A     -0.433633    45A     -0.415110
      46A     -0.350853

  @DF-RHF Final Energy:  -905.30431577822787

   => Energetics <=

    Nuclear Repulsion Energy =            800.4039275337486288
    One-Electron Energy =               -2831.7304787010398286
    Two-Electron Energy =                1126.0222353890633258
    Total Energy =                       -905.3043157782278740
  Basis Set: (AUG-CC-PVTZ AUX)
    Blend: AUG-CC-PVTZ-RI
    Molecular point group: c1

    Geometry (in Angstrom), charge = 0, multiplicity = 1:

       Center              X                  Y                   Z               Mass
    ------------   -----------------  -----------------  -----------------  -----------------
         S            0.771557990876    -0.669566511668    -0.284130312403    31.972071174400
         O            0.750659990876    -1.821532511668     0.625938687597    15.994914619570
         O            1.146855990876    -0.797132511668    -1.686984312403    15.994914619570
         N            1.744418990876     0.492786488332     0.390772687597    14.003074004430
         N           -1.841214009124    -0.731166511668     0.487607687597    14.003074004430
         N           -1.312672609124     1.041689388332    -0.599925412403    14.003074004430
         C           -0.873428009124    -0.033504511668    -0.170116312403    12.000000000000
         C            1.468456990876     0.784440488332     1.800910687597    12.000000000000
         C            1.968147990876     1.692984488332    -0.430174312403    12.000000000000
         C           -2.988826009124     0.014970488332     0.426223687597    12.000000000000
         C           -2.640321009124     1.157878488332    -0.271103312403    12.000000000000
         H            1.356182990876    -0.151421511668     2.347325687597     1.007825032230
         H            0.570245990876     1.405547488332     1.924522687597     1.007825032230
         H            2.331183990876     1.322746488332     2.199280687597     1.007825032230
         H            2.178609990876     1.388803488332    -1.454002312403     1.007825032230
         H            2.843818990876     2.202930488332    -0.022087312403     1.007825032230
         H            1.102207990876     2.364678488332    -0.413799312403     1.007825032230
         H           -1.693035009124    -1.637690511668     0.921444687597     1.007825032230
         H           -3.918439009124    -0.317741511668     0.864403687597     1.007825032230
         H           -3.272890009124     1.997760488332    -0.525342312403     1.007825032230

  Basis Set: AUG-CC-PVTZ
    Blend: AUG-CC-PVTZ
  Basis Set: (AUG-CC-PVTZ AUX)
    Blend: AUG-CC-PVTZ-JKFIT
	 Reference Energy          =    -905.3043157782278740 [Eh]
	 Singles Energy            =      -0.0000000000000000 [Eh]
	 Same-Spin Energy          =      -0.5953528669503347 [Eh]
	 Opposite-Spin Energy      =      -1.7710816253312114 [Eh]
	 Correlation Energy        =      -2.3664344922815461 [Eh]
	 Total Energy              =    -907.6707502705094157 [Eh]

	 ================> DF-SCS-MP2 Energies <==================
	-----------------------------------------------------------
	 SCS Same-Spin Scale       =       0.3333333333333333 [-]
	 SCS Opposite-Spin Scale   =       1.2000000000000000 [-]
	 SCS Same-Spin Energy      =      -0.1984509556501116 [Eh]
	 SCS Opposite-Spin Energy  =      -2.1252979503974534 [Eh]
	 SCS Correlation Energy    =      -2.3237489060475651 [Eh]
	 SCS Total Energy          =    -907.6280646842753868 [Eh]
	-----------------------------------------------------------

  Dipole Moment: [D]
     X:    -2.6193      Y:     2.0962      Z:     3.4516     Total:     4.8134

*** Psi4 exiting successfully. Buy a developer a beer!
