                               Psi4 1.3.2 release

  ==> Input File <==

--------------------------------------------------------------------------
#psi4
#
memory 32 gb

molecule  {
0 1
  S        0.7637890    -0.7221230    -0.3122950
  O        0.7428910    -1.8740890     0.5977740
  O        1.1390870    -0.8496890    -1.7151490
  N        1.7366500     0.4402300     0.3626080
  N       -1.8489830    -0.7837230     0.4594430
  N       -1.3270270     1.0745880    -0.6709160
  C       -0.8210720    -0.1569066    -0.1780858
  C        1.4606880     0.7318840     1.7727460
  C        1.9603790     1.6404280    -0.4583390
  C       -2.9965950    -0.0375860     0.3980590
  C       -2.6480900     1.1053220    -0.2992680
  H        1.3484140    -0.2039780     2.3191610
  H        0.5624770     1.3529910     1.8963580
  H        2.3234150     1.2701900     2.1711160
  H        2.1708410     1.3362470    -1.4821670
  H        2.8360500     2.1503740    -0.0502520
  H        1.0944390     2.3121220    -0.4419640
  H       -1.7008040    -1.6902470     0.8932800
  H       -3.9262080    -0.3702980     0.8362390
  H       -3.2806590     1.9452040    -0.5535070
units angstrom
no_reorient  #important for SAPT in psi4, default
symmetry c1  #important for SAPT in psi4, default
}

set PROPERTIES_ORIGIN ["COM"]
properties('MP2/aug-cc-pvtz', properties = ['dipole'])
--------------------------------------------------------------------------

    Molecular point group: c1
  Charge       = 0
  Multiplicity = 1
  Basis Set: AUG-CC-PVTZ
    Blend: AUG-CC-PVTZ
  Basis Set: (AUG-CC-PVTZ AUX)
    Blend: AUG-CC-PVTZ-JKFIT

    Orbital Energies [Eh]
    ---------------------

    Doubly Occupied:

       1A    -92.214749     2A    -20.555203     3A    -20.554765
       4A    -15.665065     5A    -15.611141     6A    -15.593383
       7A    -11.336854     8A    -11.296841     9A    -11.277705
      10A    -11.274455    11A    -11.265185    12A     -9.180054
      13A     -6.865438    14A     -6.864974    15A     -6.864399
      16A     -1.466124    17A     -1.360881    18A     -1.343980
      19A     -1.257703    20A     -1.181474    21A     -1.060142
      22A     -0.980957    23A     -0.964026    24A     -0.887734
      25A     -0.837092    26A     -0.815376    27A     -0.752257
      28A     -0.711634    29A     -0.680196    30A     -0.668452
      31A     -0.644417    32A     -0.628159    33A     -0.623426
      34A     -0.616724    35A     -0.605434    36A     -0.576068
      37A     -0.570127    38A     -0.541139    39A     -0.514195
      40A     -0.507324    41A     -0.482251    42A     -0.478109
      43A     -0.467711    44A     -0.422126    45A     -0.420561
      46A     -0.343692

  @DF-RHF Final Energy:  -905.28716591873092

   => Energetics <=

    Nuclear Repulsion Energy =            798.0262292948638105
    One-Electron Energy =               -2826.9673861176697756
    Two-Electron Energy =                1123.6539909040750445
    Total Energy =                       -905.2871659187310343
  Basis Set: (AUG-CC-PVTZ AUX)
    Blend: AUG-CC-PVTZ-RI
    Molecular point group: c1

    Geometry (in Angstrom), charge = 0, multiplicity = 1:

       Center              X                  Y                   Z               Mass
    ------------   -----------------  -----------------  -----------------  -----------------
         S            0.767962934933    -0.671545966797    -0.282088786539    31.972071174400
         O            0.747064934933    -1.823511966797     0.627980213461    15.994914619570
         O            1.143260934933    -0.799111966797    -1.684942786539    15.994914619570
         N            1.740823934933     0.490807033203     0.392814213461    14.003074004430
         N           -1.844809065067    -0.733145966797     0.489649213461    14.003074004430
         N           -1.322853065067     1.125165033203    -0.640709786539    14.003074004430
         C           -0.816898065067    -0.106329566797    -0.147879586539    12.000000000000
         C            1.464861934933     0.782461033203     1.802952213461    12.000000000000
         C            1.964552934933     1.691005033203    -0.428132786539    12.000000000000
         C           -2.992421065067     0.012991033203     0.428265213461    12.000000000000
         C           -2.643916065067     1.155899033203    -0.269061786539    12.000000000000
         H            1.352587934933    -0.153400966797     2.349367213461     1.007825032230
         H            0.566650934933     1.403568033203     1.926564213461     1.007825032230
         H            2.327588934933     1.320767033203     2.201322213461     1.007825032230
         H            2.175014934933     1.386824033203    -1.451960786539     1.007825032230
         H            2.840223934933     2.200951033203    -0.020045786539     1.007825032230
         H            1.098612934933     2.362699033203    -0.411757786539     1.007825032230
         H           -1.696630065067    -1.639669966797     0.923486213461     1.007825032230
         H           -3.922034065067    -0.319720966797     0.866445213461     1.007825032230
         H           -3.276485065067     1.995781033203    -0.523300786539     1.007825032230

  Basis Set: AUG-CC-PVTZ
    Blend: AUG-CC-PVTZ
  Basis Set: (AUG-CC-PVTZ AUX)
    Blend: AUG-CC-PVTZ-JKFIT
	 Reference Energy          =    -905.2871659187309206 [Eh]
	 Singles Energy            =      -0.0000000000000000 [Eh]
	 Same-Spin Energy          =      -0.6005690942507369 [Eh]
	 Opposite-Spin Energy      =      -1.7805629658779736 [Eh]
	 Correlation Energy        =      -2.3811320601287105 [Eh]
	 Total Energy              =    -907.6682979788596413 [Eh]

	 ================> DF-SCS-MP2 Energies <==================
	-----------------------------------------------------------
	 SCS Same-Spin Scale       =       0.3333333333333333 [-]
	 SCS Opposite-Spin Scale   =       1.2000000000000000 [-]
	 SCS Same-Spin Energy      =      -0.2001896980835789 [Eh]
	 SCS Opposite-Spin Energy  =      -2.1366755590535682 [Eh]
	 SCS Correlation Energy    =      -2.3368652571371471 [Eh]
	 SCS Total Energy          =    -907.6240311758680264 [Eh]
	-----------------------------------------------------------

  Dipole Moment: [D]
     X:    -2.9208      Y:     1.9243      Z:     3.6156     Total:     5.0306

*** Psi4 exiting successfully. Buy a developer a beer!
