                               Psi4 1.3.2 release

  ==> Input File <==

--------------------------------------------------------------------------
#psi4
#
memory 32 gb

molecule  {
0 1
  S        0.7637890    -0.7221230    -0.3122950
  O        0.7428910    -1.8740890     0.5977740
  O        1.1390870    -0.8496890    -1.7151490
  N        1.7366500     0.4402300     0.3626080
  N       -1.8489830    -0.7837230     0.4594430
  N       -1.3270270     1.0745880    -0.6709160
  C       -0.8811970    -0.0860610    -0.1982810
  C        1.4606880     0.7318840     1.7727460
  C        1.9603790     1.6404280    -0.4583390
  C       -2.9739656    -0.0456704     0.3957004
  C       -2.6480900     1.1053220    -0.2992680
  H        1.3484140    -0.2039780     2.3191610
  H        0.5624770     1.3529910     1.8963580
  H        2.3234150     1.2701900     2.1711160
  H        2.1708410     1.3362470    -1.4821670
  H        2.8360500     2.1503740    -0.0502520
  H        1.0944390     2.3121220    -0.4419640
  H       -1.7008040    -1.6902470     0.8932800
  H       -3.9262080    -0.3702980     0.8362390
  H       -3.2806590     1.9452040    -0.5535070
units angstrom
no_reorient  #important for SAPT in psi4, default
symmetry c1  #important for SAPT in psi4, default
}

set PROPERTIES_ORIGIN ["COM"]
properties('MP2/aug-cc-pvtz', properties = ['dipole'])
--------------------------------------------------------------------------

    Molecular point group: c1
  Charge       = 0
  Multiplicity = 1
  Basis Set: AUG-CC-PVTZ
    Blend: AUG-CC-PVTZ
  Basis Set: (AUG-CC-PVTZ AUX)
    Blend: AUG-CC-PVTZ-JKFIT

    Orbital Energies [Eh]
    ---------------------

    Doubly Occupied:

       1A    -92.215280     2A    -20.558223     3A    -20.555288
       4A    -15.656297     5A    -15.610788     6A    -15.587217
       7A    -11.335567     8A    -11.293265     9A    -11.275038
      10A    -11.271958    11A    -11.265819    12A     -9.179781
      13A     -6.864996    14A     -6.864598    15A     -6.864181
      16A     -1.463974    17A     -1.375417    18A     -1.345087
      19A     -1.257617    20A     -1.201864    21A     -1.049839
      22A     -0.981418    23A     -0.959134    24A     -0.876550
      25A     -0.842762    26A     -0.819883    27A     -0.752753
      28A     -0.710749    29A     -0.678284    30A     -0.667575
      31A     -0.644066    32A     -0.629789    33A     -0.625838
      34A     -0.618479    35A     -0.608693    36A     -0.577027
      37A     -0.570895    38A     -0.541665    39A     -0.513643
      40A     -0.507742    41A     -0.484801    42A     -0.479691
      43A     -0.471151    44A     -0.431280    45A     -0.417720
      46A     -0.344597

  @DF-RHF Final Energy:  -905.30557597185634

   => Energetics <=

    Nuclear Repulsion Energy =            798.0658122534698578
    One-Electron Energy =               -2827.0462189111481166
    Two-Electron Energy =                1123.6748306858219166
    Total Energy =                       -905.3055759718563422
  Basis Set: (AUG-CC-PVTZ AUX)
    Blend: AUG-CC-PVTZ-RI
    Molecular point group: c1

    Geometry (in Angstrom), charge = 0, multiplicity = 1:

       Center              X                  Y                   Z               Mass
    ------------   -----------------  -----------------  -----------------  -----------------
         S            0.770533451510    -0.675848570435    -0.280542607340    31.972071174400
         O            0.749635451510    -1.827814570435     0.629526392660    15.994914619570
         O            1.145831451510    -0.803414570435    -1.683396607340    15.994914619570
         N            1.743394451510     0.486504429565     0.394360392660    14.003074004430
         N           -1.842238548490    -0.737448570435     0.491195392660    14.003074004430
         N           -1.320282548490     1.120862429565    -0.639163607340    14.003074004430
         C           -0.874452548490    -0.039786570435    -0.166528607340    12.000000000000
         C            1.467432451510     0.778158429565     1.804498392660    12.000000000000
         C            1.967123451510     1.686702429565    -0.426586607340    12.000000000000
         C           -2.967221148490     0.000604029565     0.427452792660    12.000000000000
         C           -2.641345548490     1.151596429565    -0.267515607340    12.000000000000
         H            1.355158451510    -0.157703570435     2.350913392660     1.007825032230
         H            0.569221451510     1.399265429565     1.928110392660     1.007825032230
         H            2.330159451510     1.316464429565     2.202868392660     1.007825032230
         H            2.177585451510     1.382521429565    -1.450414607340     1.007825032230
         H            2.842794451510     2.196648429565    -0.018499607340     1.007825032230
         H            1.101183451510     2.358396429565    -0.410211607340     1.007825032230
         H           -1.694059548490    -1.643972570435     0.925032392660     1.007825032230
         H           -3.919463548490    -0.324023570435     0.867991392660     1.007825032230
         H           -3.273914548490     1.991478429565    -0.521754607340     1.007825032230

  Basis Set: AUG-CC-PVTZ
    Blend: AUG-CC-PVTZ
  Basis Set: (AUG-CC-PVTZ AUX)
    Blend: AUG-CC-PVTZ-JKFIT
	 Reference Energy          =    -905.3055759718563422 [Eh]
	 Singles Energy            =      -0.0000000000000000 [Eh]
	 Same-Spin Energy          =      -0.5975749661894649 [Eh]
	 Opposite-Spin Energy      =      -1.7751781338551726 [Eh]
	 Correlation Energy        =      -2.3727531000446378 [Eh]
	 Total Energy              =    -907.6783290719009756 [Eh]

	 ================> DF-SCS-MP2 Energies <==================
	-----------------------------------------------------------
	 SCS Same-Spin Scale       =       0.3333333333333333 [-]
	 SCS Opposite-Spin Scale   =       1.2000000000000000 [-]
	 SCS Same-Spin Energy      =      -0.1991916553964883 [Eh]
	 SCS Opposite-Spin Energy  =      -2.1302137606262073 [Eh]
	 SCS Correlation Energy    =      -2.3294054160226958 [Eh]
	 SCS Total Energy          =    -907.6349813878790656 [Eh]
	-----------------------------------------------------------

  Dipole Moment: [D]
     X:    -2.6933      Y:     1.8727      Z:     3.5775     Total:     4.8538

*** Psi4 exiting successfully. Buy a developer a beer!
