                               Psi4 1.4a3.dev225

  ==> Input File <==

--------------------------------------------------------------------------
#psi4
#
memory 32 gb

molecule  {
0 1
  S        0.7637890    -0.7221230    -0.3122950
  O        0.7428910    -1.8740890     0.5977740
  O        1.1339381    -0.8479389    -1.6959025
  N        1.7366500     0.4402300     0.3626080
  N       -1.8489830    -0.7837230     0.4594430
  N       -1.3270270     1.0745880    -0.6709160
  C       -0.8811970    -0.0860610    -0.1982810
  C        1.4606880     0.7318840     1.7727460
  C        1.9603790     1.6404280    -0.4583390
  C       -2.9965950    -0.0375860     0.3980590
  C       -2.6480900     1.1053220    -0.2992680
  H        1.3484140    -0.2039780     2.3191610
  H        0.5624770     1.3529910     1.8963580
  H        2.3234150     1.2701900     2.1711160
  H        2.1708410     1.3362470    -1.4821670
  H        2.8360500     2.1503740    -0.0502520
  H        1.0944390     2.3121220    -0.4419640
  H       -1.7008040    -1.6902470     0.8932800
  H       -3.9262080    -0.3702980     0.8362390
  H       -3.2806590     1.9452040    -0.5535070
units angstrom
no_reorient  #important for SAPT in psi4, default
symmetry c1  #important for SAPT in psi4, default
}

set PROPERTIES_ORIGIN ["COM"]
properties('MP2/aug-cc-pvtz', properties = ['dipole'])
--------------------------------------------------------------------------

    Molecular point group: c1
  Charge       = 0
  Multiplicity = 1
  Basis Set: AUG-CC-PVTZ
    Blend: AUG-CC-PVTZ
  Basis Set: (AUG-CC-PVTZ AUX)
    Blend: AUG-CC-PVTZ-JKFIT

    Orbital Energies [Eh]
    ---------------------

    Doubly Occupied:

       1A    -92.214000     2A    -20.557045     3A    -20.556406
       4A    -15.654456     5A    -15.610142     6A    -15.586028
       7A    -11.336444     8A    -11.292533     9A    -11.274550
      10A    -11.273014    11A    -11.265944    12A     -9.178883
      13A     -6.864074    14A     -6.863690    15A     -6.863428
      16A     -1.470660    17A     -1.370049    18A     -1.349927
      19A     -1.257630    20A     -1.198099    21A     -1.049258
      22A     -0.981234    23A     -0.958798    24A     -0.876823
      25A     -0.840006    26A     -0.817773    27A     -0.752790
      28A     -0.711862    29A     -0.677061    30A     -0.668977
      31A     -0.643198    32A     -0.632141    33A     -0.624634
      34A     -0.617232    35A     -0.609675    36A     -0.577851
      37A     -0.570757    38A     -0.541556    39A     -0.515925
      40A     -0.510331    41A     -0.485484    42A     -0.482032
      43A     -0.471325    44A     -0.428851    45A     -0.417435
      46A     -0.345532

  @DF-RHF Final Energy:  -905.30783673259714

   => Energetics <=

    Nuclear Repulsion Energy =            798.5147906832146418
    One-Electron Energy =               -2827.9541705638439453
    Two-Electron Energy =                1124.1315431480320512
    Total Energy =                       -905.3078367325972522
  Basis Set: (AUG-CC-PVTZ AUX)
    Blend: AUG-CC-PVTZ-RI
    Molecular point group: c1

    Geometry (in Angstrom), charge = 0, multiplicity = 1:

       Center              X                  Y                   Z               Mass
    ------------   -----------------  -----------------  -----------------  -----------------
         S            0.772555308723    -0.676562718028    -0.282463004689    31.972071174400
         O            0.751657308723    -1.828528718028     0.627605995311    15.994914619570
         O            1.142704408723    -0.802378618028    -1.666070504689    15.994914619570
         N            1.745416308723     0.485790281972     0.392439995311    14.003074004430
         N           -1.840216691277    -0.738162718028     0.489274995311    14.003074004430
         N           -1.318260691277     1.120148281972    -0.641084004689    14.003074004430
         C           -0.872430691277    -0.040500718028    -0.168449004689    12.000000000000
         C            1.469454308723     0.777444281972     1.802577995311    12.000000000000
         C            1.969145308723     1.685988281972    -0.428507004689    12.000000000000
         C           -2.987828691277     0.007974281972     0.427890995311    12.000000000000
         C           -2.639323691277     1.150882281972    -0.269436004689    12.000000000000
         H            1.357180308723    -0.158417718028     2.348992995311     1.007825032230
         H            0.571243308723     1.398551281972     1.926189995311     1.007825032230
         H            2.332181308723     1.315750281972     2.200947995311     1.007825032230
         H            2.179607308723     1.381807281972    -1.452335004689     1.007825032230
         H            2.844816308723     2.195934281972    -0.020420004689     1.007825032230
         H            1.103205308723     2.357682281972    -0.412132004689     1.007825032230
         H           -1.692037691277    -1.644686718028     0.923111995311     1.007825032230
         H           -3.917441691277    -0.324737718028     0.866070995311     1.007825032230
         H           -3.271892691277     1.990764281972    -0.523675004689     1.007825032230

  Basis Set: AUG-CC-PVTZ
    Blend: AUG-CC-PVTZ
  Basis Set: (AUG-CC-PVTZ AUX)
    Blend: AUG-CC-PVTZ-JKFIT
	 Reference Energy          =    -905.3078367325971385 [Eh]
	 Singles Energy            =      -0.0000000000000000 [Eh]
	 Same-Spin Energy          =      -0.5970039369014618 [Eh]
	 Opposite-Spin Energy      =      -1.7743359007654158 [Eh]
	 Correlation Energy        =      -2.3713398376668775 [Eh]
	 Total Energy              =    -907.6791765702639623 [Eh]

	 ================> DF-SCS-MP2 Energies <==================
	-----------------------------------------------------------
	 SCS Same-Spin Scale       =       0.3333333333333333 [-]
	 SCS Opposite-Spin Scale   =       1.2000000000000000 [-]
	 SCS Same-Spin Energy      =      -0.1990013123004873 [Eh]
	 SCS Opposite-Spin Energy  =      -2.1292030809184990 [Eh]
	 SCS Correlation Energy    =      -2.3282043932189862 [Eh]
	 SCS Total Energy          =    -907.6360411258161776 [Eh]
	-----------------------------------------------------------

  Dipole Moment: [D]
     X:    -2.6412      Y:     1.8641      Z:     3.4724     Total:     4.7443

*** Psi4 exiting successfully. Buy a developer a beer!
