                               Psi4 1.3.2 release

  ==> Input File <==

--------------------------------------------------------------------------
#psi4
#
memory 32 gb

molecule  {
0 1
  S        0.7637890    -0.7221230    -0.3122950
  O        0.7428910    -1.8740890     0.5977740
  O        1.1390870    -0.8496890    -1.7151490
  N        1.7366500     0.4402300     0.3626080
  N       -1.8489830    -0.7837230     0.4594430
  N       -1.3327365     1.1173978    -0.6916627
  C       -0.8811970    -0.0860610    -0.1982810
  C        1.4606880     0.7318840     1.7727460
  C        1.9603790     1.6404280    -0.4583390
  C       -2.9965950    -0.0375860     0.3980590
  C       -2.6480900     1.1053220    -0.2992680
  H        1.3484140    -0.2039780     2.3191610
  H        0.5624770     1.3529910     1.8963580
  H        2.3234150     1.2701900     2.1711160
  H        2.1708410     1.3362470    -1.4821670
  H        2.8360500     2.1503740    -0.0502520
  H        1.0944390     2.3121220    -0.4419640
  H       -1.7008040    -1.6902470     0.8932800
  H       -3.9262080    -0.3702980     0.8362390
  H       -3.2806590     1.9452040    -0.5535070
units angstrom
no_reorient  #important for SAPT in psi4, default
symmetry c1  #important for SAPT in psi4, default
}

set PROPERTIES_ORIGIN ["COM"]
properties('MP2/aug-cc-pvtz', properties = ['dipole'])
--------------------------------------------------------------------------

    Molecular point group: c1
  Charge       = 0
  Multiplicity = 1
  Basis Set: AUG-CC-PVTZ
    Blend: AUG-CC-PVTZ
  Basis Set: (AUG-CC-PVTZ AUX)
    Blend: AUG-CC-PVTZ-JKFIT

    Orbital Energies [Eh]
    ---------------------

    Doubly Occupied:

       1A    -92.216319     2A    -20.558832     3A    -20.556002
       4A    -15.661119     5A    -15.611392     6A    -15.593477
       7A    -11.342761     8A    -11.292622     9A    -11.275243
      10A    -11.274769    11A    -11.266000    12A     -9.180738
      13A     -6.865963    14A     -6.865566    15A     -6.865139
      16A     -1.464406    17A     -1.365346    18A     -1.345422
      19A     -1.258027    20A     -1.195194    21A     -1.047616
      22A     -0.981680    23A     -0.959823    24A     -0.879597
      25A     -0.837534    26A     -0.819388    27A     -0.752108
      28A     -0.710602    29A     -0.675190    30A     -0.668278
      31A     -0.641827    32A     -0.633851    33A     -0.623800
      34A     -0.615201    35A     -0.604496    36A     -0.576996
      37A     -0.571069    38A     -0.541935    39A     -0.513654
      40A     -0.508111    41A     -0.483784    42A     -0.480285
      43A     -0.476560    44A     -0.428045    45A     -0.418946
      46A     -0.343299

  @DF-RHF Final Energy:  -905.29920104170094

   => Energetics <=

    Nuclear Repulsion Energy =            796.0533992425155247
    One-Electron Energy =               -2823.0091761323242281
    Two-Electron Energy =                1121.6565758481078774
    Total Energy =                       -905.2992010417008260
  Basis Set: (AUG-CC-PVTZ AUX)
    Blend: AUG-CC-PVTZ-RI
    Molecular point group: c1

    Geometry (in Angstrom), charge = 0, multiplicity = 1:

       Center              X                  Y                   Z               Mass
    ------------   -----------------  -----------------  -----------------  -----------------
         S            0.772541565329    -0.679827520613    -0.279044595132    31.972071174400
         O            0.751643565329    -1.831793520613     0.631024404868    15.994914619570
         O            1.147839565329    -0.807393520613    -1.681898595132    15.994914619570
         N            1.745402565329     0.482525479387     0.395858404868    14.003074004430
         N           -1.840230434671    -0.741427520613     0.492693404868    14.003074004430
         N           -1.323983934671     1.159693279387    -0.658412295132    14.003074004430
         C           -0.872444434671    -0.043765520613    -0.165030595132    12.000000000000
         C            1.469440565329     0.774179479387     1.805996404868    12.000000000000
         C            1.969131565329     1.682723479387    -0.425088595132    12.000000000000
         C           -2.987842434671     0.004709479387     0.431309404868    12.000000000000
         C           -2.639337434671     1.147617479387    -0.266017595132    12.000000000000
         H            1.357166565329    -0.161682520613     2.352411404868     1.007825032230
         H            0.571229565329     1.395286479387     1.929608404868     1.007825032230
         H            2.332167565329     1.312485479387     2.204366404868     1.007825032230
         H            2.179593565329     1.378542479387    -1.448916595132     1.007825032230
         H            2.844802565329     2.192669479387    -0.017001595132     1.007825032230
         H            1.103191565329     2.354417479387    -0.408713595132     1.007825032230
         H           -1.692051434671    -1.647951520613     0.926530404868     1.007825032230
         H           -3.917455434671    -0.328002520613     0.869489404868     1.007825032230
         H           -3.271906434671     1.987499479387    -0.520256595132     1.007825032230

  Basis Set: AUG-CC-PVTZ
    Blend: AUG-CC-PVTZ
  Basis Set: (AUG-CC-PVTZ AUX)
    Blend: AUG-CC-PVTZ-JKFIT
	 Reference Energy          =    -905.2992010417009396 [Eh]
	 Singles Energy            =      -0.0000000000000000 [Eh]
	 Same-Spin Energy          =      -0.5986929598267574 [Eh]
	 Opposite-Spin Energy      =      -1.7780219469374345 [Eh]
	 Correlation Energy        =      -2.3767149067641919 [Eh]
	 Total Energy              =    -907.6759159484651036 [Eh]

	 ================> DF-SCS-MP2 Energies <==================
	-----------------------------------------------------------
	 SCS Same-Spin Scale       =       0.3333333333333333 [-]
	 SCS Opposite-Spin Scale   =       1.2000000000000000 [-]
	 SCS Same-Spin Energy      =      -0.1995643199422525 [Eh]
	 SCS Opposite-Spin Energy  =      -2.1336263363249213 [Eh]
	 SCS Correlation Energy    =      -2.3331906562671736 [Eh]
	 SCS Total Energy          =    -907.6323916979681599 [Eh]
	-----------------------------------------------------------

  Dipole Moment: [D]
     X:    -2.7127      Y:     1.8094      Z:     3.6168     Total:     4.8697

*** Psi4 exiting successfully. Buy a developer a beer!
