                               Psi4 1.3.2 release

  ==> Input File <==

--------------------------------------------------------------------------
#psi4
#
memory 32 gb

molecule  {
0 1
  S        0.7637890    -0.7221230    -0.3122950
  O        0.7428910    -1.8740890     0.5977740
  O        1.1390870    -0.8496890    -1.7151490
  N        1.7366500     0.4402300     0.3626080
  N       -1.8489830    -0.7837230     0.4594430
  N       -1.3270270     1.0745880    -0.6709160
  C       -0.9801272     0.0137310    -0.2225391
  C        1.4606880     0.7318840     1.7727460
  C        1.9603790     1.6404280    -0.4583390
  C       -2.9965950    -0.0375860     0.3980590
  C       -2.6480900     1.1053220    -0.2992680
  H        1.3484140    -0.2039780     2.3191610
  H        0.5624770     1.3529910     1.8963580
  H        2.3234150     1.2701900     2.1711160
  H        2.1708410     1.3362470    -1.4821670
  H        2.8360500     2.1503740    -0.0502520
  H        1.0944390     2.3121220    -0.4419640
  H       -1.7008040    -1.6902470     0.8932800
  H       -3.9262080    -0.3702980     0.8362390
  H       -3.2806590     1.9452040    -0.5535070
units angstrom
no_reorient  #important for SAPT in psi4, default
symmetry c1  #important for SAPT in psi4, default
}

set PROPERTIES_ORIGIN ["COM"]
properties('MP2/aug-cc-pvtz', properties = ['dipole'])
--------------------------------------------------------------------------

    Molecular point group: c1
  Charge       = 0
  Multiplicity = 1
  Basis Set: AUG-CC-PVTZ
    Blend: AUG-CC-PVTZ
  Basis Set: (AUG-CC-PVTZ AUX)
    Blend: AUG-CC-PVTZ-JKFIT

    Orbital Energies [Eh]
    ---------------------

    Doubly Occupied:

       1A    -92.208814     2A    -20.558972     3A    -20.552719
       4A    -15.643911     5A    -15.608459     6A    -15.578355
       7A    -11.337938     8A    -11.292584     9A    -11.274884
      10A    -11.272425    11A    -11.266023    12A     -9.173305
      13A     -6.858367    14A     -6.857724    15A     -6.857654
      16A     -1.458803    17A     -1.397296    18A     -1.342860
      19A     -1.255767    20A     -1.232709    21A     -1.038770
      22A     -0.981043    23A     -0.953844    24A     -0.863060
      25A     -0.847654    26A     -0.824160    27A     -0.751292
      28A     -0.707454    29A     -0.675140    30A     -0.665381
      31A     -0.649455    32A     -0.640356    33A     -0.625167
      34A     -0.615976    35A     -0.610039    36A     -0.576383
      37A     -0.571174    38A     -0.541323    39A     -0.514595
      40A     -0.505532    41A     -0.501864    42A     -0.478096
      43A     -0.458440    44A     -0.448738    45A     -0.407288
      46A     -0.349171

  @DF-RHF Final Energy:  -905.28701902262571

   => Energetics <=

    Nuclear Repulsion Energy =            796.9961909020731810
    One-Electron Energy =               -2824.9044969213791774
    Two-Electron Energy =                1122.6212869966805101
    Total Energy =                       -905.2870190226256000
  Basis Set: (AUG-CC-PVTZ AUX)
    Blend: AUG-CC-PVTZ-RI
    Molecular point group: c1

    Geometry (in Angstrom), charge = 0, multiplicity = 1:

       Center              X                  Y                   Z               Mass
    ------------   -----------------  -----------------  -----------------  -----------------
         S            0.778866988427    -0.683244053490    -0.279041283778    31.972071174400
         O            0.757968988427    -1.835210053490     0.631027716222    15.994914619570
         O            1.154164988427    -0.810810053490    -1.681895283778    15.994914619570
         N            1.751727988427     0.479108946510     0.395861716222    14.003074004430
         N           -1.833905011573    -0.744844053490     0.492696716222    14.003074004430
         N           -1.311949011573     1.113466946510    -0.637662283778    14.003074004430
         C           -0.965049211573     0.052609946510    -0.189285383778    12.000000000000
         C            1.475765988427     0.770762946510     1.805999716222    12.000000000000
         C            1.975456988427     1.679306946510    -0.425085283778    12.000000000000
         C           -2.981517011573     0.001292946510     0.431312716222    12.000000000000
         C           -2.633012011573     1.144200946510    -0.266014283778    12.000000000000
         H            1.363491988427    -0.165099053490     2.352414716222     1.007825032230
         H            0.577554988427     1.391869946510     1.929611716222     1.007825032230
         H            2.338492988427     1.309068946510     2.204369716222     1.007825032230
         H            2.185918988427     1.375125946510    -1.448913283778     1.007825032230
         H            2.851127988427     2.189252946510    -0.016998283778     1.007825032230
         H            1.109516988427     2.351000946510    -0.408710283778     1.007825032230
         H           -1.685726011573    -1.651368053490     0.926533716222     1.007825032230
         H           -3.911130011573    -0.331419053490     0.869492716222     1.007825032230
         H           -3.265581011573     1.984082946510    -0.520253283778     1.007825032230

  Basis Set: AUG-CC-PVTZ
    Blend: AUG-CC-PVTZ
  Basis Set: (AUG-CC-PVTZ AUX)
    Blend: AUG-CC-PVTZ-JKFIT
	 Reference Energy          =    -905.2870190226257137 [Eh]
	 Singles Energy            =      -0.0000000000000000 [Eh]
	 Same-Spin Energy          =      -0.5943640630174232 [Eh]
	 Opposite-Spin Energy      =      -1.7710541172930199 [Eh]
	 Correlation Energy        =      -2.3654181803104430 [Eh]
	 Total Energy              =    -907.6524372029361984 [Eh]

	 ================> DF-SCS-MP2 Energies <==================
	-----------------------------------------------------------
	 SCS Same-Spin Scale       =       0.3333333333333333 [-]
	 SCS Opposite-Spin Scale   =       1.2000000000000000 [-]
	 SCS Same-Spin Energy      =      -0.1981213543391410 [Eh]
	 SCS Opposite-Spin Energy  =      -2.1252649407516238 [Eh]
	 SCS Correlation Energy    =      -2.3233862950907649 [Eh]
	 SCS Total Energy          =    -907.6104053177165270 [Eh]
	-----------------------------------------------------------

  Dipole Moment: [D]
     X:    -2.5463      Y:     1.9707      Z:     3.4710     Total:     4.7345

*** Psi4 exiting successfully. Buy a developer a beer!
