                               Psi4 1.3.2 release

  ==> Input File <==

--------------------------------------------------------------------------
#psi4
#
memory 32 gb

molecule  {
0 1
  S        0.7637890    -0.7221230    -0.3122950
  O        0.7428910    -1.8740890     0.5977740
  O        1.1390870    -0.8496890    -1.7151490
  N        1.7366500     0.4402300     0.3626080
  N       -1.8489830    -0.7837230     0.4594430
  N       -1.3270270     1.0745880    -0.6709160
  C       -0.7980482    -0.0648371    -0.2337134
  C        1.4606880     0.7318840     1.7727460
  C        1.9603790     1.6404280    -0.4583390
  C       -2.9965950    -0.0375860     0.3980590
  C       -2.6480900     1.1053220    -0.2992680
  H        1.3484140    -0.2039780     2.3191610
  H        0.5624770     1.3529910     1.8963580
  H        2.3234150     1.2701900     2.1711160
  H        2.1708410     1.3362470    -1.4821670
  H        2.8360500     2.1503740    -0.0502520
  H        1.0944390     2.3121220    -0.4419640
  H       -1.7008040    -1.6902470     0.8932800
  H       -3.9262080    -0.3702980     0.8362390
  H       -3.2806590     1.9452040    -0.5535070
units angstrom
no_reorient  #important for SAPT in psi4, default
symmetry c1  #important for SAPT in psi4, default
}

set PROPERTIES_ORIGIN ["COM"]
properties('MP2/aug-cc-pvtz', properties = ['dipole'])
--------------------------------------------------------------------------

    Molecular point group: c1
  Charge       = 0
  Multiplicity = 1
  Basis Set: AUG-CC-PVTZ
    Blend: AUG-CC-PVTZ
  Basis Set: (AUG-CC-PVTZ AUX)
    Blend: AUG-CC-PVTZ-JKFIT

    Orbital Energies [Eh]
    ---------------------

    Doubly Occupied:

       1A    -92.215873     2A    -20.560493     3A    -20.554079
       4A    -15.651980     5A    -15.609072     6A    -15.594842
       7A    -11.338720     8A    -11.301420     9A    -11.274376
      10A    -11.273709    11A    -11.266055    12A     -9.181159
      13A     -6.866581    14A     -6.865977    15A     -6.865531
      16A     -1.466658    17A     -1.351238    18A     -1.345292
      19A     -1.257656    20A     -1.190866    21A     -1.056995
      22A     -0.981151    23A     -0.964782    24A     -0.886967
      25A     -0.839405    26A     -0.798200    27A     -0.753302
      28A     -0.711686    29A     -0.681655    30A     -0.668976
      31A     -0.645178    32A     -0.627514    33A     -0.617451
      34A     -0.614181    35A     -0.607115    36A     -0.576817
      37A     -0.570592    38A     -0.541441    39A     -0.517156
      40A     -0.508447    41A     -0.487385    42A     -0.479819
      43A     -0.470233    44A     -0.429743    45A     -0.417428
      46A     -0.344723

  @DF-RHF Final Energy:  -905.29160207406278

   => Energetics <=

    Nuclear Repulsion Energy =            797.9798697794348072
    One-Electron Energy =               -2826.8831035067819357
    Two-Electron Energy =                1123.6116316532843484
    Total Energy =                       -905.2916020740626664
  Basis Set: (AUG-CC-PVTZ AUX)
    Blend: AUG-CC-PVTZ-RI
    Molecular point group: c1

    Geometry (in Angstrom), charge = 0, multiplicity = 1:

       Center              X                  Y                   Z               Mass
    ------------   -----------------  -----------------  -----------------  -----------------
         S            0.766384534813    -0.677857805411    -0.278275227937    31.972071174400
         O            0.745486534813    -1.829823805411     0.631793772063    15.994914619570
         O            1.141682534813    -0.805423805411    -1.681129227937    15.994914619570
         N            1.739245534813     0.484495194589     0.396627772063    14.003074004430
         N           -1.846387465187    -0.739457805411     0.493462772063    14.003074004430
         N           -1.324431465187     1.118853194589    -0.636896227937    14.003074004430
         C           -0.795452665187    -0.020571905411    -0.199693627937    12.000000000000
         C            1.463283534813     0.776149194589     1.806765772063    12.000000000000
         C            1.962974534813     1.684693194589    -0.424319227937    12.000000000000
         C           -2.993999465187     0.006679194589     0.432078772063    12.000000000000
         C           -2.645494465187     1.149587194589    -0.265248227937    12.000000000000
         H            1.351009534813    -0.159712805411     2.353180772063     1.007825032230
         H            0.565072534813     1.397256194589     1.930377772063     1.007825032230
         H            2.326010534813     1.314455194589     2.205135772063     1.007825032230
         H            2.173436534813     1.380512194589    -1.448147227937     1.007825032230
         H            2.838645534813     2.194639194589    -0.016232227937     1.007825032230
         H            1.097034534813     2.356387194589    -0.407944227937     1.007825032230
         H           -1.698208465187    -1.645981805411     0.927299772063     1.007825032230
         H           -3.923612465187    -0.326032805411     0.870258772063     1.007825032230
         H           -3.278063465187     1.989469194589    -0.519487227937     1.007825032230

  Basis Set: AUG-CC-PVTZ
    Blend: AUG-CC-PVTZ
  Basis Set: (AUG-CC-PVTZ AUX)
    Blend: AUG-CC-PVTZ-JKFIT
	 Reference Energy          =    -905.2916020740627800 [Eh]
	 Singles Energy            =      -0.0000000000000000 [Eh]
	 Same-Spin Energy          =      -0.5990616998901570 [Eh]
	 Opposite-Spin Energy      =      -1.7784374323943537 [Eh]
	 Correlation Energy        =      -2.3774991322845107 [Eh]
	 Total Energy              =    -907.6691012063472499 [Eh]

	 ================> DF-SCS-MP2 Energies <==================
	-----------------------------------------------------------
	 SCS Same-Spin Scale       =       0.3333333333333333 [-]
	 SCS Opposite-Spin Scale   =       1.2000000000000000 [-]
	 SCS Same-Spin Energy      =      -0.1996872332967190 [Eh]
	 SCS Opposite-Spin Energy  =      -2.1341249188732245 [Eh]
	 SCS Correlation Energy    =      -2.3338121521699433 [Eh]
	 SCS Total Energy          =    -907.6254142262326923 [Eh]
	-----------------------------------------------------------

  Dipole Moment: [D]
     X:    -2.7768      Y:     1.9709      Z:     3.5450     Total:     4.9154

*** Psi4 exiting successfully. Buy a developer a beer!
