                               Psi4 1.3.2 release

  ==> Input File <==

--------------------------------------------------------------------------
#psi4
#
memory 32 gb

molecule  {
0 1
  S        0.7637890    -0.7221230    -0.3122950
  O        0.7428910    -1.8740890     0.5977740
  O        1.1390870    -0.8496890    -1.7151490
  N        1.7366500     0.4402300     0.3626080
  N       -1.8489830    -0.7837230     0.4594430
  N       -1.3270270     1.0745880    -0.6709160
  C       -0.8811970    -0.0860610    -0.1982810
  C        1.4606880     0.7318840     1.7727460
  C        1.9603790     1.6404280    -0.4583390
  C       -3.0191183    -0.0291535     0.4002052
  C       -2.6480900     1.1053220    -0.2992680
  H        1.3484140    -0.2039780     2.3191610
  H        0.5624770     1.3529910     1.8963580
  H        2.3234150     1.2701900     2.1711160
  H        2.1708410     1.3362470    -1.4821670
  H        2.8360500     2.1503740    -0.0502520
  H        1.0944390     2.3121220    -0.4419640
  H       -1.7008040    -1.6902470     0.8932800
  H       -3.9262080    -0.3702980     0.8362390
  H       -3.2806590     1.9452040    -0.5535070
units angstrom
no_reorient  #important for SAPT in psi4, default
symmetry c1  #important for SAPT in psi4, default
}

set PROPERTIES_ORIGIN ["COM"]
properties('MP2/aug-cc-pvtz', properties = ['dipole'])
--------------------------------------------------------------------------

    Molecular point group: c1
  Charge       = 0
  Multiplicity = 1
  Basis Set: AUG-CC-PVTZ
    Blend: AUG-CC-PVTZ
  Basis Set: (AUG-CC-PVTZ AUX)
    Blend: AUG-CC-PVTZ-JKFIT

    Orbital Energies [Eh]
    ---------------------

    Doubly Occupied:

       1A    -92.216376     2A    -20.558812     3A    -20.556501
       4A    -15.653922     5A    -15.611835     6A    -15.586158
       7A    -11.339412     8A    -11.293117     9A    -11.275532
      10A    -11.275182    11A    -11.266411    12A     -9.180912
      13A     -6.866135    14A     -6.865722    15A     -6.865299
      16A     -1.464738    17A     -1.365118    18A     -1.345722
      19A     -1.258424    20A     -1.195624    21A     -1.050164
      22A     -0.982026    23A     -0.960844    24A     -0.877851
      25A     -0.838812    26A     -0.816985    27A     -0.753030
      28A     -0.710735    29A     -0.675757    30A     -0.668834
      31A     -0.641709    32A     -0.637043    33A     -0.623371
      34A     -0.615167    35A     -0.607795    36A     -0.577421
      37A     -0.571344    38A     -0.542244    39A     -0.514440
      40A     -0.508090    41A     -0.486096    42A     -0.480346
      43A     -0.471782    44A     -0.427435    45A     -0.418422
      46A     -0.347590

  @DF-RHF Final Energy:  -905.30471143144473

   => Energetics <=

    Nuclear Repulsion Energy =            796.8950366031248222
    One-Electron Energy =               -2824.7069269930898372
    Two-Electron Energy =                1122.5071789585201714
    Total Energy =                       -905.3047114314447299
  Basis Set: (AUG-CC-PVTZ AUX)
    Blend: AUG-CC-PVTZ-RI
    Molecular point group: c1

    Geometry (in Angstrom), charge = 0, multiplicity = 1:

       Center              X                  Y                   Z               Mass
    ------------   -----------------  -----------------  -----------------  -----------------
         S            0.773628901744    -0.676980889033    -0.280851434591    31.972071174400
         O            0.752730901744    -1.828946889033     0.629217565409    15.994914619570
         O            1.148926901744    -0.804546889033    -1.683705434591    15.994914619570
         N            1.746489901744     0.485372110967     0.394051565409    14.003074004430
         N           -1.839143098256    -0.738580889033     0.490886565409    14.003074004430
         N           -1.317187098256     1.119730110967    -0.639472434591    14.003074004430
         C           -0.871357098256    -0.040918889033    -0.166837434591    12.000000000000
         C            1.470527901744     0.777026110967     1.804189565409    12.000000000000
         C            1.970218901744     1.685570110967    -0.426895434591    12.000000000000
         C           -3.009278398256     0.015988610967     0.431648765409    12.000000000000
         C           -2.638250098256     1.150464110967    -0.267824434591    12.000000000000
         H            1.358253901744    -0.158835889033     2.350604565409     1.007825032230
         H            0.572316901744     1.398133110967     1.927801565409     1.007825032230
         H            2.333254901744     1.315332110967     2.202559565409     1.007825032230
         H            2.180680901744     1.381389110967    -1.450723434591     1.007825032230
         H            2.845889901744     2.195516110967    -0.018808434591     1.007825032230
         H            1.104278901744     2.357264110967    -0.410520434591     1.007825032230
         H           -1.690964098256    -1.645104889033     0.924723565409     1.007825032230
         H           -3.916368098256    -0.325155889033     0.867682565409     1.007825032230
         H           -3.270819098256     1.990346110967    -0.522063434591     1.007825032230

  Basis Set: AUG-CC-PVTZ
    Blend: AUG-CC-PVTZ
  Basis Set: (AUG-CC-PVTZ AUX)
    Blend: AUG-CC-PVTZ-JKFIT
	 Reference Energy          =    -905.3047114314447299 [Eh]
	 Singles Energy            =      -0.0000000000000000 [Eh]
	 Same-Spin Energy          =      -0.5973900697553951 [Eh]
	 Opposite-Spin Energy      =      -1.7757781397169696 [Eh]
	 Correlation Energy        =      -2.3731682094723645 [Eh]
	 Total Energy              =    -907.6778796409171264 [Eh]

	 ================> DF-SCS-MP2 Energies <==================
	-----------------------------------------------------------
	 SCS Same-Spin Scale       =       0.3333333333333333 [-]
	 SCS Opposite-Spin Scale   =       1.2000000000000000 [-]
	 SCS Same-Spin Energy      =      -0.1991300232517983 [Eh]
	 SCS Opposite-Spin Energy  =      -2.1309337676603635 [Eh]
	 SCS Correlation Energy    =      -2.3300637909121620 [Eh]
	 SCS Total Energy          =    -907.6347752223568932 [Eh]
	-----------------------------------------------------------

  Dipole Moment: [D]
     X:    -2.6689      Y:     1.9079      Z:     3.5619     Total:     4.8425

*** Psi4 exiting successfully. Buy a developer a beer!
