                               Psi4 1.3.2 release

  ==> Input File <==

--------------------------------------------------------------------------
#psi4
#
memory 32 gb

molecule  {
0 1
  S        0.7637890    -0.7221230    -0.3122950
  O        0.7428910    -1.8740890     0.5977740
  O        1.1390870    -0.8496890    -1.7151490
  N        1.7366500     0.4402300     0.3626080
  N       -1.8489830    -0.7837230     0.4594430
  N       -1.3270270     1.0745880    -0.6709160
  C       -0.8811970    -0.0860610    -0.1982810
  C        1.4606880     0.7318840     1.7727460
  C        1.9603790     1.6404280    -0.4583390
  C       -3.0080716    -0.0546124     0.4103185
  C       -2.6480900     1.1053220    -0.2992680
  H        1.3484140    -0.2039780     2.3191610
  H        0.5624770     1.3529910     1.8963580
  H        2.3234150     1.2701900     2.1711160
  H        2.1708410     1.3362470    -1.4821670
  H        2.8360500     2.1503740    -0.0502520
  H        1.0944390     2.3121220    -0.4419640
  H       -1.7008040    -1.6902470     0.8932800
  H       -3.9262080    -0.3702980     0.8362390
  H       -3.2806590     1.9452040    -0.5535070
units angstrom
no_reorient  #important for SAPT in psi4, default
symmetry c1  #important for SAPT in psi4, default
}

set PROPERTIES_ORIGIN ["COM"]
properties('MP2/aug-cc-pvtz', properties = ['dipole'])
--------------------------------------------------------------------------

    Molecular point group: c1
  Charge       = 0
  Multiplicity = 1
  Basis Set: AUG-CC-PVTZ
    Blend: AUG-CC-PVTZ
  Basis Set: (AUG-CC-PVTZ AUX)
    Blend: AUG-CC-PVTZ-JKFIT

    Orbital Energies [Eh]
    ---------------------

    Doubly Occupied:

       1A    -92.215867     2A    -20.558387     3A    -20.555871
       4A    -15.656749     5A    -15.611297     6A    -15.587640
       7A    -11.337247     8A    -11.294448     9A    -11.276621
      10A    -11.275249    11A    -11.266157    12A     -9.180355
      13A     -6.865575    14A     -6.865174    15A     -6.864750
      16A     -1.464271    17A     -1.368834    18A     -1.345323
      19A     -1.258008    20A     -1.199394    21A     -1.047961
      22A     -0.981719    23A     -0.959440    24A     -0.876534
      25A     -0.840613    26A     -0.820132    27A     -0.753672
      28A     -0.710642    29A     -0.679090    30A     -0.668329
      31A     -0.642949    32A     -0.632265    33A     -0.624803
      34A     -0.615520    35A     -0.609733    36A     -0.577219
      37A     -0.571108    38A     -0.541953    39A     -0.513991
      40A     -0.507904    41A     -0.485473    42A     -0.479963
      43A     -0.471722    44A     -0.430012    45A     -0.418047
      46A     -0.342749

  @DF-RHF Final Energy:  -905.30409089846421

   => Energetics <=

    Nuclear Repulsion Energy =            797.0484043876959959
    One-Electron Energy =               -2825.0034652968288356
    Two-Electron Energy =                1122.6509700106687433
    Total Energy =                       -905.3040908984642101
  Basis Set: (AUG-CC-PVTZ AUX)
    Blend: AUG-CC-PVTZ-RI
    Molecular point group: c1

    Geometry (in Angstrom), charge = 0, multiplicity = 1:

       Center              X                  Y                   Z               Mass
    ------------   -----------------  -----------------  -----------------  -----------------
         S            0.772871593541    -0.675235550261    -0.281544753415    31.972071174400
         O            0.751973593541    -1.827201550261     0.628524246585    15.994914619570
         O            1.148169593541    -0.802801550261    -1.684398753415    15.994914619570
         N            1.745732593541     0.487117449739     0.393358246585    14.003074004430
         N           -1.839900406459    -0.736835550261     0.490193246585    14.003074004430
         N           -1.317944406459     1.121475449739    -0.640165753415    14.003074004430
         C           -0.872114406459    -0.039173550261    -0.167530753415    12.000000000000
         C            1.469770593541     0.778771449739     1.803496246585    12.000000000000
         C            1.969461593541     1.687315449739    -0.427588753415    12.000000000000
         C           -2.998989006459    -0.007724950261     0.441068746585    12.000000000000
         C           -2.639007406459     1.152209449739    -0.268517753415    12.000000000000
         H            1.357496593541    -0.157090550261     2.349911246585     1.007825032230
         H            0.571559593541     1.399878449739     1.927108246585     1.007825032230
         H            2.332497593541     1.317077449739     2.201866246585     1.007825032230
         H            2.179923593541     1.383134449739    -1.451416753415     1.007825032230
         H            2.845132593541     2.197261449739    -0.019501753415     1.007825032230
         H            1.103521593541     2.359009449739    -0.411213753415     1.007825032230
         H           -1.691721406459    -1.643359550261     0.924030246585     1.007825032230
         H           -3.917125406459    -0.323410550261     0.866989246585     1.007825032230
         H           -3.271576406459     1.992091449739    -0.522756753415     1.007825032230

  Basis Set: AUG-CC-PVTZ
    Blend: AUG-CC-PVTZ
  Basis Set: (AUG-CC-PVTZ AUX)
    Blend: AUG-CC-PVTZ-JKFIT
	 Reference Energy          =    -905.3040908984642101 [Eh]
	 Singles Energy            =      -0.0000000000000000 [Eh]
	 Same-Spin Energy          =      -0.5978047743425284 [Eh]
	 Opposite-Spin Energy      =      -1.7760518319051348 [Eh]
	 Correlation Energy        =      -2.3738566062476631 [Eh]
	 Total Energy              =    -907.6779475047118240 [Eh]

	 ================> DF-SCS-MP2 Energies <==================
	-----------------------------------------------------------
	 SCS Same-Spin Scale       =       0.3333333333333333 [-]
	 SCS Opposite-Spin Scale   =       1.2000000000000000 [-]
	 SCS Same-Spin Energy      =      -0.1992682581141761 [Eh]
	 SCS Opposite-Spin Energy  =      -2.1312621982861617 [Eh]
	 SCS Correlation Energy    =      -2.3305304564003380 [Eh]
	 SCS Total Energy          =    -907.6346213548645210 [Eh]
	-----------------------------------------------------------

  Dipole Moment: [D]
     X:    -2.6780      Y:     1.8837      Z:     3.5734     Total:     4.8466

*** Psi4 exiting successfully. Buy a developer a beer!
