                               Psi4 1.3.2 release

  ==> Input File <==

--------------------------------------------------------------------------
#psi4
#
memory 32 gb

molecule  {
0 1
  S        0.7637890    -0.7221230    -0.3122950
  O        0.7428910    -1.8740890     0.5977740
  O        1.1390870    -0.8496890    -1.7151490
  N        1.7366500     0.4402300     0.3626080
  N       -1.8374803    -0.7666488     0.4472749
  N       -1.3270270     1.0745880    -0.6709160
  C       -0.8811970    -0.0860610    -0.1982810
  C        1.4606880     0.7318840     1.7727460
  C        1.9603790     1.6404280    -0.4583390
  C       -2.9965950    -0.0375860     0.3980590
  C       -2.6480900     1.1053220    -0.2992680
  H        1.3484140    -0.2039780     2.3191610
  H        0.5624770     1.3529910     1.8963580
  H        2.3234150     1.2701900     2.1711160
  H        2.1708410     1.3362470    -1.4821670
  H        2.8360500     2.1503740    -0.0502520
  H        1.0944390     2.3121220    -0.4419640
  H       -1.7008040    -1.6902470     0.8932800
  H       -3.9262080    -0.3702980     0.8362390
  H       -3.2806590     1.9452040    -0.5535070
units angstrom
no_reorient  #important for SAPT in psi4, default
symmetry c1  #important for SAPT in psi4, default
}

set PROPERTIES_ORIGIN ["COM"]
properties('MP2/aug-cc-pvtz', properties = ['dipole'])
--------------------------------------------------------------------------

    Molecular point group: c1
  Charge       = 0
  Multiplicity = 1
  Basis Set: AUG-CC-PVTZ
    Blend: AUG-CC-PVTZ
  Basis Set: (AUG-CC-PVTZ AUX)
    Blend: AUG-CC-PVTZ-JKFIT

    Orbital Energies [Eh]
    ---------------------

    Doubly Occupied:

       1A    -92.216036     2A    -20.558820     3A    -20.556123
       4A    -15.656381     5A    -15.611458     6A    -15.583439
       7A    -11.335432     8A    -11.291230     9A    -11.275406
      10A    -11.273248    11A    -11.266015    12A     -9.180579
      13A     -6.865797    14A     -6.865393    15A     -6.864971
      16A     -1.464766    17A     -1.375022    18A     -1.345722
      19A     -1.258136    20A     -1.196252    21A     -1.052089
      22A     -0.981766    23A     -0.960001    24A     -0.875184
      25A     -0.838586    26A     -0.821244    27A     -0.753087
      28A     -0.710969    29A     -0.677352    30A     -0.668455
      31A     -0.643549    32A     -0.630969    33A     -0.627649
      34A     -0.616192    35A     -0.608791    36A     -0.577354
      37A     -0.571113    38A     -0.541992    39A     -0.514274
      40A     -0.508095    41A     -0.484848    42A     -0.480249
      43A     -0.470330    44A     -0.427366    45A     -0.418184
      46A     -0.346962

  @DF-RHF Final Energy:  -905.30538428528837

   => Energetics <=

    Nuclear Repulsion Energy =            798.1240010320710780
    One-Electron Energy =               -2827.1650192152610543
    Two-Electron Energy =                1123.7356338979013799
    Total Energy =                       -905.3053842852884827
  Basis Set: (AUG-CC-PVTZ AUX)
    Blend: AUG-CC-PVTZ-RI
    Molecular point group: c1

    Geometry (in Angstrom), charge = 0, multiplicity = 1:

       Center              X                  Y                   Z               Mass
    ------------   -----------------  -----------------  -----------------  -----------------
         S            0.771164613894    -0.677768709342    -0.279730870889    31.972071174400
         O            0.750266613894    -1.829734709342     0.630338129111    15.994914619570
         O            1.146462613894    -0.805334709342    -1.682584870889    15.994914619570
         N            1.744025613894     0.484584290658     0.395172129111    14.003074004430
         N           -1.830104686106    -0.722294509342     0.479839029111    14.003074004430
         N           -1.319651386106     1.118942290658    -0.638351870889    14.003074004430
         C           -0.873821386106    -0.041706709342    -0.165716870889    12.000000000000
         C            1.468063613894     0.776238290658     1.805310129111    12.000000000000
         C            1.967754613894     1.684782290658    -0.425774870889    12.000000000000
         C           -2.989219386106     0.006768290658     0.430623129111    12.000000000000
         C           -2.640714386106     1.149676290658    -0.266703870889    12.000000000000
         H            1.355789613894    -0.159623709342     2.351725129111     1.007825032230
         H            0.569852613894     1.397345290658     1.928922129111     1.007825032230
         H            2.330790613894     1.314544290658     2.203680129111     1.007825032230
         H            2.178216613894     1.380601290658    -1.449602870889     1.007825032230
         H            2.843425613894     2.194728290658    -0.017687870889     1.007825032230
         H            1.101814613894     2.356476290658    -0.409399870889     1.007825032230
         H           -1.693428386106    -1.645892709342     0.925844129111     1.007825032230
         H           -3.918832386106    -0.325943709342     0.868803129111     1.007825032230
         H           -3.273283386106     1.989558290658    -0.520942870889     1.007825032230

  Basis Set: AUG-CC-PVTZ
    Blend: AUG-CC-PVTZ
  Basis Set: (AUG-CC-PVTZ AUX)
    Blend: AUG-CC-PVTZ-JKFIT
	 Reference Energy          =    -905.3053842852883690 [Eh]
	 Singles Energy            =      -0.0000000000000000 [Eh]
	 Same-Spin Energy          =      -0.5975455550870141 [Eh]
	 Opposite-Spin Energy      =      -1.7752416349736824 [Eh]
	 Correlation Energy        =      -2.3727871900606967 [Eh]
	 Total Energy              =    -907.6781714753490178 [Eh]

	 ================> DF-SCS-MP2 Energies <==================
	-----------------------------------------------------------
	 SCS Same-Spin Scale       =       0.3333333333333333 [-]
	 SCS Opposite-Spin Scale   =       1.2000000000000000 [-]
	 SCS Same-Spin Energy      =      -0.1991818516956714 [Eh]
	 SCS Opposite-Spin Energy  =      -2.1302899619684186 [Eh]
	 SCS Correlation Energy    =      -2.3294718136640897 [Eh]
	 SCS Total Energy          =    -907.6348560989524685 [Eh]
	-----------------------------------------------------------

  Dipole Moment: [D]
     X:    -2.6804      Y:     1.8410      Z:     3.5961     Total:     4.8482

*** Psi4 exiting successfully. Buy a developer a beer!
