                               Psi4 1.3.2 release

  ==> Input File <==

--------------------------------------------------------------------------
#psi4
#
memory 32 gb

molecule  {
0 1
  S        0.7637890    -0.7221230    -0.3122950
  O        0.7674818    -1.8786549     0.5921983
  O        1.1390870    -0.8496890    -1.7151490
  N        1.7366500     0.4402300     0.3626080
  N       -1.8489830    -0.7837230     0.4594430
  N       -1.3270270     1.0745880    -0.6709160
  C       -0.8811970    -0.0860610    -0.1982810
  C        1.4606880     0.7318840     1.7727460
  C        1.9603790     1.6404280    -0.4583390
  C       -2.9965950    -0.0375860     0.3980590
  C       -2.6480900     1.1053220    -0.2992680
  H        1.3484140    -0.2039780     2.3191610
  H        0.5624770     1.3529910     1.8963580
  H        2.3234150     1.2701900     2.1711160
  H        2.1708410     1.3362470    -1.4821670
  H        2.8360500     2.1503740    -0.0502520
  H        1.0944390     2.3121220    -0.4419640
  H       -1.7008040    -1.6902470     0.8932800
  H       -3.9262080    -0.3702980     0.8362390
  H       -3.2806590     1.9452040    -0.5535070
units angstrom
no_reorient  #important for SAPT in psi4, default
symmetry c1  #important for SAPT in psi4, default
}

set PROPERTIES_ORIGIN ["COM"]
properties('MP2/aug-cc-pvtz', properties = ['dipole'])
--------------------------------------------------------------------------

    Molecular point group: c1
  Charge       = 0
  Multiplicity = 1
  Basis Set: AUG-CC-PVTZ
    Blend: AUG-CC-PVTZ
  Basis Set: (AUG-CC-PVTZ AUX)
    Blend: AUG-CC-PVTZ-JKFIT

    Orbital Energies [Eh]
    ---------------------

    Doubly Occupied:

       1A    -92.215452     2A    -20.558135     3A    -20.554928
       4A    -15.656150     5A    -15.610679     6A    -15.587586
       7A    -11.338706     8A    -11.293908     9A    -11.275101
      10A    -11.274309    11A    -11.265725    12A     -9.180015
      13A     -6.865236    14A     -6.864808    15A     -6.864416
      16A     -1.463899    17A     -1.370882    18A     -1.344386
      19A     -1.257544    20A     -1.199586    21A     -1.050999
      22A     -0.981438    23A     -0.959907    24A     -0.877576
      25A     -0.841436    26A     -0.819157    27A     -0.752587
      28A     -0.710314    29A     -0.677154    30A     -0.667661
      31A     -0.643041    32A     -0.633271    33A     -0.625536
      34A     -0.617158    35A     -0.608843    36A     -0.577042
      37A     -0.570877    38A     -0.541619    39A     -0.513707
      40A     -0.507037    41A     -0.485921    42A     -0.479031
      43A     -0.471756    44A     -0.430100    45A     -0.417858
      46A     -0.346837

  @DF-RHF Final Energy:  -905.30595703144070

   => Energetics <=

    Nuclear Repulsion Energy =            797.2746285820777530
    One-Electron Energy =               -2825.4625430359683378
    Two-Electron Energy =                1122.8819574224501139
    Total Energy =                       -905.3059570314405846
  Basis Set: (AUG-CC-PVTZ AUX)
    Blend: AUG-CC-PVTZ-RI
    Molecular point group: c1

    Geometry (in Angstrom), charge = 0, multiplicity = 1:

       Center              X                  Y                   Z               Mass
    ------------   -----------------  -----------------  -----------------  -----------------
         S            0.769837759841    -0.675985575732    -0.280194806225    31.972071174400
         O            0.773530559841    -1.832517475732     0.624298493775    15.994914619570
         O            1.145135759841    -0.803551575732    -1.683048806225    15.994914619570
         N            1.742698759841     0.486367424268     0.394708193775    14.003074004430
         N           -1.842934240159    -0.737585575732     0.491543193775    14.003074004430
         N           -1.320978240159     1.120725424268    -0.638815806225    14.003074004430
         C           -0.875148240159    -0.039923575732    -0.166180806225    12.000000000000
         C            1.466736759841     0.778021424268     1.804846193775    12.000000000000
         C            1.966427759841     1.686565424268    -0.426238806225    12.000000000000
         C           -2.990546240159     0.008551424268     0.430159193775    12.000000000000
         C           -2.642041240159     1.151459424268    -0.267167806225    12.000000000000
         H            1.354462759841    -0.157840575732     2.351261193775     1.007825032230
         H            0.568525759841     1.399128424268     1.928458193775     1.007825032230
         H            2.329463759841     1.316327424268     2.203216193775     1.007825032230
         H            2.176889759841     1.382384424268    -1.450066806225     1.007825032230
         H            2.842098759841     2.196511424268    -0.018151806225     1.007825032230
         H            1.100487759841     2.358259424268    -0.409863806225     1.007825032230
         H           -1.694755240159    -1.644109575732     0.925380193775     1.007825032230
         H           -3.920159240159    -0.324160575732     0.868339193775     1.007825032230
         H           -3.274610240159     1.991341424268    -0.521406806225     1.007825032230

  Basis Set: AUG-CC-PVTZ
    Blend: AUG-CC-PVTZ
  Basis Set: (AUG-CC-PVTZ AUX)
    Blend: AUG-CC-PVTZ-JKFIT
	 Reference Energy          =    -905.3059570314406983 [Eh]
	 Singles Energy            =      -0.0000000000000000 [Eh]
	 Same-Spin Energy          =      -0.5974368551637811 [Eh]
	 Opposite-Spin Energy      =      -1.7753974240594372 [Eh]
	 Correlation Energy        =      -2.3728342792232184 [Eh]
	 Total Energy              =    -907.6787913106638825 [Eh]

	 ================> DF-SCS-MP2 Energies <==================
	-----------------------------------------------------------
	 SCS Same-Spin Scale       =       0.3333333333333333 [-]
	 SCS Opposite-Spin Scale   =       1.2000000000000000 [-]
	 SCS Same-Spin Energy      =      -0.1991456183879270 [Eh]
	 SCS Opposite-Spin Energy  =      -2.1304769088713247 [Eh]
	 SCS Correlation Energy    =      -2.3296225272592519 [Eh]
	 SCS Total Energy          =    -907.6355795586999875 [Eh]
	-----------------------------------------------------------

  Dipole Moment: [D]
     X:    -2.7643      Y:     1.9040      Z:     3.5838     Total:     4.9102

*** Psi4 exiting successfully. Buy a developer a beer!
