                               Psi4 1.3.2 release

  ==> Input File <==

--------------------------------------------------------------------------
#psi4
#
memory 32 gb

molecule  {
0 1
  S        0.8071529    -0.5668193    -0.4029737
  O        0.7428910    -1.8740890     0.5977740
  O        1.1390870    -0.8496890    -1.7151490
  N        1.7366500     0.4402300     0.3626080
  N       -1.8489830    -0.7837230     0.4594430
  N       -1.3270270     1.0745880    -0.6709160
  C       -0.8811970    -0.0860610    -0.1982810
  C        1.4606880     0.7318840     1.7727460
  C        1.9603790     1.6404280    -0.4583390
  C       -2.9965950    -0.0375860     0.3980590
  C       -2.6480900     1.1053220    -0.2992680
  H        1.3484140    -0.2039780     2.3191610
  H        0.5624770     1.3529910     1.8963580
  H        2.3234150     1.2701900     2.1711160
  H        2.1708410     1.3362470    -1.4821670
  H        2.8360500     2.1503740    -0.0502520
  H        1.0944390     2.3121220    -0.4419640
  H       -1.7008040    -1.6902470     0.8932800
  H       -3.9262080    -0.3702980     0.8362390
  H       -3.2806590     1.9452040    -0.5535070
units angstrom
no_reorient  #important for SAPT in psi4, default
symmetry c1  #important for SAPT in psi4, default
}

set PROPERTIES_ORIGIN ["COM"]
properties('MP2/aug-cc-pvtz', properties = ['dipole'])
--------------------------------------------------------------------------

    Molecular point group: c1
  Charge       = 0
  Multiplicity = 1
  Basis Set: AUG-CC-PVTZ
    Blend: AUG-CC-PVTZ
  Basis Set: (AUG-CC-PVTZ AUX)
    Blend: AUG-CC-PVTZ-JKFIT

    Orbital Energies [Eh]
    ---------------------

    Doubly Occupied:

       1A    -92.206842     2A    -20.572931     3A    -20.513376
       4A    -15.652666     5A    -15.626662     6A    -15.585199
       7A    -11.336828     8A    -11.292463     9A    -11.285597
      10A    -11.279920    11A    -11.271029    12A     -9.175247
      13A     -6.860301    14A     -6.859813    15A     -6.859114
      16A     -1.485918    17A     -1.369522    18A     -1.314329
      19A     -1.242609    20A     -1.196981    21A     -1.047434
      22A     -0.998345    23A     -0.978078    24A     -0.883071
      25A     -0.834638    26A     -0.819762    27A     -0.759408
      28A     -0.714858    29A     -0.687598    30A     -0.678293
      31A     -0.647374    32A     -0.632276    33A     -0.625770
      34A     -0.613074    35A     -0.607272    36A     -0.584744
      37A     -0.579009    38A     -0.556109    39A     -0.525787
      40A     -0.484734    41A     -0.480440    42A     -0.438870
      43A     -0.436027    44A     -0.434235    45A     -0.427055
      46A     -0.345326

  @DF-RHF Final Energy:  -905.25741302086544

   => Energetics <=

    Nuclear Repulsion Energy =            798.7041772939469411
    One-Electron Energy =               -2828.3093113931108746
    Two-Electron Energy =                1124.3477210782984912
    Total Energy =                       -905.2574130208654424
  Basis Set: (AUG-CC-PVTZ AUX)
    Blend: AUG-CC-PVTZ-RI
    Molecular point group: c1

    Geometry (in Angstrom), charge = 0, multiplicity = 1:

       Center              X                  Y                   Z               Mass
    ------------   -----------------  -----------------  -----------------  -----------------
         S            0.807528115681    -0.549465968403    -0.354820157511    31.972071174400
         O            0.743266215681    -1.856735668403     0.645927542489    15.994914619570
         O            1.139462215681    -0.832335668403    -1.666995457511    15.994914619570
         N            1.737025215681     0.457583331597     0.410761542489    14.003074004430
         N           -1.848607784319    -0.766369668403     0.507596542489    14.003074004430
         N           -1.326651784319     1.091941331597    -0.622762457511    14.003074004430
         C           -0.880821784319    -0.068707668403    -0.150127457511    12.000000000000
         C            1.461063215681     0.749237331597     1.820899542489    12.000000000000
         C            1.960754215681     1.657781331597    -0.410185457511    12.000000000000
         C           -2.996219784319    -0.020232668403     0.446212542489    12.000000000000
         C           -2.647714784319     1.122675331597    -0.251114457511    12.000000000000
         H            1.348789215681    -0.186624668403     2.367314542489     1.007825032230
         H            0.562852215681     1.370344331597     1.944511542489     1.007825032230
         H            2.323790215681     1.287543331597     2.219269542489     1.007825032230
         H            2.171216215681     1.353600331597    -1.434013457511     1.007825032230
         H            2.836425215681     2.167727331597    -0.002098457511     1.007825032230
         H            1.094814215681     2.329475331597    -0.393810457511     1.007825032230
         H           -1.700428784319    -1.672893668403     0.941433542489     1.007825032230
         H           -3.925832784319    -0.352944668403     0.884392542489     1.007825032230
         H           -3.280283784319     1.962557331597    -0.505353457511     1.007825032230

  Basis Set: AUG-CC-PVTZ
    Blend: AUG-CC-PVTZ
  Basis Set: (AUG-CC-PVTZ AUX)
    Blend: AUG-CC-PVTZ-JKFIT
	 Reference Energy          =    -905.2574130208654424 [Eh]
	 Singles Energy            =      -0.0000000000000000 [Eh]
	 Same-Spin Energy          =      -0.5983196771052867 [Eh]
	 Opposite-Spin Energy      =      -1.7777352486180542 [Eh]
	 Correlation Energy        =      -2.3760549257233410 [Eh]
	 Total Energy              =    -907.6334679465887803 [Eh]

	 ================> DF-SCS-MP2 Energies <==================
	-----------------------------------------------------------
	 SCS Same-Spin Scale       =       0.3333333333333333 [-]
	 SCS Opposite-Spin Scale   =       1.2000000000000000 [-]
	 SCS Same-Spin Energy      =      -0.1994398923684289 [Eh]
	 SCS Opposite-Spin Energy  =      -2.1332822983416651 [Eh]
	 SCS Correlation Energy    =      -2.3327221907100939 [Eh]
	 SCS Total Energy          =    -907.5901352115755572 [Eh]
	-----------------------------------------------------------

  Dipole Moment: [D]
     X:    -2.1699      Y:     3.3748      Z:     2.9115     Total:     4.9572

*** Psi4 exiting successfully. Buy a developer a beer!
