                               Psi4 1.3.2 release

  ==> Input File <==

--------------------------------------------------------------------------
#psi4
#
memory 32 gb

molecule  {
0 1
  S        0.7637890    -0.7221230    -0.3122950
  O        0.7428910    -1.8740890     0.5977740
  O        1.0875980    -0.8321876    -1.5226845
  N        1.7366500     0.4402300     0.3626080
  N       -1.8489830    -0.7837230     0.4594430
  N       -1.3270270     1.0745880    -0.6709160
  C       -0.8811970    -0.0860610    -0.1982810
  C        1.4606880     0.7318840     1.7727460
  C        1.9603790     1.6404280    -0.4583390
  C       -2.9965950    -0.0375860     0.3980590
  C       -2.6480900     1.1053220    -0.2992680
  H        1.3484140    -0.2039780     2.3191610
  H        0.5624770     1.3529910     1.8963580
  H        2.3234150     1.2701900     2.1711160
  H        2.1708410     1.3362470    -1.4821670
  H        2.8360500     2.1503740    -0.0502520
  H        1.0944390     2.3121220    -0.4419640
  H       -1.7008040    -1.6902470     0.8932800
  H       -3.9262080    -0.3702980     0.8362390
  H       -3.2806590     1.9452040    -0.5535070
units angstrom
no_reorient  #important for SAPT in psi4, default
symmetry c1  #important for SAPT in psi4, default
}

set PROPERTIES_ORIGIN ["COM"]
properties('MP2/aug-cc-pvtz', properties = ['dipole'])
--------------------------------------------------------------------------

    Molecular point group: c1
  Charge       = 0
  Multiplicity = 1
  Basis Set: AUG-CC-PVTZ
    Blend: AUG-CC-PVTZ
  Basis Set: (AUG-CC-PVTZ AUX)
    Blend: AUG-CC-PVTZ-JKFIT

    Orbital Energies [Eh]
    ---------------------

    Doubly Occupied:

       1A    -92.186327     2A    -20.560579     3A    -20.542240
       4A    -15.647695     5A    -15.598380     6A    -15.579946
       7A    -11.325605     8A    -11.286840     9A    -11.268120
      10A    -11.267262    11A    -11.264502    12A     -9.160858
      13A     -6.848458    14A     -6.844361    15A     -6.843846
      16A     -1.570812    17A     -1.375247    18A     -1.357042
      19A     -1.251983    20A     -1.192333    21A     -1.042645
      22A     -0.976806    23A     -0.948177    24A     -0.876394
      25A     -0.834794    26A     -0.812604    27A     -0.756393
      28A     -0.733008    29A     -0.690079    30A     -0.683762
      31A     -0.647719    32A     -0.628546    33A     -0.621980
      34A     -0.619262    35A     -0.608712    36A     -0.591776
      37A     -0.567074    38A     -0.539748    39A     -0.535028
      40A     -0.528678    41A     -0.489979    42A     -0.479927
      43A     -0.466688    44A     -0.424210    45A     -0.410988
      46A     -0.340121

  @DF-RHF Final Energy:  -905.26182140475180

   => Energetics <=

    Nuclear Repulsion Energy =            808.9171625215868744
    One-Electron Energy =               -2848.7028998444707213
    Two-Electron Energy =                1134.5239159181321611
    Total Energy =                       -905.2618214047517995
  Basis Set: (AUG-CC-PVTZ AUX)
    Blend: AUG-CC-PVTZ-RI
    Molecular point group: c1

    Geometry (in Angstrom), charge = 0, multiplicity = 1:

       Center              X                  Y                   Z               Mass
    ------------   -----------------  -----------------  -----------------  -----------------
         S            0.776789765928    -0.678002037447    -0.298291287498    31.972071174400
         O            0.755891765928    -1.829968037447     0.611777712502    15.994914619570
         O            1.100598765928    -0.788066637447    -1.508680787498    15.994914619570
         N            1.749650765928     0.484350962553     0.376611712502    14.003074004430
         N           -1.835982234072    -0.739602037447     0.473446712502    14.003074004430
         N           -1.314026234072     1.118708962553    -0.656912287498    14.003074004430
         C           -0.868196234072    -0.041940037447    -0.184277287498    12.000000000000
         C            1.473688765928     0.776004962553     1.786749712502    12.000000000000
         C            1.973379765928     1.684548962553    -0.444335287498    12.000000000000
         C           -2.983594234072     0.006534962553     0.412062712502    12.000000000000
         C           -2.635089234072     1.149442962553    -0.285264287498    12.000000000000
         H            1.361414765928    -0.159857037447     2.333164712502     1.007825032230
         H            0.575477765928     1.397111962553     1.910361712502     1.007825032230
         H            2.336415765928     1.314310962553     2.185119712502     1.007825032230
         H            2.183841765928     1.380367962553    -1.468163287498     1.007825032230
         H            2.849050765928     2.194494962553    -0.036248287498     1.007825032230
         H            1.107439765928     2.356242962553    -0.427960287498     1.007825032230
         H           -1.687803234072    -1.646126037447     0.907283712502     1.007825032230
         H           -3.913207234072    -0.326177037447     0.850242712502     1.007825032230
         H           -3.267658234072     1.989324962553    -0.539503287498     1.007825032230

  Basis Set: AUG-CC-PVTZ
    Blend: AUG-CC-PVTZ
  Basis Set: (AUG-CC-PVTZ AUX)
    Blend: AUG-CC-PVTZ-JKFIT
	 Reference Energy          =    -905.2618214047517995 [Eh]
	 Singles Energy            =      -0.0000000000000000 [Eh]
	 Same-Spin Energy          =      -0.5921371295892797 [Eh]
	 Opposite-Spin Energy      =      -1.7635256880101045 [Eh]
	 Correlation Energy        =      -2.3556628175993843 [Eh]
	 Total Energy              =    -907.6174842223512087 [Eh]

	 ================> DF-SCS-MP2 Energies <==================
	-----------------------------------------------------------
	 SCS Same-Spin Scale       =       0.3333333333333333 [-]
	 SCS Opposite-Spin Scale   =       1.2000000000000000 [-]
	 SCS Same-Spin Energy      =      -0.1973790431964265 [Eh]
	 SCS Opposite-Spin Energy  =      -2.1162308256121252 [Eh]
	 SCS Correlation Energy    =      -2.3136098688085518 [Eh]
	 SCS Total Energy          =    -907.5754312735602980 [Eh]
	-----------------------------------------------------------

  Dipole Moment: [D]
     X:    -2.2813      Y:     1.6236      Z:     2.5845     Total:     3.8105

*** Psi4 exiting successfully. Buy a developer a beer!
