                               Psi4 1.3.2 release

  ==> Input File <==

--------------------------------------------------------------------------
#psi4
#
memory 32 gb

molecule  {
0 1
  S        0.7637890    -0.7221230    -0.3122950
  O        0.7428910    -1.8740890     0.5977740
  O        1.1390870    -0.8496890    -1.7151490
  N        1.7366500     0.4402300     0.3626080
  N       -1.8489830    -0.7837230     0.4594430
  N       -1.3270270     1.0745880    -0.6709160
  C       -0.8811970    -0.0860610    -0.1982810
  C        1.4606880     0.7318840     1.7727460
  C        1.9603790     1.6404280    -0.4583390
  C       -2.9965950    -0.0375860     0.3980590
  C       -2.6707544     1.1133428    -0.2970310
  H        1.3484140    -0.2039780     2.3191610
  H        0.5624770     1.3529910     1.8963580
  H        2.3234150     1.2701900     2.1711160
  H        2.1708410     1.3362470    -1.4821670
  H        2.8360500     2.1503740    -0.0502520
  H        1.0944390     2.3121220    -0.4419640
  H       -1.7008040    -1.6902470     0.8932800
  H       -3.9262080    -0.3702980     0.8362390
  H       -3.2806590     1.9452040    -0.5535070
units angstrom
no_reorient  #important for SAPT in psi4, default
symmetry c1  #important for SAPT in psi4, default
}

set PROPERTIES_ORIGIN ["COM"]
properties('MP2/aug-cc-pvtz', properties = ['dipole'])
--------------------------------------------------------------------------

    Molecular point group: c1
  Charge       = 0
  Multiplicity = 1
  Basis Set: AUG-CC-PVTZ
    Blend: AUG-CC-PVTZ
  Basis Set: (AUG-CC-PVTZ AUX)
    Blend: AUG-CC-PVTZ-JKFIT

    Orbital Energies [Eh]
    ---------------------

    Doubly Occupied:

       1A    -92.216085     2A    -20.558792     3A    -20.556085
       4A    -15.654138     5A    -15.611439     6A    -15.587370
       7A    -11.337915     8A    -11.294451     9A    -11.275287
      10A    -11.273762    11A    -11.266040    12A     -9.180612
      13A     -6.865832    14A     -6.865423    15A     -6.865002
      16A     -1.464521    17A     -1.367001    18A     -1.345529
      19A     -1.258091    20A     -1.193692    21A     -1.050359
      22A     -0.981713    23A     -0.960268    24A     -0.876284
      25A     -0.841948    26A     -0.817571    27A     -0.752817
      28A     -0.710673    29A     -0.676648    30A     -0.668150
      31A     -0.642350    32A     -0.631620    33A     -0.624472
      34A     -0.619713    35A     -0.609392    36A     -0.577276
      37A     -0.571065    38A     -0.541944    39A     -0.514324
      40A     -0.508064    41A     -0.485778    42A     -0.480171
      43A     -0.469770    44A     -0.426128    45A     -0.417722
      46A     -0.347677

  @DF-RHF Final Energy:  -905.30506247137419

   => Energetics <=

    Nuclear Repulsion Energy =            796.8872843194310462
    One-Electron Energy =               -2824.7027556247126086
    Two-Electron Energy =                1122.5104088339073769
    Total Energy =                       -905.3050624713741854
  Basis Set: (AUG-CC-PVTZ AUX)
    Blend: AUG-CC-PVTZ-RI
    Molecular point group: c1

    Geometry (in Angstrom), charge = 0, multiplicity = 1:

       Center              X                  Y                   Z               Mass
    ------------   -----------------  -----------------  -----------------  -----------------
         S            0.773638574876    -0.676952664877    -0.280857659399    31.972071174400
         O            0.752740574876    -1.828918664877     0.629211340601    15.994914619570
         O            1.148936574876    -0.804518664877    -1.683711659399    15.994914619570
         N            1.746499574876     0.485400335123     0.394045340601    14.003074004430
         N           -1.839133425124    -0.738552664877     0.490880340601    14.003074004430
         N           -1.317177425124     1.119758335123    -0.639478659399    14.003074004430
         C           -0.871347425124    -0.040890664877    -0.166843659399    12.000000000000
         C            1.470537574876     0.777054335123     1.804183340601    12.000000000000
         C            1.970228574876     1.685598335123    -0.426901659399    12.000000000000
         C           -2.986745425124     0.007584335123     0.429496340601    12.000000000000
         C           -2.660904825124     1.158513135123    -0.265593659399    12.000000000000
         H            1.358263574876    -0.158807664877     2.350598340601     1.007825032230
         H            0.572326574876     1.398161335123     1.927795340601     1.007825032230
         H            2.333264574876     1.315360335123     2.202553340601     1.007825032230
         H            2.180690574876     1.381417335123    -1.450729659399     1.007825032230
         H            2.845899574876     2.195544335123    -0.018814659399     1.007825032230
         H            1.104288574876     2.357292335123    -0.410526659399     1.007825032230
         H           -1.690954425124    -1.645076664877     0.924717340601     1.007825032230
         H           -3.916358425124    -0.325127664877     0.867676340601     1.007825032230
         H           -3.270809425124     1.990374335123    -0.522069659399     1.007825032230

  Basis Set: AUG-CC-PVTZ
    Blend: AUG-CC-PVTZ
  Basis Set: (AUG-CC-PVTZ AUX)
    Blend: AUG-CC-PVTZ-JKFIT
	 Reference Energy          =    -905.3050624713741854 [Eh]
	 Singles Energy            =      -0.0000000000000000 [Eh]
	 Same-Spin Energy          =      -0.5973004748135220 [Eh]
	 Opposite-Spin Energy      =      -1.7756567418329738 [Eh]
	 Correlation Energy        =      -2.3729572166464958 [Eh]
	 Total Energy              =    -907.6780196880206404 [Eh]

	 ================> DF-SCS-MP2 Energies <==================
	-----------------------------------------------------------
	 SCS Same-Spin Scale       =       0.3333333333333333 [-]
	 SCS Opposite-Spin Scale   =       1.2000000000000000 [-]
	 SCS Same-Spin Energy      =      -0.1991001582711740 [Eh]
	 SCS Opposite-Spin Energy  =      -2.1307880901995686 [Eh]
	 SCS Correlation Energy    =      -2.3298882484707426 [Eh]
	 SCS Total Energy          =    -907.6349507198449373 [Eh]
	-----------------------------------------------------------

  Dipole Moment: [D]
     X:    -2.6803      Y:     1.8971      Z:     3.5685     Total:     4.8494

*** Psi4 exiting successfully. Buy a developer a beer!
