                               Psi4 1.3.2 release

  ==> Input File <==

--------------------------------------------------------------------------
#psi4
#
memory 32 gb

molecule  {
0 1
  S        0.7637890    -0.7221230    -0.3122950
  O        0.7428910    -1.8740890     0.5977740
  O        1.1390870    -0.8496890    -1.7151490
  N        1.7366500     0.4402300     0.3626080
  N       -1.8489830    -0.7837230     0.4594430
  N       -1.3270270     1.0745880    -0.6709160
  C       -0.8811970    -0.0860610    -0.1982810
  C        1.4606880     0.7318840     1.7727460
  C        1.9603790     1.6404280    -0.4583390
  C       -3.1641027     0.0713217     0.3890993
  C       -2.6480900     1.1053220    -0.2992680
  H        1.3484140    -0.2039780     2.3191610
  H        0.5624770     1.3529910     1.8963580
  H        2.3234150     1.2701900     2.1711160
  H        2.1708410     1.3362470    -1.4821670
  H        2.8360500     2.1503740    -0.0502520
  H        1.0944390     2.3121220    -0.4419640
  H       -1.7008040    -1.6902470     0.8932800
  H       -3.9262080    -0.3702980     0.8362390
  H       -3.2806590     1.9452040    -0.5535070
units angstrom
no_reorient  #important for SAPT in psi4, default
symmetry c1  #important for SAPT in psi4, default
}

set PROPERTIES_ORIGIN ["COM"]
properties('MP2/aug-cc-pvtz', properties = ['dipole'])
--------------------------------------------------------------------------

    Molecular point group: c1
  Charge       = 0
  Multiplicity = 1
  Basis Set: AUG-CC-PVTZ
    Blend: AUG-CC-PVTZ
  Basis Set: (AUG-CC-PVTZ AUX)
    Blend: AUG-CC-PVTZ-JKFIT

    Orbital Energies [Eh]
    ---------------------

    Doubly Occupied:

       1A    -92.219143     2A    -20.560202     3A    -20.559855
       4A    -15.638951     5A    -15.614735     6A    -15.581049
       7A    -11.351375     8A    -11.295432     9A    -11.283686
      10A    -11.276852    11A    -11.267953    12A     -9.183846
      13A     -6.869096    14A     -6.868621    15A     -6.868179
      16A     -1.466866    17A     -1.349085    18A     -1.338971
      19A     -1.260619    20A     -1.174414    21A     -1.056742
      22A     -0.983646    23A     -0.967937    24A     -0.884397
      25A     -0.836002    26A     -0.805742    27A     -0.751114
      28A     -0.711622    29A     -0.682216    30A     -0.667745
      31A     -0.659378    32A     -0.636427    33A     -0.619374
      34A     -0.604342    35A     -0.580784    36A     -0.573121
      37A     -0.569212    38A     -0.543759    39A     -0.516375
      40A     -0.507466    41A     -0.488849    42A     -0.481866
      43A     -0.473124    44A     -0.420441    45A     -0.415386
      46A     -0.363787

  @DF-RHF Final Energy:  -905.26795018480686

   => Energetics <=

    Nuclear Repulsion Energy =            793.6528276049557462
    One-Electron Energy =               -2818.1819901870894682
    Two-Electron Energy =                1119.2612123973267444
    Total Energy =                       -905.2679501848069776
  Basis Set: (AUG-CC-PVTZ AUX)
    Blend: AUG-CC-PVTZ-RI
    Molecular point group: c1

    Geometry (in Angstrom), charge = 0, multiplicity = 1:

       Center              X                  Y                   Z               Mass
    ------------   -----------------  -----------------  -----------------  -----------------
         S            0.783568329399    -0.683868981693    -0.280090067923    31.972071174400
         O            0.762670329399    -1.835834981693     0.629978932077    15.994914619570
         O            1.158866329399    -0.811434981693    -1.682944067923    15.994914619570
         N            1.756429329399     0.478484018307     0.394812932077    14.003074004430
         N           -1.829203670601    -0.745468981693     0.491647932077    14.003074004430
         N           -1.307247670601     1.112842018307    -0.638711067923    14.003074004430
         C           -0.861417670601    -0.047806981693    -0.166076067923    12.000000000000
         C            1.480467329399     0.770138018307     1.804950932077    12.000000000000
         C            1.980158329399     1.678682018307    -0.426134067923    12.000000000000
         C           -3.144323370601     0.109575718307     0.421304232077    12.000000000000
         C           -2.628310670601     1.143576018307    -0.267063067923    12.000000000000
         H            1.368193329399    -0.165723981693     2.351365932077     1.007825032230
         H            0.582256329399     1.391245018307     1.928562932077     1.007825032230
         H            2.343194329399     1.308444018307     2.203320932077     1.007825032230
         H            2.190620329399     1.374501018307    -1.449962067923     1.007825032230
         H            2.855829329399     2.188628018307    -0.018047067923     1.007825032230
         H            1.114218329399     2.350376018307    -0.409759067923     1.007825032230
         H           -1.681024670601    -1.651992981693     0.925484932077     1.007825032230
         H           -3.906428670601    -0.332043981693     0.868443932077     1.007825032230
         H           -3.260879670601     1.983458018307    -0.521302067923     1.007825032230

  Basis Set: AUG-CC-PVTZ
    Blend: AUG-CC-PVTZ
  Basis Set: (AUG-CC-PVTZ AUX)
    Blend: AUG-CC-PVTZ-JKFIT
	 Reference Energy          =    -905.2679501848068639 [Eh]
	 Singles Energy            =      -0.0000000000000000 [Eh]
	 Same-Spin Energy          =      -0.5965029478951795 [Eh]
	 Opposite-Spin Energy      =      -1.7778155015316957 [Eh]
	 Correlation Energy        =      -2.3743184494268750 [Eh]
	 Total Energy              =    -907.6422686342336874 [Eh]

	 ================> DF-SCS-MP2 Energies <==================
	-----------------------------------------------------------
	 SCS Same-Spin Scale       =       0.3333333333333333 [-]
	 SCS Opposite-Spin Scale   =       1.2000000000000000 [-]
	 SCS Same-Spin Energy      =      -0.1988343159650598 [Eh]
	 SCS Opposite-Spin Energy  =      -2.1333786018380345 [Eh]
	 SCS Correlation Energy    =      -2.3322129178030941 [Eh]
	 SCS Total Energy          =    -907.6001631026099403 [Eh]
	-----------------------------------------------------------

  Dipole Moment: [D]
     X:    -2.6267      Y:     2.0471      Z:     3.5077     Total:     4.8367

*** Psi4 exiting successfully. Buy a developer a beer!
