                               Psi4 1.3.2 release

  ==> Input File <==

--------------------------------------------------------------------------
#psi4
#
memory 32 gb

molecule  {
0 1
  S        0.7637890    -0.7221230    -0.3122950
  O        0.7428910    -1.8740890     0.5977740
  O        1.1390870    -0.8496890    -1.7151490
  N        1.7366500     0.4402300     0.3626080
  N       -1.8489830    -0.7837230     0.4594430
  N       -1.3270270     1.0745880    -0.6709160
  C       -0.8811970    -0.0860610    -0.1982810
  C        1.4606880     0.7318840     1.7727460
  C        1.9603790     1.6404280    -0.4583390
  C       -3.0403694    -0.1070032     0.4471717
  C       -2.6480900     1.1053220    -0.2992680
  H        1.3484140    -0.2039780     2.3191610
  H        0.5624770     1.3529910     1.8963580
  H        2.3234150     1.2701900     2.1711160
  H        2.1708410     1.3362470    -1.4821670
  H        2.8360500     2.1503740    -0.0502520
  H        1.0944390     2.3121220    -0.4419640
  H       -1.7008040    -1.6902470     0.8932800
  H       -3.9262080    -0.3702980     0.8362390
  H       -3.2806590     1.9452040    -0.5535070
units angstrom
no_reorient  #important for SAPT in psi4, default
symmetry c1  #important for SAPT in psi4, default
}

set PROPERTIES_ORIGIN ["COM"]
properties('MP2/aug-cc-pvtz', properties = ['dipole'])
--------------------------------------------------------------------------

    Molecular point group: c1
  Charge       = 0
  Multiplicity = 1
  Basis Set: AUG-CC-PVTZ
    Blend: AUG-CC-PVTZ
  Basis Set: (AUG-CC-PVTZ AUX)
    Blend: AUG-CC-PVTZ-JKFIT

    Orbital Energies [Eh]
    ---------------------

    Doubly Occupied:

       1A    -92.216018     2A    -20.558034     3A    -20.555825
       4A    -15.661971     5A    -15.611283     6A    -15.590735
       7A    -11.336623     8A    -11.298381     9A    -11.285344
      10A    -11.275181    11A    -11.266322    12A     -9.180409
      13A     -6.865632    14A     -6.865247    15A     -6.864809
      16A     -1.464077    17A     -1.365926    18A     -1.345064
      19A     -1.258007    20A     -1.201901    21A     -1.043086
      22A     -0.981749    23A     -0.958384    24A     -0.876340
      25A     -0.841205    26A     -0.823911    27A     -0.757069
      28A     -0.710901    29A     -0.689921    30A     -0.668204
      31A     -0.646088    32A     -0.631746    33A     -0.623851
      34A     -0.611872    35A     -0.602975    36A     -0.577154
      37A     -0.571075    38A     -0.541985    39A     -0.513844
      40A     -0.507864    41A     -0.484904    42A     -0.479826
      43A     -0.472252    44A     -0.432526    45A     -0.418089
      46A     -0.333352

  @DF-RHF Final Energy:  -905.28866572659513

   => Energetics <=

    Nuclear Repulsion Energy =            795.8551188562416883
    One-Electron Energy =               -2822.5536442058664761
    Two-Electron Energy =                1121.4098596230296607
    Total Energy =                       -905.2886657265951271
  Basis Set: (AUG-CC-PVTZ AUX)
    Blend: AUG-CC-PVTZ-RI
    Molecular point group: c1

    Geometry (in Angstrom), charge = 0, multiplicity = 1:

       Center              X                  Y                   Z               Mass
    ------------   -----------------  -----------------  -----------------  -----------------
         S            0.775085774146    -0.671643890977    -0.284071230162    31.972071174400
         O            0.754187774146    -1.823609890977     0.625997769838    15.994914619570
         O            1.150383774146    -0.799209890977    -1.686925230162    15.994914619570
         N            1.747946774146     0.490709109023     0.390831769838    14.003074004430
         N           -1.837686225854    -0.733243890977     0.487666769838    14.003074004430
         N           -1.315730225854     1.125067109023    -0.642692230162    14.003074004430
         C           -0.869900225854    -0.035581890977    -0.170057230162    12.000000000000
         C            1.471984774146     0.782363109023     1.800969769838    12.000000000000
         C            1.971675774146     1.690907109023    -0.430115230162    12.000000000000
         C           -3.029072625854    -0.056524090977     0.475395469838    12.000000000000
         C           -2.636793225854     1.155801109023    -0.271044230162    12.000000000000
         H            1.359710774146    -0.153498890977     2.347384769838     1.007825032230
         H            0.573773774146     1.403470109023     1.924581769838     1.007825032230
         H            2.334711774146     1.320669109023     2.199339769838     1.007825032230
         H            2.182137774146     1.386726109023    -1.453943230162     1.007825032230
         H            2.847346774146     2.200853109023    -0.022028230162     1.007825032230
         H            1.105735774146     2.362601109023    -0.413740230162     1.007825032230
         H           -1.689507225854    -1.639767890977     0.921503769838     1.007825032230
         H           -3.914911225854    -0.319818890977     0.864462769838     1.007825032230
         H           -3.269362225854     1.995683109023    -0.525283230162     1.007825032230

  Basis Set: AUG-CC-PVTZ
    Blend: AUG-CC-PVTZ
  Basis Set: (AUG-CC-PVTZ AUX)
    Blend: AUG-CC-PVTZ-JKFIT
	 Reference Energy          =    -905.2886657265951271 [Eh]
	 Singles Energy            =      -0.0000000000000000 [Eh]
	 Same-Spin Energy          =      -0.5989900717681197 [Eh]
	 Opposite-Spin Energy      =      -1.7783966286593889 [Eh]
	 Correlation Energy        =      -2.3773867004275084 [Eh]
	 Total Energy              =    -907.6660524270226915 [Eh]

	 ================> DF-SCS-MP2 Energies <==================
	-----------------------------------------------------------
	 SCS Same-Spin Scale       =       0.3333333333333333 [-]
	 SCS Opposite-Spin Scale   =       1.2000000000000000 [-]
	 SCS Same-Spin Energy      =      -0.1996633572560399 [Eh]
	 SCS Opposite-Spin Energy  =      -2.1340759543912666 [Eh]
	 SCS Correlation Energy    =      -2.3337393116473066 [Eh]
	 SCS Total Energy          =    -907.6224050382423911 [Eh]
	-----------------------------------------------------------

  Dipole Moment: [D]
     X:    -2.6485      Y:     1.8736      Z:     3.5745     Total:     4.8273

*** Psi4 exiting successfully. Buy a developer a beer!
