                               Psi4 1.3.2 release

  ==> Input File <==

--------------------------------------------------------------------------
#psi4
#
memory 32 gb

molecule  {
0 1
  S        0.7637890    -0.7221230    -0.3122950
  O        0.7428910    -1.8740890     0.5977740
  O        1.1390870    -0.8496890    -1.7151490
  N        1.7366500     0.4402300     0.3626080
  N       -1.8489830    -0.7837230     0.4594430
  N       -1.3488682     1.2030740    -0.7314040
  C       -0.8811970    -0.0860610    -0.1982810
  C        1.4606880     0.7318840     1.7727460
  C        1.9603790     1.6404280    -0.4583390
  C       -2.9965950    -0.0375860     0.3980590
  C       -2.6480900     1.1053220    -0.2992680
  H        1.3484140    -0.2039780     2.3191610
  H        0.5624770     1.3529910     1.8963580
  H        2.3234150     1.2701900     2.1711160
  H        2.1708410     1.3362470    -1.4821670
  H        2.8360500     2.1503740    -0.0502520
  H        1.0944390     2.3121220    -0.4419640
  H       -1.7008040    -1.6902470     0.8932800
  H       -3.9262080    -0.3702980     0.8362390
  H       -3.2806590     1.9452040    -0.5535070
units angstrom
no_reorient  #important for SAPT in psi4, default
symmetry c1  #important for SAPT in psi4, default
}

set PROPERTIES_ORIGIN ["COM"]
properties('MP2/aug-cc-pvtz', properties = ['dipole'])
--------------------------------------------------------------------------

    Molecular point group: c1
  Charge       = 0
  Multiplicity = 1
  Basis Set: AUG-CC-PVTZ
    Blend: AUG-CC-PVTZ
  Basis Set: (AUG-CC-PVTZ AUX)
    Blend: AUG-CC-PVTZ-JKFIT

    Orbital Energies [Eh]
    ---------------------

    Doubly Occupied:

       1A    -92.216883     2A    -20.559230     3A    -20.556161
       4A    -15.672447     5A    -15.611555     6A    -15.605877
       7A    -11.351557     8A    -11.291504     9A    -11.277764
      10A    -11.275199    11A    -11.265883    12A     -9.181169
      13A     -6.866394    14A     -6.866017    15A     -6.865574
      16A     -1.464460    17A     -1.359641    18A     -1.345159
      19A     -1.258034    20A     -1.188486    21A     -1.043395
      22A     -0.981649    23A     -0.959907    24A     -0.885170
      25A     -0.834415    26A     -0.818173    27A     -0.750436
      28A     -0.710389    29A     -0.672790    30A     -0.668381
      31A     -0.640965    32A     -0.636448    33A     -0.621877
      34A     -0.613692    35A     -0.592173    36A     -0.575964
      37A     -0.570831    38A     -0.541948    39A     -0.513617
      40A     -0.508783    41A     -0.489623    42A     -0.480575
      43A     -0.474784    44A     -0.427717    45A     -0.419701
      46A     -0.337264

  @DF-RHF Final Energy:  -905.27593261495531

   => Energetics <=

    Nuclear Repulsion Energy =            793.3055879980050804
    One-Electron Energy =               -2817.4637249820061697
    Two-Electron Energy =                1118.8822043690456667
    Total Energy =                       -905.2759326149553090
  Basis Set: (AUG-CC-PVTZ AUX)
    Blend: AUG-CC-PVTZ-RI
    Molecular point group: c1

    Geometry (in Angstrom), charge = 0, multiplicity = 1:

       Center              X                  Y                   Z               Mass
    ------------   -----------------  -----------------  -----------------  -----------------
         S            0.773832078307    -0.686681494339    -0.275865347849    31.972071174400
         O            0.752934078307    -1.838647494339     0.634203652151    15.994914619570
         O            1.149130078307    -0.814247494339    -1.678719347849    15.994914619570
         N            1.746693078307     0.475671505661     0.399037652151    14.003074004430
         N           -1.838939921693    -0.748281494339     0.495872652151    14.003074004430
         N           -1.338825121693     1.238515505661    -0.694974347849    14.003074004430
         C           -0.871153921693    -0.050619494339    -0.161851347849    12.000000000000
         C            1.470731078307     0.767325505661     1.809175652151    12.000000000000
         C            1.970422078307     1.675869505661    -0.421909347849    12.000000000000
         C           -2.986551921693    -0.002144494339     0.434488652151    12.000000000000
         C           -2.638046921693     1.140763505661    -0.262838347849    12.000000000000
         H            1.358457078307    -0.168536494339     2.355590652151     1.007825032230
         H            0.572520078307     1.388432505661     1.932787652151     1.007825032230
         H            2.333458078307     1.305631505661     2.207545652151     1.007825032230
         H            2.180884078307     1.371688505661    -1.445737347849     1.007825032230
         H            2.846093078307     2.185815505661    -0.013822347849     1.007825032230
         H            1.104482078307     2.347563505661    -0.405534347849     1.007825032230
         H           -1.690760921693    -1.654805494339     0.929709652151     1.007825032230
         H           -3.916164921693    -0.334856494339     0.872668652151     1.007825032230
         H           -3.270615921693     1.980645505661    -0.517077347849     1.007825032230

  Basis Set: AUG-CC-PVTZ
    Blend: AUG-CC-PVTZ
  Basis Set: (AUG-CC-PVTZ AUX)
    Blend: AUG-CC-PVTZ-JKFIT
	 Reference Energy          =    -905.2759326149553090 [Eh]
	 Singles Energy            =      -0.0000000000000000 [Eh]
	 Same-Spin Energy          =      -0.6012760379758623 [Eh]
	 Opposite-Spin Energy      =      -1.7837173100404109 [Eh]
	 Correlation Energy        =      -2.3849933480162733 [Eh]
	 Total Energy              =    -907.6609259629715325 [Eh]

	 ================> DF-SCS-MP2 Energies <==================
	-----------------------------------------------------------
	 SCS Same-Spin Scale       =       0.3333333333333333 [-]
	 SCS Opposite-Spin Scale   =       1.2000000000000000 [-]
	 SCS Same-Spin Energy      =      -0.2004253459919541 [Eh]
	 SCS Opposite-Spin Energy  =      -2.1404607720484932 [Eh]
	 SCS Correlation Energy    =      -2.3408861180404474 [Eh]
	 SCS Total Energy          =    -907.6168187329957391 [Eh]
	-----------------------------------------------------------

  Dipole Moment: [D]
     X:    -2.7743      Y:     1.6861      Z:     3.6894     Total:     4.9144

*** Psi4 exiting successfully. Buy a developer a beer!
