                               Psi4 1.3.2 release

  ==> Input File <==

--------------------------------------------------------------------------
#psi4
#
memory 32 gb

molecule  {
0 1
  S        0.7637890    -0.7221230    -0.3122950
  O        0.7428910    -1.8740890     0.5977740
  O        1.1390870    -0.8496890    -1.7151490
  N        1.7366500     0.4402300     0.3626080
  N       -1.8489830    -0.7837230     0.4594430
  N       -1.3247898     1.0531684    -0.6604202
  C       -0.8811970    -0.0860610    -0.1982810
  C        1.4606880     0.7318840     1.7727460
  C        1.9603790     1.6404280    -0.4583390
  C       -2.9965950    -0.0375860     0.3980590
  C       -2.6480900     1.1053220    -0.2992680
  H        1.3484140    -0.2039780     2.3191610
  H        0.5624770     1.3529910     1.8963580
  H        2.3234150     1.2701900     2.1711160
  H        2.1708410     1.3362470    -1.4821670
  H        2.8360500     2.1503740    -0.0502520
  H        1.0944390     2.3121220    -0.4419640
  H       -1.7008040    -1.6902470     0.8932800
  H       -3.9262080    -0.3702980     0.8362390
  H       -3.2806590     1.9452040    -0.5535070
units angstrom
no_reorient  #important for SAPT in psi4, default
symmetry c1  #important for SAPT in psi4, default
}

set PROPERTIES_ORIGIN ["COM"]
properties('MP2/aug-cc-pvtz', properties = ['dipole'])
--------------------------------------------------------------------------

    Molecular point group: c1
  Charge       = 0
  Multiplicity = 1
  Basis Set: AUG-CC-PVTZ
    Blend: AUG-CC-PVTZ
  Basis Set: (AUG-CC-PVTZ AUX)
    Blend: AUG-CC-PVTZ-JKFIT

    Orbital Energies [Eh]
    ---------------------

    Doubly Occupied:

       1A    -92.215525     2A    -20.558328     3A    -20.555838
       4A    -15.652109     5A    -15.611276     6A    -15.583126
       7A    -11.334673     8A    -11.293387     9A    -11.275311
      10A    -11.272979    11A    -11.266192    12A     -9.180104
      13A     -6.865318    14A     -6.864909    15A     -6.864493
      16A     -1.464319    17A     -1.372918    18A     -1.345382
      19A     -1.258018    20A     -1.200421    21A     -1.051251
      22A     -0.981752    23A     -0.960112    24A     -0.876031
      25A     -0.842311    26A     -0.817591    27A     -0.753341
      28A     -0.710793    29A     -0.677823    30A     -0.668120
      31A     -0.643265    32A     -0.632186    33A     -0.625874
      34A     -0.618260    35A     -0.610231    36A     -0.577327
      37A     -0.571153    38A     -0.541974    39A     -0.514325
      40A     -0.507830    41A     -0.486571    42A     -0.479886
      43A     -0.468420    44A     -0.430200    45A     -0.417508
      46A     -0.347399

  @DF-RHF Final Energy:  -905.30760915885287

   => Energetics <=

    Nuclear Repulsion Energy =            798.1942677087499760
    One-Electron Energy =               -2827.3114344840191734
    Two-Electron Energy =                1123.8095576164164413
    Total Energy =                       -905.3076091588527561
  Basis Set: (AUG-CC-PVTZ AUX)
    Blend: AUG-CC-PVTZ-RI
    Molecular point group: c1

    Geometry (in Angstrom), charge = 0, multiplicity = 1:

       Center              X                  Y                   Z               Mass
    ------------   -----------------  -----------------  -----------------  -----------------
         S            0.771905840671    -0.674689260279    -0.281543950544    31.972071174400
         O            0.751007840671    -1.826655260279     0.628525049456    15.994914619570
         O            1.147203840671    -0.802255260279    -1.684397950544    15.994914619570
         N            1.744766840671     0.487663739721     0.393359049456    14.003074004430
         N           -1.840866159329    -0.736289260279     0.490194049456    14.003074004430
         N           -1.316672959329     1.100602139721    -0.629669150544    14.003074004430
         C           -0.873080159329    -0.038627260279    -0.167529950544    12.000000000000
         C            1.468804840671     0.779317739721     1.803497049456    12.000000000000
         C            1.968495840671     1.687861739721    -0.427587950544    12.000000000000
         C           -2.988478159329     0.009847739721     0.428810049456    12.000000000000
         C           -2.639973159329     1.152755739721    -0.268516950544    12.000000000000
         H            1.356530840671    -0.156544260279     2.349912049456     1.007825032230
         H            0.570593840671     1.400424739721     1.927109049456     1.007825032230
         H            2.331531840671     1.317623739721     2.201867049456     1.007825032230
         H            2.178957840671     1.383680739721    -1.451415950544     1.007825032230
         H            2.844166840671     2.197807739721    -0.019500950544     1.007825032230
         H            1.102555840671     2.359555739721    -0.411212950544     1.007825032230
         H           -1.692687159329    -1.642813260279     0.924031049456     1.007825032230
         H           -3.918091159329    -0.322864260279     0.866990049456     1.007825032230
         H           -3.272542159329     1.992637739721    -0.522755950544     1.007825032230

  Basis Set: AUG-CC-PVTZ
    Blend: AUG-CC-PVTZ
  Basis Set: (AUG-CC-PVTZ AUX)
    Blend: AUG-CC-PVTZ-JKFIT
	 Reference Energy          =    -905.3076091588528698 [Eh]
	 Singles Energy            =      -0.0000000000000000 [Eh]
	 Same-Spin Energy          =      -0.5969020089119215 [Eh]
	 Opposite-Spin Energy      =      -1.7742634121532874 [Eh]
	 Correlation Energy        =      -2.3711654210652089 [Eh]
	 Total Energy              =    -907.6787745799181266 [Eh]

	 ================> DF-SCS-MP2 Energies <==================
	-----------------------------------------------------------
	 SCS Same-Spin Scale       =       0.3333333333333333 [-]
	 SCS Opposite-Spin Scale   =       1.2000000000000000 [-]
	 SCS Same-Spin Energy      =      -0.1989673363039738 [Eh]
	 SCS Opposite-Spin Energy  =      -2.1291160945839449 [Eh]
	 SCS Correlation Energy    =      -2.3280834308879186 [Eh]
	 SCS Total Energy          =    -907.6356925897407564 [Eh]
	-----------------------------------------------------------

  Dipole Moment: [D]
     X:    -2.6655      Y:     1.9361      Z:     3.5433     Total:     4.8383

*** Psi4 exiting successfully. Buy a developer a beer!
