                               Psi4 1.3.2 release

  ==> Input File <==

--------------------------------------------------------------------------
#psi4
#
memory 32 gb

molecule  {
0 1
  S        0.7637890    -0.7221230    -0.3122950
  O        0.7428910    -1.8740890     0.5977740
  O        1.1390870    -0.8496890    -1.7151490
  N        1.7366500     0.4402300     0.3626080
  N       -1.8489830    -0.7837230     0.4594430
  N       -1.3270270     1.0745880    -0.6709160
  C       -0.8811970    -0.0860610    -0.1982810
  C        1.4606880     0.7318840     1.7727460
  C        1.9603790     1.6404280    -0.4583390
  C       -2.9965950    -0.0375860     0.3980590
  C       -2.6480900     1.1053220    -0.2992680
  H        1.3484140    -0.2039780     2.3191610
  H        0.5624770     1.3529910     1.8963580
  H        2.3234150     1.2701900     2.1711160
  H        2.1708410     1.3362470    -1.4821670
  H        2.8360500     2.1503740    -0.0502520
  H        1.0944390     2.3121220    -0.4419640
  H       -1.6716307    -1.8687224     0.9786933
  H       -3.9262080    -0.3702980     0.8362390
  H       -3.2806590     1.9452040    -0.5535070
units angstrom
no_reorient  #important for SAPT in psi4, default
symmetry c1  #important for SAPT in psi4, default
}

set PROPERTIES_ORIGIN ["COM"]
properties('MP2/aug-cc-pvtz', properties = ['dipole'])
--------------------------------------------------------------------------

    Molecular point group: c1
  Charge       = 0
  Multiplicity = 1
  Basis Set: AUG-CC-PVTZ
    Blend: AUG-CC-PVTZ
  Basis Set: (AUG-CC-PVTZ AUX)
    Blend: AUG-CC-PVTZ-JKFIT

    Orbital Energies [Eh]
    ---------------------

    Doubly Occupied:

       1A    -92.214866     2A    -20.558213     3A    -20.554992
       4A    -15.665730     5A    -15.610444     6A    -15.584313
       7A    -11.334941     8A    -11.290557     9A    -11.274616
      10A    -11.271168    11A    -11.265369    12A     -9.179408
      13A     -6.864617    14A     -6.864226    15A     -6.863809
      16A     -1.463537    17A     -1.362145    18A     -1.344877
      19A     -1.257151    20A     -1.184172    21A     -1.046425
      22A     -0.980984    23A     -0.957472    24A     -0.868973
      25A     -0.829107    26A     -0.789161    27A     -0.749560
      28A     -0.709598    29A     -0.672521    30A     -0.667461
      31A     -0.640207    32A     -0.623053    33A     -0.619176
      34A     -0.608683    35A     -0.605901    36A     -0.576466
      37A     -0.570323    38A     -0.541285    39A     -0.513539
      40A     -0.506906    41A     -0.484032    42A     -0.479563
      43A     -0.469038    44A     -0.424905    45A     -0.416997
      46A     -0.343547

  @DF-RHF Final Energy:  -905.27531826033601

   => Energetics <=

    Nuclear Repulsion Energy =            796.3745804968199309
    One-Electron Energy =               -2823.8917373162666991
    Two-Electron Energy =                1122.2418385591108745
    Total Energy =                       -905.2753182603360074
  Basis Set: (AUG-CC-PVTZ AUX)
    Blend: AUG-CC-PVTZ-RI
    Molecular point group: c1

    Geometry (in Angstrom), charge = 0, multiplicity = 1:

       Center              X                  Y                   Z               Mass
    ------------   -----------------  -----------------  -----------------  -----------------
         S            0.771916844316    -0.675375201816    -0.281196079978    31.972071174400
         O            0.751018844316    -1.827341201816     0.628872920022    15.994914619570
         O            1.147214844316    -0.802941201816    -1.684050079978    15.994914619570
         N            1.744777844316     0.486977798184     0.393706920022    14.003074004430
         N           -1.840855155684    -0.736975201816     0.490541920022    14.003074004430
         N           -1.318899155684     1.121335798184    -0.639817079978    14.003074004430
         C           -0.873069155684    -0.039313201816    -0.167182079978    12.000000000000
         C            1.468815844316     0.778631798184     1.803844920022    12.000000000000
         C            1.968506844316     1.687175798184    -0.427240079978    12.000000000000
         C           -2.988467155684     0.009161798184     0.429157920022    12.000000000000
         C           -2.639962155684     1.152069798184    -0.268169079978    12.000000000000
         H            1.356541844316    -0.157230201816     2.350259920022     1.007825032230
         H            0.570604844316     1.399738798184     1.927456920022     1.007825032230
         H            2.331542844316     1.316937798184     2.202214920022     1.007825032230
         H            2.178968844316     1.382994798184    -1.451068079978     1.007825032230
         H            2.844177844316     2.197121798184    -0.019153079978     1.007825032230
         H            1.102566844316     2.358869798184    -0.410865079978     1.007825032230
         H           -1.663502855684    -1.821974601816     1.009792220022     1.007825032230
         H           -3.918080155684    -0.323550201816     0.867337920022     1.007825032230
         H           -3.272531155684     1.991951798184    -0.522408079978     1.007825032230

  Basis Set: AUG-CC-PVTZ
    Blend: AUG-CC-PVTZ
  Basis Set: (AUG-CC-PVTZ AUX)
    Blend: AUG-CC-PVTZ-JKFIT
	 Reference Energy          =    -905.2753182603360074 [Eh]
	 Singles Energy            =      -0.0000000000000000 [Eh]
	 Same-Spin Energy          =      -0.5995079512794219 [Eh]
	 Opposite-Spin Energy      =      -1.7798161583524161 [Eh]
	 Correlation Energy        =      -2.3793241096318383 [Eh]
	 Total Energy              =    -907.6546423699678598 [Eh]

	 ================> DF-SCS-MP2 Energies <==================
	-----------------------------------------------------------
	 SCS Same-Spin Scale       =       0.3333333333333333 [-]
	 SCS Opposite-Spin Scale   =       1.2000000000000000 [-]
	 SCS Same-Spin Energy      =      -0.1998359837598073 [Eh]
	 SCS Opposite-Spin Energy  =      -2.1357793900228992 [Eh]
	 SCS Correlation Energy    =      -2.3356153737827063 [Eh]
	 SCS Total Energy          =    -907.6109336341187372 [Eh]
	-----------------------------------------------------------

  Dipole Moment: [D]
     X:    -2.6540      Y:     1.6148      Z:     3.6967     Total:     4.8288

*** Psi4 exiting successfully. Buy a developer a beer!
