                               Psi4 1.4a3.dev225

  ==> Input File <==

--------------------------------------------------------------------------
#psi4
#
memory 32 gb

molecule  {
0 1
  S        0.7637890    -0.7221230    -0.3122950
  O        0.7428910    -1.8740890     0.5977740
  O        1.1390870    -0.8496890    -1.7151490
  N        1.7366500     0.4402300     0.3626080
  N       -1.8489830    -0.7837230     0.4594430
  N       -1.3270270     1.0745880    -0.6709160
  C       -0.8998122    -0.0788631    -0.1969908
  C        1.4606880     0.7318840     1.7727460
  C        1.9603790     1.6404280    -0.4583390
  C       -2.9965950    -0.0375860     0.3980590
  C       -2.6480900     1.1053220    -0.2992680
  H        1.3484140    -0.2039780     2.3191610
  H        0.5624770     1.3529910     1.8963580
  H        2.3234150     1.2701900     2.1711160
  H        2.1708410     1.3362470    -1.4821670
  H        2.8360500     2.1503740    -0.0502520
  H        1.0944390     2.3121220    -0.4419640
  H       -1.7008040    -1.6902470     0.8932800
  H       -3.9262080    -0.3702980     0.8362390
  H       -3.2806590     1.9452040    -0.5535070
units angstrom
no_reorient  #important for SAPT in psi4, default
symmetry c1  #important for SAPT in psi4, default
}

set PROPERTIES_ORIGIN ["COM"]
properties('MP2/aug-cc-pvtz', properties = ['dipole'])
--------------------------------------------------------------------------

    Molecular point group: c1
  Charge       = 0
  Multiplicity = 1
  Basis Set: AUG-CC-PVTZ
    Blend: AUG-CC-PVTZ
  Basis Set: (AUG-CC-PVTZ AUX)
    Blend: AUG-CC-PVTZ-JKFIT

    Orbital Energies [Eh]
    ---------------------

    Doubly Occupied:

       1A    -92.215477     2A    -20.558570     3A    -20.555952
       4A    -15.654247     5A    -15.611420     6A    -15.584926
       7A    -11.337434     8A    -11.291918     9A    -11.275414
      10A    -11.273215    11A    -11.266170    12A     -9.179876
      13A     -6.865061    14A     -6.864655    15A     -6.864268
      16A     -1.463706    17A     -1.374395    18A     -1.345321
      19A     -1.257957    20A     -1.202628    21A     -1.048062
      22A     -0.981794    23A     -0.958945    24A     -0.874542
      25A     -0.841298    26A     -0.821400    27A     -0.752826
      28A     -0.710392    29A     -0.676049    30A     -0.667930
      31A     -0.642525    32A     -0.634019    33A     -0.626674
      34A     -0.616917    35A     -0.609022    36A     -0.577290
      37A     -0.571234    38A     -0.542027    39A     -0.513530
      40A     -0.507773    41A     -0.486861    42A     -0.479963
      43A     -0.470532    44A     -0.430854    45A     -0.417399
      46A     -0.346502

  @DF-RHF Final Energy:  -905.30691033419873

   => Energetics <=

    Nuclear Repulsion Energy =            797.3611437519268748
    One-Electron Energy =               -2825.6381696724083668
    Two-Electron Energy =                1122.9701155862828728
    Total Energy =                       -905.3069103341986192
  Basis Set: (AUG-CC-PVTZ AUX)
    Blend: AUG-CC-PVTZ-RI
    Molecular point group: c1

    Geometry (in Angstrom), charge = 0, multiplicity = 1:

       Center              X                  Y                   Z               Mass
    ------------   -----------------  -----------------  -----------------  -----------------
         S            0.773360981353    -0.676896250842    -0.280792751381    31.972071174400
         O            0.752462981353    -1.828862250842     0.629276248619    15.994914619570
         O            1.148658981353    -0.804462250842    -1.683646751381    15.994914619570
         N            1.746221981353     0.485456749158     0.394110248619    14.003074004430
         N           -1.839411018647    -0.738496250842     0.490945248619    14.003074004430
         N           -1.317455018647     1.119814749158    -0.639413751381    14.003074004430
         C           -0.890240218647    -0.033636350842    -0.165488551381    12.000000000000
         C            1.470259981353     0.777110749158     1.804248248619    12.000000000000
         C            1.969950981353     1.685654749158    -0.426836751381    12.000000000000
         C           -2.987023018647     0.007640749158     0.429561248619    12.000000000000
         C           -2.638518018647     1.150548749158    -0.267765751381    12.000000000000
         H            1.357985981353    -0.158751250842     2.350663248619     1.007825032230
         H            0.572048981353     1.398217749158     1.927860248619     1.007825032230
         H            2.332986981353     1.315416749158     2.202618248619     1.007825032230
         H            2.180412981353     1.381473749158    -1.450664751381     1.007825032230
         H            2.845621981353     2.195600749158    -0.018749751381     1.007825032230
         H            1.104010981353     2.357348749158    -0.410461751381     1.007825032230
         H           -1.691232018647    -1.645020250842     0.924782248619     1.007825032230
         H           -3.916636018647    -0.325071250842     0.867741248619     1.007825032230
         H           -3.271087018647     1.990430749158    -0.522004751381     1.007825032230

  Basis Set: AUG-CC-PVTZ
    Blend: AUG-CC-PVTZ
  Basis Set: (AUG-CC-PVTZ AUX)
    Blend: AUG-CC-PVTZ-JKFIT
	 Reference Energy          =    -905.3069103341987329 [Eh]
	 Singles Energy            =      -0.0000000000000000 [Eh]
	 Same-Spin Energy          =      -0.5969771517956521 [Eh]
	 Opposite-Spin Energy      =      -1.7746379648367552 [Eh]
	 Correlation Energy        =      -2.3716151166324071 [Eh]
	 Total Energy              =    -907.6785254508311027 [Eh]

	 ================> DF-SCS-MP2 Energies <==================
	-----------------------------------------------------------
	 SCS Same-Spin Scale       =       0.3333333333333333 [-]
	 SCS Opposite-Spin Scale   =       1.2000000000000000 [-]
	 SCS Same-Spin Energy      =      -0.1989923839318840 [Eh]
	 SCS Opposite-Spin Energy  =      -2.1295655578041059 [Eh]
	 SCS Correlation Energy    =      -2.3285579417359901 [Eh]
	 SCS Total Energy          =    -907.6354682759347270 [Eh]
	-----------------------------------------------------------

  Dipole Moment: [D]
     X:    -2.6442      Y:     1.8808      Z:     3.5654     Total:     4.8209

*** Psi4 exiting successfully. Buy a developer a beer!
