                               Psi4 1.3.2 release

  ==> Input File <==

--------------------------------------------------------------------------
#psi4
#
memory 32 gb

molecule  {
0 1
  S        0.7637890    -0.7221230    -0.3122950
  O        0.7428910    -1.8740890     0.5977740
  O        1.1390870    -0.8496890    -1.7151490
  N        1.7366500     0.4402300     0.3626080
  N       -1.8489830    -0.7837230     0.4594430
  N       -1.3270270     1.0745880    -0.6709160
  C       -0.8811970    -0.0860610    -0.1982810
  C        1.4606880     0.7318840     1.7727460
  C        1.9603790     1.6404280    -0.4583390
  C       -2.9725968    -0.0042201     0.3735999
  C       -2.6480900     1.1053220    -0.2992680
  H        1.3484140    -0.2039780     2.3191610
  H        0.5624770     1.3529910     1.8963580
  H        2.3234150     1.2701900     2.1711160
  H        2.1708410     1.3362470    -1.4821670
  H        2.8360500     2.1503740    -0.0502520
  H        1.0944390     2.3121220    -0.4419640
  H       -1.7008040    -1.6902470     0.8932800
  H       -3.9262080    -0.3702980     0.8362390
  H       -3.2806590     1.9452040    -0.5535070
units angstrom
no_reorient  #important for SAPT in psi4, default
symmetry c1  #important for SAPT in psi4, default
}

set PROPERTIES_ORIGIN ["COM"]
properties('MP2/aug-cc-pvtz', properties = ['dipole'])
--------------------------------------------------------------------------

    Molecular point group: c1
  Charge       = 0
  Multiplicity = 1
  Basis Set: AUG-CC-PVTZ
    Blend: AUG-CC-PVTZ
  Basis Set: (AUG-CC-PVTZ AUX)
    Blend: AUG-CC-PVTZ-JKFIT

    Orbital Energies [Eh]
    ---------------------

    Doubly Occupied:

       1A    -92.215802     2A    -20.558818     3A    -20.555989
       4A    -15.652190     5A    -15.611383     6A    -15.584873
       7A    -11.338102     8A    -11.290512     9A    -11.275387
      10A    -11.267131    11A    -11.266068    12A     -9.180382
      13A     -6.865599    14A     -6.865184    15A     -6.864773
      16A     -1.464554    17A     -1.372787    18A     -1.345654
      19A     -1.258084    20A     -1.197609    21A     -1.054698
      22A     -0.981762    23A     -0.961306    24A     -0.878856
      25A     -0.840840    26A     -0.814363    27A     -0.751894
      28A     -0.711056    29A     -0.675339    30A     -0.667394
      31A     -0.644691    32A     -0.634344    33A     -0.626277
      34A     -0.616713    35A     -0.603322    36A     -0.577237
      37A     -0.571176    38A     -0.541991    39A     -0.514182
      40A     -0.507977    41A     -0.485266    42A     -0.480171
      43A     -0.470859    44A     -0.428230    45A     -0.418210
      46A     -0.353042

  @DF-RHF Final Energy:  -905.30415964256258

   => Energetics <=

    Nuclear Repulsion Energy =            798.3650079146954113
    One-Electron Energy =               -2827.6541787304981881
    Two-Electron Energy =                1123.9850111732400819
    Total Energy =                       -905.3041596425625812
  Basis Set: (AUG-CC-PVTZ AUX)
    Blend: AUG-CC-PVTZ-RI
    Molecular point group: c1

    Geometry (in Angstrom), charge = 0, multiplicity = 1:

       Center              X                  Y                   Z               Mass
    ------------   -----------------  -----------------  -----------------  -----------------
         S            0.770439613217    -0.678690202073    -0.279027504192    31.972071174400
         O            0.749541613217    -1.830656202073     0.631041495808    15.994914619570
         O            1.145737613217    -0.806256202073    -1.681881504192    15.994914619570
         N            1.743300613217     0.483662797927     0.395875495808    14.003074004430
         N           -1.842332386783    -0.740290202073     0.492710495808    14.003074004430
         N           -1.320376386783     1.118020797927    -0.637648504192    14.003074004430
         C           -0.874546386783    -0.042628202073    -0.165013504192    12.000000000000
         C            1.467338613217     0.775316797927     1.806013495808    12.000000000000
         C            1.967029613217     1.683860797927    -0.425071504192    12.000000000000
         C           -2.965946186783     0.039212697927     0.406867395808    12.000000000000
         C           -2.641439386783     1.148754797927    -0.266000504192    12.000000000000
         H            1.355064613217    -0.160545202073     2.352428495808     1.007825032230
         H            0.569127613217     1.396423797927     1.929625495808     1.007825032230
         H            2.330065613217     1.313622797927     2.204383495808     1.007825032230
         H            2.177491613217     1.379679797927    -1.448899504192     1.007825032230
         H            2.842700613217     2.193806797927    -0.016984504192     1.007825032230
         H            1.101089613217     2.355554797927    -0.408696504192     1.007825032230
         H           -1.694153386783    -1.646814202073     0.926547495808     1.007825032230
         H           -3.919557386783    -0.326865202073     0.869506495808     1.007825032230
         H           -3.274008386783     1.988636797927    -0.520239504192     1.007825032230

  Basis Set: AUG-CC-PVTZ
    Blend: AUG-CC-PVTZ
  Basis Set: (AUG-CC-PVTZ AUX)
    Blend: AUG-CC-PVTZ-JKFIT
	 Reference Energy          =    -905.3041596425625812 [Eh]
	 Singles Energy            =      -0.0000000000000000 [Eh]
	 Same-Spin Energy          =      -0.5969301070730353 [Eh]
	 Opposite-Spin Energy      =      -1.7745502234634003 [Eh]
	 Correlation Energy        =      -2.3714803305364356 [Eh]
	 Total Energy              =    -907.6756399730990097 [Eh]

	 ================> DF-SCS-MP2 Energies <==================
	-----------------------------------------------------------
	 SCS Same-Spin Scale       =       0.3333333333333333 [-]
	 SCS Opposite-Spin Scale   =       1.2000000000000000 [-]
	 SCS Same-Spin Energy      =      -0.1989767023576784 [Eh]
	 SCS Opposite-Spin Energy  =      -2.1294602681560804 [Eh]
	 SCS Correlation Energy    =      -2.3284369705137586 [Eh]
	 SCS Total Energy          =    -907.6325966130763163 [Eh]
	-----------------------------------------------------------

  Dipole Moment: [D]
     X:    -2.6766      Y:     1.9093      Z:     3.5567     Total:     4.8435

*** Psi4 exiting successfully. Buy a developer a beer!
