                               Psi4 1.4a3.dev225

  ==> Input File <==

--------------------------------------------------------------------------
#psi4
#
memory 32 gb

molecule  {
0 1
  S        0.7637890    -0.7221230    -0.3122950
  O        0.7428910    -1.8740890     0.5977740
  O        1.1390870    -0.8496890    -1.7151490
  N        1.7366500     0.4402300     0.3626080
  N       -1.8489830    -0.7837230     0.4594430
  N       -1.3270270     1.0745880    -0.6709160
  C       -0.8811970    -0.0860610    -0.1982810
  C        1.4606880     0.7318840     1.7727460
  C        1.9603790     1.6404280    -0.4583390
  C       -2.9965950    -0.0375860     0.3980590
  C       -2.6430518     1.1218445    -0.3093489
  H        1.3484140    -0.2039780     2.3191610
  H        0.5624770     1.3529910     1.8963580
  H        2.3234150     1.2701900     2.1711160
  H        2.1708410     1.3362470    -1.4821670
  H        2.8360500     2.1503740    -0.0502520
  H        1.0944390     2.3121220    -0.4419640
  H       -1.7008040    -1.6902470     0.8932800
  H       -3.9262080    -0.3702980     0.8362390
  H       -3.2806590     1.9452040    -0.5535070
units angstrom
no_reorient  #important for SAPT in psi4, default
symmetry c1  #important for SAPT in psi4, default
}

set PROPERTIES_ORIGIN ["COM"]
properties('MP2/aug-cc-pvtz', properties = ['dipole'])
--------------------------------------------------------------------------

    Molecular point group: c1
  Charge       = 0
  Multiplicity = 1
  Basis Set: AUG-CC-PVTZ
    Blend: AUG-CC-PVTZ
  Basis Set: (AUG-CC-PVTZ AUX)
    Blend: AUG-CC-PVTZ-JKFIT

    Orbital Energies [Eh]
    ---------------------

    Doubly Occupied:

       1A    -92.215593     2A    -20.558342     3A    -20.555538
       4A    -15.656796     5A    -15.610988     6A    -15.586794
       7A    -11.336529     8A    -11.295471     9A    -11.275098
      10A    -11.274980    11A    -11.265937    12A     -9.180078
      13A     -6.865299    14A     -6.864895    15A     -6.864477
      16A     -1.464070    17A     -1.369546    18A     -1.345167
      19A     -1.257750    20A     -1.200520    21A     -1.047677
      22A     -0.981517    23A     -0.958902    24A     -0.876105
      25A     -0.843743    26A     -0.818259    27A     -0.752726
      28A     -0.710598    29A     -0.676877    30A     -0.667976
      31A     -0.642472    32A     -0.631048    33A     -0.624611
      34A     -0.620669    35A     -0.610745    36A     -0.577133
      37A     -0.570922    38A     -0.541759    39A     -0.513917
      40A     -0.507760    41A     -0.484561    42A     -0.479776
      43A     -0.470445    44A     -0.430956    45A     -0.417814
      46A     -0.342593

  @DF-RHF Final Energy:  -905.30484292770063

   => Energetics <=

    Nuclear Repulsion Energy =            797.2676043289259269
    One-Electron Energy =               -2825.4540401852732430
    Two-Electron Energy =                1122.8815929286467963
    Total Energy =                       -905.3048429277005198
  Basis Set: (AUG-CC-PVTZ AUX)
    Blend: AUG-CC-PVTZ-RI
    Molecular point group: c1

    Geometry (in Angstrom), charge = 0, multiplicity = 1:

       Center              X                  Y                   Z               Mass
    ------------   -----------------  -----------------  -----------------  -----------------
         S            0.771739418908    -0.677535500217    -0.280013203886    31.972071174400
         O            0.750841418908    -1.829501500217     0.630055796114    15.994914619570
         O            1.147037418908    -0.805101500217    -1.682867203886    15.994914619570
         N            1.744600418908     0.484817499783     0.394889796114    14.003074004430
         N           -1.841032581092    -0.739135500217     0.491724796114    14.003074004430
         N           -1.319076581092     1.119175499783    -0.638634203886    14.003074004430
         C           -0.873246581092    -0.041473500217    -0.165999203886    12.000000000000
         C            1.468638418908     0.776471499783     1.805027796114    12.000000000000
         C            1.968329418908     1.685015499783    -0.426057203886    12.000000000000
         C           -2.988644581092     0.007001499783     0.430340796114    12.000000000000
         C           -2.635101381092     1.166431999783    -0.277067103886    12.000000000000
         H            1.356364418908    -0.159390500217     2.351442796114     1.007825032230
         H            0.570427418908     1.397578499783     1.928639796114     1.007825032230
         H            2.331365418908     1.314777499783     2.203397796114     1.007825032230
         H            2.178791418908     1.380834499783    -1.449885203886     1.007825032230
         H            2.844000418908     2.194961499783    -0.017970203886     1.007825032230
         H            1.102389418908     2.356709499783    -0.409682203886     1.007825032230
         H           -1.692853581092    -1.645659500217     0.925561796114     1.007825032230
         H           -3.918257581092    -0.325710500217     0.868520796114     1.007825032230
         H           -3.272708581092     1.989791499783    -0.521225203886     1.007825032230

  Basis Set: AUG-CC-PVTZ
    Blend: AUG-CC-PVTZ
  Basis Set: (AUG-CC-PVTZ AUX)
    Blend: AUG-CC-PVTZ-JKFIT
	 Reference Energy          =    -905.3048429277006335 [Eh]
	 Singles Energy            =      -0.0000000000000000 [Eh]
	 Same-Spin Energy          =      -0.5977554386559440 [Eh]
	 Opposite-Spin Energy      =      -1.7758088093012248 [Eh]
	 Correlation Energy        =      -2.3735642479571686 [Eh]
	 Total Energy              =    -907.6784071756577532 [Eh]

	 ================> DF-SCS-MP2 Energies <==================
	-----------------------------------------------------------
	 SCS Same-Spin Scale       =       0.3333333333333333 [-]
	 SCS Opposite-Spin Scale   =       1.2000000000000000 [-]
	 SCS Same-Spin Energy      =      -0.1992518128853147 [Eh]
	 SCS Opposite-Spin Energy  =      -2.1309705711614697 [Eh]
	 SCS Correlation Energy    =      -2.3302223840467842 [Eh]
	 SCS Total Energy          =    -907.6350653117474394 [Eh]
	-----------------------------------------------------------

  Dipole Moment: [D]
     X:    -2.6906      Y:     1.9049      Z:     3.5620     Total:     4.8534

*** Psi4 exiting successfully. Buy a developer a beer!
