                               Psi4 1.3.2 release

  ==> Input File <==

--------------------------------------------------------------------------
#psi4
#
memory 32 gb

molecule  {
0 1
  S        0.7637890    -0.7221230    -0.3122950
  O        0.7585576    -1.8615180     0.6136854
  O        1.1390870    -0.8496890    -1.7151490
  N        1.7366500     0.4402300     0.3626080
  N       -1.8489830    -0.7837230     0.4594430
  N       -1.3270270     1.0745880    -0.6709160
  C       -0.8811970    -0.0860610    -0.1982810
  C        1.4606880     0.7318840     1.7727460
  C        1.9603790     1.6404280    -0.4583390
  C       -2.9965950    -0.0375860     0.3980590
  C       -2.6480900     1.1053220    -0.2992680
  H        1.3484140    -0.2039780     2.3191610
  H        0.5624770     1.3529910     1.8963580
  H        2.3234150     1.2701900     2.1711160
  H        2.1708410     1.3362470    -1.4821670
  H        2.8360500     2.1503740    -0.0502520
  H        1.0944390     2.3121220    -0.4419640
  H       -1.7008040    -1.6902470     0.8932800
  H       -3.9262080    -0.3702980     0.8362390
  H       -3.2806590     1.9452040    -0.5535070
units angstrom
no_reorient  #important for SAPT in psi4, default
symmetry c1  #important for SAPT in psi4, default
}

set PROPERTIES_ORIGIN ["COM"]
properties('MP2/aug-cc-pvtz', properties = ['dipole'])
--------------------------------------------------------------------------

    Molecular point group: c1
  Charge       = 0
  Multiplicity = 1
  Basis Set: AUG-CC-PVTZ
    Blend: AUG-CC-PVTZ
  Basis Set: (AUG-CC-PVTZ AUX)
    Blend: AUG-CC-PVTZ-JKFIT

    Orbital Energies [Eh]
    ---------------------

    Doubly Occupied:

       1A    -92.215845     2A    -20.558334     3A    -20.556817
       4A    -15.655617     5A    -15.610191     6A    -15.587082
       7A    -11.338098     8A    -11.293489     9A    -11.274411
      10A    -11.273872    11A    -11.265397    12A     -9.180364
      13A     -6.865584    14A     -6.865194    15A     -6.864746
      16A     -1.464477    17A     -1.370454    18A     -1.346125
      19A     -1.256890    20A     -1.199104    21A     -1.050412
      22A     -0.980958    23A     -0.959463    24A     -0.877265
      25A     -0.840995    26A     -0.818730    27A     -0.752605
      28A     -0.710679    29A     -0.676899    30A     -0.668098
      31A     -0.642637    32A     -0.632868    33A     -0.625183
      34A     -0.617083    35A     -0.609097    36A     -0.576392
      37A     -0.570486    38A     -0.541308    39A     -0.513910
      40A     -0.508469    41A     -0.485558    42A     -0.480399
      43A     -0.471450    44A     -0.429681    45A     -0.417424
      46A     -0.346415

  @DF-RHF Final Energy:  -905.30564186512333

   => Energetics <=

    Nuclear Repulsion Energy =            797.5261241378714203
    One-Electron Energy =               -2825.9704208334410396
    Two-Electron Energy =                1123.1386548304462849
    Total Energy =                       -905.3056418651233344
  Basis Set: (AUG-CC-PVTZ AUX)
    Blend: AUG-CC-PVTZ-RI
    Molecular point group: c1

    Geometry (in Angstrom), charge = 0, multiplicity = 1:

       Center              X                  Y                   Z               Mass
    ------------   -----------------  -----------------  -----------------  -----------------
         S            0.770653233761    -0.677551508255    -0.282158250530    31.972071174400
         O            0.765421833761    -1.816946508255     0.643822149470    15.994914619570
         O            1.145951233761    -0.805117508255    -1.685012250530    15.994914619570
         N            1.743514233761     0.484801491745     0.392744749470    14.003074004430
         N           -1.842118766239    -0.739151508255     0.489579749470    14.003074004430
         N           -1.320162766239     1.119159491745    -0.640779250530    14.003074004430
         C           -0.874332766239    -0.041489508255    -0.168144250530    12.000000000000
         C            1.467552233761     0.776455491745     1.802882749470    12.000000000000
         C            1.967243233761     1.684999491745    -0.428202250530    12.000000000000
         C           -2.989730766239     0.006985491745     0.428195749470    12.000000000000
         C           -2.641225766239     1.149893491745    -0.269131250530    12.000000000000
         H            1.355278233761    -0.159406508255     2.349297749470     1.007825032230
         H            0.569341233761     1.397562491745     1.926494749470     1.007825032230
         H            2.330279233761     1.314761491745     2.201252749470     1.007825032230
         H            2.177705233761     1.380818491745    -1.452030250530     1.007825032230
         H            2.842914233761     2.194945491745    -0.020115250530     1.007825032230
         H            1.101303233761     2.356693491745    -0.411827250530     1.007825032230
         H           -1.693939766239    -1.645675508255     0.923416749470     1.007825032230
         H           -3.919343766239    -0.325726508255     0.866375749470     1.007825032230
         H           -3.273794766239     1.989775491745    -0.523370250530     1.007825032230

  Basis Set: AUG-CC-PVTZ
    Blend: AUG-CC-PVTZ
  Basis Set: (AUG-CC-PVTZ AUX)
    Blend: AUG-CC-PVTZ-JKFIT
	 Reference Energy          =    -905.3056418651233344 [Eh]
	 Singles Energy            =      -0.0000000000000000 [Eh]
	 Same-Spin Energy          =      -0.5975402118157080 [Eh]
	 Opposite-Spin Energy      =      -1.7755731599577738 [Eh]
	 Correlation Energy        =      -2.3731133717734818 [Eh]
	 Total Energy              =    -907.6787552368967908 [Eh]

	 ================> DF-SCS-MP2 Energies <==================
	-----------------------------------------------------------
	 SCS Same-Spin Scale       =       0.3333333333333333 [-]
	 SCS Opposite-Spin Scale   =       1.2000000000000000 [-]
	 SCS Same-Spin Energy      =      -0.1991800706052360 [Eh]
	 SCS Opposite-Spin Energy  =      -2.1306877919493283 [Eh]
	 SCS Correlation Energy    =      -2.3298678625545644 [Eh]
	 SCS Total Energy          =    -907.6355097276779134 [Eh]
	-----------------------------------------------------------

  Dipole Moment: [D]
     X:    -2.7317      Y:     1.8545      Z:     3.5288     Total:     4.8326

*** Psi4 exiting successfully. Buy a developer a beer!
