                               Psi4 1.3.2 release

  ==> Input File <==

--------------------------------------------------------------------------
#psi4
#
memory 32 gb

molecule  {
0 1
  S        0.7637890    -0.7221230    -0.3122950
  O        0.7428910    -1.8740890     0.5977740
  O        1.1390870    -0.8496890    -1.7151490
  N        1.8706298     0.3353721     0.3277243
  N       -1.8489830    -0.7837230     0.4594430
  N       -1.3270270     1.0745880    -0.6709160
  C       -0.8811970    -0.0860610    -0.1982810
  C        1.4606880     0.7318840     1.7727460
  C        1.9603790     1.6404280    -0.4583390
  C       -2.9965950    -0.0375860     0.3980590
  C       -2.6480900     1.1053220    -0.2992680
  H        1.3484140    -0.2039780     2.3191610
  H        0.5624770     1.3529910     1.8963580
  H        2.3234150     1.2701900     2.1711160
  H        2.1708410     1.3362470    -1.4821670
  H        2.8360500     2.1503740    -0.0502520
  H        1.0944390     2.3121220    -0.4419640
  H       -1.7008040    -1.6902470     0.8932800
  H       -3.9262080    -0.3702980     0.8362390
  H       -3.2806590     1.9452040    -0.5535070
units angstrom
no_reorient  #important for SAPT in psi4, default
symmetry c1  #important for SAPT in psi4, default
}

set PROPERTIES_ORIGIN ["COM"]
properties('MP2/aug-cc-pvtz', properties = ['dipole'])
--------------------------------------------------------------------------

    Molecular point group: c1
  Charge       = 0
  Multiplicity = 1
  Basis Set: AUG-CC-PVTZ
    Blend: AUG-CC-PVTZ
  Basis Set: (AUG-CC-PVTZ AUX)
    Blend: AUG-CC-PVTZ-JKFIT

    Orbital Energies [Eh]
    ---------------------

    Doubly Occupied:

       1A    -92.210362     2A    -20.552614     3A    -20.548511
       4A    -15.658454     5A    -15.623318     6A    -15.590389
       7A    -11.342069     8A    -11.296733     9A    -11.280922
      10A    -11.276266    11A    -11.269285    12A     -9.175804
      13A     -6.860833    14A     -6.860686    15A     -6.859991
      16A     -1.460621    17A     -1.372902    18A     -1.340627
      19A     -1.237053    20A     -1.201639    21A     -1.051585
      22A     -0.969066    23A     -0.955276    24A     -0.885701
      25A     -0.843511    26A     -0.822026    27A     -0.749189
      28A     -0.702360    29A     -0.672443    30A     -0.662393
      31A     -0.637484    32A     -0.634375    33A     -0.623491
      34A     -0.617501    35A     -0.606098    36A     -0.577770
      37A     -0.572010    38A     -0.519286    39A     -0.507945
      40A     -0.501002    41A     -0.484437    42A     -0.474526
      43A     -0.473520    44A     -0.438285    45A     -0.431557
      46A     -0.349963

  @DF-RHF Final Energy:  -905.29012672993179

   => Energetics <=

    Nuclear Repulsion Energy =            795.0784598512173034
    One-Electron Energy =               -2821.1734113484717454
    Two-Electron Energy =                1120.8048247673227706
    Total Energy =                       -905.2901267299316714
  Basis Set: (AUG-CC-PVTZ AUX)
    Blend: AUG-CC-PVTZ-RI
    Molecular point group: c1

    Geometry (in Angstrom), charge = 0, multiplicity = 1:

       Center              X                  Y                   Z               Mass
    ------------   -----------------  -----------------  -----------------  -----------------
         S            0.761366620689    -0.668014315359    -0.277913655308    31.972071174400
         O            0.740468620689    -1.819980315359     0.632155344692    15.994914619570
         O            1.136664620689    -0.795580315359    -1.680767655308    15.994914619570
         N            1.868207420689     0.389480784641     0.362105644692    14.003074004430
         N           -1.851405379311    -0.729614315359     0.493824344692    14.003074004430
         N           -1.329449379311     1.128696684641    -0.636534655308    14.003074004430
         C           -0.883619379311    -0.031952315359    -0.163899655308    12.000000000000
         C            1.458265620689     0.785992684641     1.807127344692    12.000000000000
         C            1.957956620689     1.694536684641    -0.423957655308    12.000000000000
         C           -2.999017379311     0.016522684641     0.432440344692    12.000000000000
         C           -2.650512379311     1.159430684641    -0.264886655308    12.000000000000
         H            1.345991620689    -0.149869315359     2.353542344692     1.007825032230
         H            0.560054620689     1.407099684641     1.930739344692     1.007825032230
         H            2.320992620689     1.324298684641     2.205497344692     1.007825032230
         H            2.168418620689     1.390355684641    -1.447785655308     1.007825032230
         H            2.833627620689     2.204482684641    -0.015870655308     1.007825032230
         H            1.092016620689     2.366230684641    -0.407582655308     1.007825032230
         H           -1.703226379311    -1.636138315359     0.927661344692     1.007825032230
         H           -3.928630379311    -0.316189315359     0.870620344692     1.007825032230
         H           -3.283081379311     1.999312684641    -0.519125655308     1.007825032230

  Basis Set: AUG-CC-PVTZ
    Blend: AUG-CC-PVTZ
  Basis Set: (AUG-CC-PVTZ AUX)
    Blend: AUG-CC-PVTZ-JKFIT
	 Reference Energy          =    -905.2901267299317851 [Eh]
	 Singles Energy            =      -0.0000000000000000 [Eh]
	 Same-Spin Energy          =      -0.5979480948172633 [Eh]
	 Opposite-Spin Energy      =      -1.7783419787804222 [Eh]
	 Correlation Energy        =      -2.3762900735976853 [Eh]
	 Total Energy              =    -907.6664168035295006 [Eh]

	 ================> DF-SCS-MP2 Energies <==================
	-----------------------------------------------------------
	 SCS Same-Spin Scale       =       0.3333333333333333 [-]
	 SCS Opposite-Spin Scale   =       1.2000000000000000 [-]
	 SCS Same-Spin Energy      =      -0.1993160316057544 [Eh]
	 SCS Opposite-Spin Energy  =      -2.1340103745365067 [Eh]
	 SCS Correlation Energy    =      -2.3333264061422612 [Eh]
	 SCS Total Energy          =    -907.6234531360740903 [Eh]
	-----------------------------------------------------------

  Dipole Moment: [D]
     X:    -3.0952      Y:     2.2016      Z:     3.6944     Total:     5.2987

*** Psi4 exiting successfully. Buy a developer a beer!
