                               Psi4 1.4a3.dev225

  ==> Input File <==

--------------------------------------------------------------------------
#psi4
#
memory 32 gb

molecule  {
0 1
  S        0.7637890    -0.7221230    -0.3122950
  O        0.7428910    -1.8740890     0.5977740
  O        1.1390870    -0.8496890    -1.7151490
  N        1.7366500     0.4402300     0.3626080
  N       -1.8489830    -0.7837230     0.4594430
  N       -1.3270270     1.0745880    -0.6709160
  C       -0.8669892    -0.0758188    -0.2079369
  C        1.4606880     0.7318840     1.7727460
  C        1.9603790     1.6404280    -0.4583390
  C       -2.9965950    -0.0375860     0.3980590
  C       -2.6480900     1.1053220    -0.2992680
  H        1.3484140    -0.2039780     2.3191610
  H        0.5624770     1.3529910     1.8963580
  H        2.3234150     1.2701900     2.1711160
  H        2.1708410     1.3362470    -1.4821670
  H        2.8360500     2.1503740    -0.0502520
  H        1.0944390     2.3121220    -0.4419640
  H       -1.7008040    -1.6902470     0.8932800
  H       -3.9262080    -0.3702980     0.8362390
  H       -3.2806590     1.9452040    -0.5535070
units angstrom
no_reorient  #important for SAPT in psi4, default
symmetry c1  #important for SAPT in psi4, default
}

set PROPERTIES_ORIGIN ["COM"]
properties('MP2/aug-cc-pvtz', properties = ['dipole'])
--------------------------------------------------------------------------

    Molecular point group: c1
  Charge       = 0
  Multiplicity = 1
  Basis Set: AUG-CC-PVTZ
    Blend: AUG-CC-PVTZ
  Basis Set: (AUG-CC-PVTZ AUX)
    Blend: AUG-CC-PVTZ-JKFIT

    Orbital Energies [Eh]
    ---------------------

    Doubly Occupied:

       1A    -92.215978     2A    -20.559251     3A    -20.555564
       4A    -15.653687     5A    -15.610849     6A    -15.587882
       7A    -11.337726     8A    -11.294760     9A    -11.275157
      10A    -11.273182    11A    -11.266189    12A     -9.180592
      13A     -6.865842    14A     -6.865398    15A     -6.864990
      16A     -1.464718    17A     -1.366121    18A     -1.345616
      19A     -1.257970    20A     -1.198266    21A     -1.050617
      22A     -0.981666    23A     -0.960696    24A     -0.878543
      25A     -0.840530    26A     -0.813850    27A     -0.753070
      28A     -0.710874    29A     -0.677695    30A     -0.668319
      31A     -0.643055    32A     -0.631555    33A     -0.623028
      34A     -0.616829    35A     -0.609083    36A     -0.577256
      37A     -0.571104    38A     -0.541916    39A     -0.514763
      40A     -0.508084    41A     -0.486590    42A     -0.480084
      43A     -0.471358    44A     -0.430057    45A     -0.417789
      46A     -0.345979

  @DF-RHF Final Energy:  -905.30509388262055

   => Energetics <=

    Nuclear Repulsion Energy =            797.5376797751657705
    One-Electron Energy =               -2825.9972983146431034
    Two-Electron Energy =                1123.1545246568566654
    Total Energy =                       -905.3050938826206675
  Basis Set: (AUG-CC-PVTZ AUX)
    Blend: AUG-CC-PVTZ-RI
    Molecular point group: c1

    Geometry (in Angstrom), charge = 0, multiplicity = 1:

       Center              X                  Y                   Z               Mass
    ------------   -----------------  -----------------  -----------------  -----------------
         S            0.771110795582    -0.677104953293    -0.280042339826    31.972071174400
         O            0.750212795582    -1.829070953293     0.630026660174    15.994914619570
         O            1.146408795582    -0.804670953293    -1.682896339826    15.994914619570
         N            1.743971795582     0.485248046707     0.394860660174    14.003074004430
         N           -1.841661204418    -0.738704953293     0.491695660174    14.003074004430
         N           -1.319705204418     1.119606046707    -0.638663339826    14.003074004430
         C           -0.859667404418    -0.030800753293    -0.175684239826    12.000000000000
         C            1.468009795582     0.776902046707     1.804998660174    12.000000000000
         C            1.967700795582     1.685446046707    -0.426086339826    12.000000000000
         C           -2.989273204418     0.007432046707     0.430311660174    12.000000000000
         C           -2.640768204418     1.150340046707    -0.267015339826    12.000000000000
         H            1.355735795582    -0.158959953293     2.351413660174     1.007825032230
         H            0.569798795582     1.398009046707     1.928610660174     1.007825032230
         H            2.330736795582     1.315208046707     2.203368660174     1.007825032230
         H            2.178162795582     1.381265046707    -1.449914339826     1.007825032230
         H            2.843371795582     2.195392046707    -0.017999339826     1.007825032230
         H            1.101760795582     2.357140046707    -0.409711339826     1.007825032230
         H           -1.693482204418    -1.645228953293     0.925532660174     1.007825032230
         H           -3.918886204418    -0.325279953293     0.868491660174     1.007825032230
         H           -3.273337204418     1.990222046707    -0.521254339826     1.007825032230

  Basis Set: AUG-CC-PVTZ
    Blend: AUG-CC-PVTZ
  Basis Set: (AUG-CC-PVTZ AUX)
    Blend: AUG-CC-PVTZ-JKFIT
	 Reference Energy          =    -905.3050938826205538 [Eh]
	 Singles Energy            =      -0.0000000000000000 [Eh]
	 Same-Spin Energy          =      -0.5975528627538074 [Eh]
	 Opposite-Spin Energy      =      -1.7756749250758102 [Eh]
	 Correlation Energy        =      -2.3732277878296175 [Eh]
	 Total Energy              =    -907.6783216704501456 [Eh]

	 ================> DF-SCS-MP2 Energies <==================
	-----------------------------------------------------------
	 SCS Same-Spin Scale       =       0.3333333333333333 [-]
	 SCS Opposite-Spin Scale   =       1.2000000000000000 [-]
	 SCS Same-Spin Energy      =      -0.1991842875846024 [Eh]
	 SCS Opposite-Spin Energy  =      -2.1308099100909721 [Eh]
	 SCS Correlation Energy    =      -2.3299941976755747 [Eh]
	 SCS Total Energy          =    -907.6350880802961001 [Eh]
	-----------------------------------------------------------

  Dipole Moment: [D]
     X:    -2.6860      Y:     1.9093      Z:     3.5591     Total:     4.8505

*** Psi4 exiting successfully. Buy a developer a beer!
