                               Psi4 1.3.2 release

  ==> Input File <==

--------------------------------------------------------------------------
#psi4
#
memory 32 gb

molecule  {
0 1
  S        0.7637890    -0.7221230    -0.3122950
  O        0.7428910    -1.8740890     0.5977740
  O        1.1390870    -0.8496890    -1.7151490
  N        1.7366500     0.4402300     0.3626080
  N       -1.8263306    -0.7493524     0.4350918
  N       -1.3270270     1.0745880    -0.6709160
  C       -0.8811970    -0.0860610    -0.1982810
  C        1.4606880     0.7318840     1.7727460
  C        1.9603790     1.6404280    -0.4583390
  C       -2.9965950    -0.0375860     0.3980590
  C       -2.6480900     1.1053220    -0.2992680
  H        1.3484140    -0.2039780     2.3191610
  H        0.5624770     1.3529910     1.8963580
  H        2.3234150     1.2701900     2.1711160
  H        2.1708410     1.3362470    -1.4821670
  H        2.8360500     2.1503740    -0.0502520
  H        1.0944390     2.3121220    -0.4419640
  H       -1.7008040    -1.6902470     0.8932800
  H       -3.9262080    -0.3702980     0.8362390
  H       -3.2806590     1.9452040    -0.5535070
units angstrom
no_reorient  #important for SAPT in psi4, default
symmetry c1  #important for SAPT in psi4, default
}

set PROPERTIES_ORIGIN ["COM"]
properties('MP2/aug-cc-pvtz', properties = ['dipole'])
--------------------------------------------------------------------------

    Molecular point group: c1
  Charge       = 0
  Multiplicity = 1
  Basis Set: AUG-CC-PVTZ
    Blend: AUG-CC-PVTZ
  Basis Set: (AUG-CC-PVTZ AUX)
    Blend: AUG-CC-PVTZ-JKFIT

    Orbital Energies [Eh]
    ---------------------

    Doubly Occupied:

       1A    -92.216271     2A    -20.559143     3A    -20.556381
       4A    -15.657540     5A    -15.611632     6A    -15.580173
       7A    -11.333291     8A    -11.289375     9A    -11.275544
      10A    -11.272981    11A    -11.265928    12A     -9.180838
      13A     -6.866055    14A     -6.865652    15A     -6.865228
      16A     -1.465229    17A     -1.380408    18A     -1.346033
      19A     -1.258275    20A     -1.193826    21A     -1.054406
      22A     -0.981827    23A     -0.960170    24A     -0.873534
      25A     -0.837185    26A     -0.823099    27A     -0.753290
      28A     -0.711288    29A     -0.678383    30A     -0.668757
      31A     -0.645216    32A     -0.630601    33A     -0.628072
      34A     -0.615230    35A     -0.608108    36A     -0.577482
      37A     -0.571116    38A     -0.542046    39A     -0.514515
      40A     -0.508269    41A     -0.484394    42A     -0.480493
      43A     -0.468976    44A     -0.425467    45A     -0.418300
      46A     -0.347813

  @DF-RHF Final Energy:  -905.30300245420585

   => Energetics <=

    Nuclear Repulsion Energy =            798.7819681170751664
    One-Electron Energy =               -2828.4742654490037239
    Two-Electron Energy =                1124.3892948777227048
    Total Energy =                       -905.3030024542058527
  Basis Set: (AUG-CC-PVTZ AUX)
    Blend: AUG-CC-PVTZ-RI
    Molecular point group: c1

    Geometry (in Angstrom), charge = 0, multiplicity = 1:

       Center              X                  Y                   Z               Mass
    ------------   -----------------  -----------------  -----------------  -----------------
         S            0.770272653807    -0.679152396657    -0.278756240276    31.972071174400
         O            0.749374653807    -1.831118396657     0.631312759724    15.994914619570
         O            1.145570653807    -0.806718396657    -1.681610240276    15.994914619570
         N            1.743133653807     0.483200603343     0.396146759724    14.003074004430
         N           -1.819846946193    -0.706381796657     0.468630559724    14.003074004430
         N           -1.320543346193     1.117558603343    -0.637377240276    14.003074004430
         C           -0.874713346193    -0.043090396657    -0.164742240276    12.000000000000
         C            1.467171653807     0.774854603343     1.806284759724    12.000000000000
         C            1.966862653807     1.683398603343    -0.424800240276    12.000000000000
         C           -2.990111346193     0.005384603343     0.431597759724    12.000000000000
         C           -2.641606346193     1.148292603343    -0.265729240276    12.000000000000
         H            1.354897653807    -0.161007396657     2.352699759724     1.007825032230
         H            0.568960653807     1.395961603343     1.929896759724     1.007825032230
         H            2.329898653807     1.313160603343     2.204654759724     1.007825032230
         H            2.177324653807     1.379217603343    -1.448628240276     1.007825032230
         H            2.842533653807     2.193344603343    -0.016713240276     1.007825032230
         H            1.100922653807     2.355092603343    -0.408425240276     1.007825032230
         H           -1.694320346193    -1.647276396657     0.926818759724     1.007825032230
         H           -3.919724346193    -0.327327396657     0.869777759724     1.007825032230
         H           -3.274175346193     1.988174603343    -0.519968240276     1.007825032230

  Basis Set: AUG-CC-PVTZ
    Blend: AUG-CC-PVTZ
  Basis Set: (AUG-CC-PVTZ AUX)
    Blend: AUG-CC-PVTZ-JKFIT
	 Reference Energy          =    -905.3030024542058527 [Eh]
	 Singles Energy            =      -0.0000000000000000 [Eh]
	 Same-Spin Energy          =      -0.5976453024874211 [Eh]
	 Opposite-Spin Energy      =      -1.7751111071200751 [Eh]
	 Correlation Energy        =      -2.3727564096074962 [Eh]
	 Total Energy              =    -907.6757588638133711 [Eh]

	 ================> DF-SCS-MP2 Energies <==================
	-----------------------------------------------------------
	 SCS Same-Spin Scale       =       0.3333333333333333 [-]
	 SCS Opposite-Spin Scale   =       1.2000000000000000 [-]
	 SCS Same-Spin Energy      =      -0.1992151008291403 [Eh]
	 SCS Opposite-Spin Energy  =      -2.1301333285440900 [Eh]
	 SCS Correlation Energy    =      -2.3293484293732303 [Eh]
	 SCS Total Energy          =    -907.6323508835790790 [Eh]
	-----------------------------------------------------------

  Dipole Moment: [D]
     X:    -2.6751      Y:     1.7929      Z:     3.6212     Total:     4.8460

*** Psi4 exiting successfully. Buy a developer a beer!
