                               Psi4 1.3.2 release

  ==> Input File <==

--------------------------------------------------------------------------
#psi4
#
memory 32 gb

molecule  {
0 1
  S        0.7637890    -0.7221230    -0.3122950
  O        0.8055479    -1.8217384     0.6597081
  O        1.1390870    -0.8496890    -1.7151490
  N        1.7366500     0.4402300     0.3626080
  N       -1.8489830    -0.7837230     0.4594430
  N       -1.3270270     1.0745880    -0.6709160
  C       -0.8811970    -0.0860610    -0.1982810
  C        1.4606880     0.7318840     1.7727460
  C        1.9603790     1.6404280    -0.4583390
  C       -2.9965950    -0.0375860     0.3980590
  C       -2.6480900     1.1053220    -0.2992680
  H        1.3484140    -0.2039780     2.3191610
  H        0.5624770     1.3529910     1.8963580
  H        2.3234150     1.2701900     2.1711160
  H        2.1708410     1.3362470    -1.4821670
  H        2.8360500     2.1503740    -0.0502520
  H        1.0944390     2.3121220    -0.4419640
  H       -1.7008040    -1.6902470     0.8932800
  H       -3.9262080    -0.3702980     0.8362390
  H       -3.2806590     1.9452040    -0.5535070
units angstrom
no_reorient  #important for SAPT in psi4, default
symmetry c1  #important for SAPT in psi4, default
}

set PROPERTIES_ORIGIN ["COM"]
properties('MP2/aug-cc-pvtz', properties = ['dipole'])
--------------------------------------------------------------------------

    Molecular point group: c1
  Charge       = 0
  Multiplicity = 1
  Basis Set: AUG-CC-PVTZ
    Blend: AUG-CC-PVTZ
  Basis Set: (AUG-CC-PVTZ AUX)
    Blend: AUG-CC-PVTZ-JKFIT

    Orbital Energies [Eh]
    ---------------------

    Doubly Occupied:

       1A    -92.215843     2A    -20.559534     3A    -20.557644
       4A    -15.657007     5A    -15.606697     6A    -15.588309
       7A    -11.339902     8A    -11.294545     9A    -11.274900
      10A    -11.271698    11A    -11.263138    12A     -9.180381
      13A     -6.865611    14A     -6.865251    15A     -6.864718
      16A     -1.464915    17A     -1.371739    18A     -1.348192
      19A     -1.253306    20A     -1.200309    21A     -1.051660
      22A     -0.978593    23A     -0.957899    24A     -0.877594
      25A     -0.842262    26A     -0.819761    27A     -0.751607
      28A     -0.710550    29A     -0.677067    30A     -0.667845
      31A     -0.642553    32A     -0.633641    33A     -0.625196
      34A     -0.617317    35A     -0.609693    36A     -0.573807
      37A     -0.568489    38A     -0.539307    39A     -0.513534
      40A     -0.510066    41A     -0.485735    42A     -0.481110
      43A     -0.471223    44A     -0.430773    45A     -0.415295
      46A     -0.347361

  @DF-RHF Final Energy:  -905.30374839415163

   => Energetics <=

    Nuclear Repulsion Energy =            797.7259135418843243
    One-Electron Energy =               -2826.3721694325249700
    Two-Electron Energy =                1123.3425074964889063
    Total Energy =                       -905.3037483941516257
  Basis Set: (AUG-CC-PVTZ AUX)
    Blend: AUG-CC-PVTZ-RI
    Molecular point group: c1

    Geometry (in Angstrom), charge = 0, multiplicity = 1:

       Center              X                  Y                   Z               Mass
    ------------   -----------------  -----------------  -----------------  -----------------
         S            0.766359362698    -0.681186481288    -0.286363704416    31.972071174400
         O            0.808118262698    -1.780801881288     0.685639395584    15.994914619570
         O            1.141657362698    -0.808752481288    -1.689217704416    15.994914619570
         N            1.739220362698     0.481166518712     0.388539295584    14.003074004430
         N           -1.846412637302    -0.742786481288     0.485374295584    14.003074004430
         N           -1.324456637302     1.115524518712    -0.644984704416    14.003074004430
         C           -0.878626637302    -0.045124481288    -0.172349704416    12.000000000000
         C            1.463258362698     0.772820518712     1.798677295584    12.000000000000
         C            1.962949362698     1.681364518712    -0.432407704416    12.000000000000
         C           -2.994024637302     0.003350518712     0.423990295584    12.000000000000
         C           -2.645519637302     1.146258518712    -0.273336704416    12.000000000000
         H            1.350984362698    -0.163041481288     2.345092295584     1.007825032230
         H            0.565047362698     1.393927518712     1.922289295584     1.007825032230
         H            2.325985362698     1.311126518712     2.197047295584     1.007825032230
         H            2.173411362698     1.377183518712    -1.456235704416     1.007825032230
         H            2.838620362698     2.191310518712    -0.024320704416     1.007825032230
         H            1.097009362698     2.353058518712    -0.416032704416     1.007825032230
         H           -1.698233637302    -1.649310481288     0.919211295584     1.007825032230
         H           -3.923637637302    -0.329361481288     0.862170295584     1.007825032230
         H           -3.278088637302     1.986140518712    -0.527575704416     1.007825032230

  Basis Set: AUG-CC-PVTZ
    Blend: AUG-CC-PVTZ
  Basis Set: (AUG-CC-PVTZ AUX)
    Blend: AUG-CC-PVTZ-JKFIT
	 Reference Energy          =    -905.3037483941516257 [Eh]
	 Singles Energy            =      -0.0000000000000000 [Eh]
	 Same-Spin Energy          =      -0.5977891955717899 [Eh]
	 Opposite-Spin Energy      =      -1.7760372576662564 [Eh]
	 Correlation Energy        =      -2.3738264532380464 [Eh]
	 Total Energy              =    -907.6775748473896783 [Eh]

	 ================> DF-SCS-MP2 Energies <==================
	-----------------------------------------------------------
	 SCS Same-Spin Scale       =       0.3333333333333333 [-]
	 SCS Opposite-Spin Scale   =       1.2000000000000000 [-]
	 SCS Same-Spin Energy      =      -0.1992630651905966 [Eh]
	 SCS Opposite-Spin Energy  =      -2.1312447091995077 [Eh]
	 SCS Correlation Energy    =      -2.3305077743901044 [Eh]
	 SCS Total Energy          =    -907.6342561685416968 [Eh]
	-----------------------------------------------------------

  Dipole Moment: [D]
     X:    -2.8838      Y:     1.7399      Z:     3.4083     Total:     4.7917

*** Psi4 exiting successfully. Buy a developer a beer!
