                               Psi4 1.3.2 release

  ==> Input File <==

--------------------------------------------------------------------------
#psi4
#
memory 32 gb

molecule  {
0 1
  S        0.8057220    -0.5695848    -0.4081909
  O        0.7428910    -1.8740890     0.5977740
  O        1.1390870    -0.8496890    -1.7151490
  N        1.7366500     0.4402300     0.3626080
  N       -1.8489830    -0.7837230     0.4594430
  N       -1.3270270     1.0745880    -0.6709160
  C       -0.8811970    -0.0860610    -0.1982810
  C        1.4606880     0.7318840     1.7727460
  C        1.9603790     1.6404280    -0.4583390
  C       -2.9965950    -0.0375860     0.3980590
  C       -2.6480900     1.1053220    -0.2992680
  H        1.3484140    -0.2039780     2.3191610
  H        0.5624770     1.3529910     1.8963580
  H        2.3234150     1.2701900     2.1711160
  H        2.1708410     1.3362470    -1.4821670
  H        2.8360500     2.1503740    -0.0502520
  H        1.0944390     2.3121220    -0.4419640
  H       -1.7008040    -1.6902470     0.8932800
  H       -3.9262080    -0.3702980     0.8362390
  H       -3.2806590     1.9452040    -0.5535070
units angstrom
no_reorient  #important for SAPT in psi4, default
symmetry c1  #important for SAPT in psi4, default
}

set PROPERTIES_ORIGIN ["COM"]
properties('MP2/aug-cc-pvtz', properties = ['dipole'])
--------------------------------------------------------------------------

    Molecular point group: c1
  Charge       = 0
  Multiplicity = 1
  Basis Set: AUG-CC-PVTZ
    Blend: AUG-CC-PVTZ
  Basis Set: (AUG-CC-PVTZ AUX)
    Blend: AUG-CC-PVTZ-JKFIT

    Orbital Energies [Eh]
    ---------------------

    Doubly Occupied:

       1A    -92.206726     2A    -20.574164     3A    -20.513254
       4A    -15.652721     5A    -15.625938     6A    -15.585274
       7A    -11.336878     8A    -11.292523     9A    -11.284922
      10A    -11.279325    11A    -11.271078    12A     -9.175232
      13A     -6.860297    14A     -6.859794    15A     -6.859091
      16A     -1.489272    17A     -1.369674    18A     -1.313134
      19A     -1.242006    20A     -1.197029    21A     -1.047456
      22A     -0.997567    23A     -0.976893    24A     -0.882841
      25A     -0.834687    26A     -0.819800    27A     -0.759244
      28A     -0.715579    29A     -0.687216    30A     -0.677847
      31A     -0.648051    32A     -0.632330    33A     -0.625649
      34A     -0.613765    35A     -0.607738    36A     -0.584616
      37A     -0.579103    38A     -0.555589    39A     -0.526900
      40A     -0.484883    41A     -0.480354    42A     -0.438514
      43A     -0.435861    44A     -0.433728    45A     -0.427048
      46A     -0.345373

  @DF-RHF Final Energy:  -905.25693646845423

   => Energetics <=

    Nuclear Repulsion Energy =            798.6485722680813524
    One-Electron Energy =               -2828.1970883537542250
    Two-Electron Energy =                1124.2915796172185310
    Total Energy =                       -905.2569364684543416
  Basis Set: (AUG-CC-PVTZ AUX)
    Blend: AUG-CC-PVTZ-RI
    Molecular point group: c1

    Geometry (in Angstrom), charge = 0, multiplicity = 1:

       Center              X                  Y                   Z               Mass
    ------------   -----------------  -----------------  -----------------  -----------------
         S            0.806358575554    -0.551726338256    -0.359084414099    31.972071174400
         O            0.743527575554    -1.856230538256     0.646880485901    15.994914619570
         O            1.139723575554    -0.831830538256    -1.666042514099    15.994914619570
         N            1.737286575554     0.458088461744     0.411714485901    14.003074004430
         N           -1.848346424446    -0.765864538256     0.508549485901    14.003074004430
         N           -1.326390424446     1.092446461744    -0.621809514099    14.003074004430
         C           -0.880560424446    -0.068202538256    -0.149174514099    12.000000000000
         C            1.461324575554     0.749742461744     1.821852485901    12.000000000000
         C            1.961015575554     1.658286461744    -0.409232514099    12.000000000000
         C           -2.995958424446    -0.019727538256     0.447165485901    12.000000000000
         C           -2.647453424446     1.123180461744    -0.250161514099    12.000000000000
         H            1.349050575554    -0.186119538256     2.368267485901     1.007825032230
         H            0.563113575554     1.370849461744     1.945464485901     1.007825032230
         H            2.324051575554     1.288048461744     2.220222485901     1.007825032230
         H            2.171477575554     1.354105461744    -1.433060514099     1.007825032230
         H            2.836686575554     2.168232461744    -0.001145514099     1.007825032230
         H            1.095075575554     2.329980461744    -0.392857514099     1.007825032230
         H           -1.700167424446    -1.672388538256     0.942386485901     1.007825032230
         H           -3.925571424446    -0.352439538256     0.885345485901     1.007825032230
         H           -3.280022424446     1.963062461744    -0.504400514099     1.007825032230

  Basis Set: AUG-CC-PVTZ
    Blend: AUG-CC-PVTZ
  Basis Set: (AUG-CC-PVTZ AUX)
    Blend: AUG-CC-PVTZ-JKFIT
	 Reference Energy          =    -905.2569364684542279 [Eh]
	 Singles Energy            =      -0.0000000000000000 [Eh]
	 Same-Spin Energy          =      -0.5982114253375348 [Eh]
	 Opposite-Spin Energy      =      -1.7775930386680723 [Eh]
	 Correlation Energy        =      -2.3758044640056069 [Eh]
	 Total Energy              =    -907.6327409324597966 [Eh]

	 ================> DF-SCS-MP2 Energies <==================
	-----------------------------------------------------------
	 SCS Same-Spin Scale       =       0.3333333333333333 [-]
	 SCS Opposite-Spin Scale   =       1.2000000000000000 [-]
	 SCS Same-Spin Energy      =      -0.1994038084458449 [Eh]
	 SCS Opposite-Spin Energy  =      -2.1331116464016868 [Eh]
	 SCS Correlation Energy    =      -2.3325154548475320 [Eh]
	 SCS Total Energy          =    -907.5894519233017945 [Eh]
	-----------------------------------------------------------

  Dipole Moment: [D]
     X:    -2.1890      Y:     3.3440      Z:     2.8643     Total:     4.9171

*** Psi4 exiting successfully. Buy a developer a beer!
