                               Psi4 1.3.2 release

  ==> Input File <==

--------------------------------------------------------------------------
#psi4
#
memory 32 gb

molecule  {
0 1
  S        0.7637890    -0.7221230    -0.3122950
  O        0.7428910    -1.8740890     0.5977740
  O        1.1390870    -0.8496890    -1.7151490
  N        1.7366500     0.4402300     0.3626080
  N       -1.8489830    -0.7837230     0.4594430
  N       -1.3270270     1.0745880    -0.6709160
  C       -0.9130469    -0.0518919    -0.2071825
  C        1.4606880     0.7318840     1.7727460
  C        1.9603790     1.6404280    -0.4583390
  C       -2.9965950    -0.0375860     0.3980590
  C       -2.6480900     1.1053220    -0.2992680
  H        1.3484140    -0.2039780     2.3191610
  H        0.5624770     1.3529910     1.8963580
  H        2.3234150     1.2701900     2.1711160
  H        2.1708410     1.3362470    -1.4821670
  H        2.8360500     2.1503740    -0.0502520
  H        1.0944390     2.3121220    -0.4419640
  H       -1.7008040    -1.6902470     0.8932800
  H       -3.9262080    -0.3702980     0.8362390
  H       -3.2806590     1.9452040    -0.5535070
units angstrom
no_reorient  #important for SAPT in psi4, default
symmetry c1  #important for SAPT in psi4, default
}

set PROPERTIES_ORIGIN ["COM"]
properties('MP2/aug-cc-pvtz', properties = ['dipole'])
--------------------------------------------------------------------------

    Molecular point group: c1
  Charge       = 0
  Multiplicity = 1
  Basis Set: AUG-CC-PVTZ
    Blend: AUG-CC-PVTZ
  Basis Set: (AUG-CC-PVTZ AUX)
    Blend: AUG-CC-PVTZ-JKFIT

    Orbital Energies [Eh]
    ---------------------

    Doubly Occupied:

       1A    -92.214797     2A    -20.559479     3A    -20.555491
       4A    -15.650768     5A    -15.610849     6A    -15.583499
       7A    -11.337520     8A    -11.292198     9A    -11.275410
      10A    -11.272324    11A    -11.266318    12A     -9.179142
      13A     -6.864311    14A     -6.863843    15A     -6.863537
      16A     -1.462960    17A     -1.377033    18A     -1.345269
      19A     -1.257671    20A     -1.209202    21A     -1.045543
      22A     -0.981780    23A     -0.958059    24A     -0.871837
      25A     -0.842575    26A     -0.820463    27A     -0.752730
      28A     -0.709949    29A     -0.675860    30A     -0.667600
      31A     -0.643034    32A     -0.634759    33A     -0.626383
      34A     -0.616684    35A     -0.609582    36A     -0.577338
      37A     -0.571365    38A     -0.542035    39A     -0.513612
      40A     -0.507613    41A     -0.491132    42A     -0.479895
      43A     -0.468334    44A     -0.434911    45A     -0.415628
      46A     -0.347047

  @DF-RHF Final Energy:  -905.30657807230955

   => Energetics <=

    Nuclear Repulsion Energy =            797.2633298806346147
    One-Electron Energy =               -2825.4450820586034752
    Two-Electron Energy =                1122.8751741056594255
    Total Energy =                       -905.3065780723095486
  Basis Set: (AUG-CC-PVTZ AUX)
    Blend: AUG-CC-PVTZ-RI
    Molecular point group: c1

    Geometry (in Angstrom), charge = 0, multiplicity = 1:

       Center              X                  Y                   Z               Mass
    ------------   -----------------  -----------------  -----------------  -----------------
         S            0.774268288230    -0.678745265572    -0.280094057833    31.972071174400
         O            0.753370288230    -1.830711265572     0.629974942167    15.994914619570
         O            1.149566288230    -0.806311265572    -1.682948057833    15.994914619570
         N            1.747129288230     0.483607734428     0.394808942167    14.003074004430
         N           -1.838503711770    -0.740345265572     0.491643942167    14.003074004430
         N           -1.316547711770     1.117965734428    -0.638715057833    14.003074004430
         C           -0.902567611770    -0.008514165572    -0.174981557833    12.000000000000
         C            1.471167288230     0.775261734428     1.804946942167    12.000000000000
         C            1.970858288230     1.683805734428    -0.426138057833    12.000000000000
         C           -2.986115711770     0.005791734428     0.430259942167    12.000000000000
         C           -2.637610711770     1.148699734428    -0.267067057833    12.000000000000
         H            1.358893288230    -0.160600265572     2.351361942167     1.007825032230
         H            0.572956288230     1.396368734428     1.928558942167     1.007825032230
         H            2.333894288230     1.313567734428     2.203316942167     1.007825032230
         H            2.181320288230     1.379624734428    -1.449966057833     1.007825032230
         H            2.846529288230     2.193751734428    -0.018051057833     1.007825032230
         H            1.104918288230     2.355499734428    -0.409763057833     1.007825032230
         H           -1.690324711770    -1.646869265572     0.925480942167     1.007825032230
         H           -3.915728711770    -0.326920265572     0.868439942167     1.007825032230
         H           -3.270179711770     1.988581734428    -0.521306057833     1.007825032230

  Basis Set: AUG-CC-PVTZ
    Blend: AUG-CC-PVTZ
  Basis Set: (AUG-CC-PVTZ AUX)
    Blend: AUG-CC-PVTZ-JKFIT
	 Reference Energy          =    -905.3065780723095486 [Eh]
	 Singles Energy            =      -0.0000000000000000 [Eh]
	 Same-Spin Energy          =      -0.5962249216666501 [Eh]
	 Opposite-Spin Energy      =      -1.7735647478321837 [Eh]
	 Correlation Energy        =      -2.3697896694988336 [Eh]
	 Total Energy              =    -907.6763677418083489 [Eh]

	 ================> DF-SCS-MP2 Energies <==================
	-----------------------------------------------------------
	 SCS Same-Spin Scale       =       0.3333333333333333 [-]
	 SCS Opposite-Spin Scale   =       1.2000000000000000 [-]
	 SCS Same-Spin Energy      =      -0.1987416405555500 [Eh]
	 SCS Opposite-Spin Energy  =      -2.1282776973986204 [Eh]
	 SCS Correlation Energy    =      -2.3270193379541704 [Eh]
	 SCS Total Energy          =    -907.6335974102637465 [Eh]
	-----------------------------------------------------------

  Dipole Moment: [D]
     X:    -2.5946      Y:     1.8969      Z:     3.5403     Total:     4.7816

*** Psi4 exiting successfully. Buy a developer a beer!
