                               Psi4 1.3.2 release

  ==> Input File <==

--------------------------------------------------------------------------
#psi4
#
memory 32 gb

molecule  {
0 1
  S        0.7637890    -0.7221230    -0.3122950
  O        0.7428910    -1.8740890     0.5977740
  O        1.1390870    -0.8496890    -1.7151490
  N        1.7366500     0.4402300     0.3626080
  N       -1.8489830    -0.7837230     0.4594430
  N       -1.3296666     1.0960170    -0.6812986
  C       -0.8811970    -0.0860610    -0.1982810
  C        1.4606880     0.7318840     1.7727460
  C        1.9603790     1.6404280    -0.4583390
  C       -2.9965950    -0.0375860     0.3980590
  C       -2.6480900     1.1053220    -0.2992680
  H        1.3484140    -0.2039780     2.3191610
  H        0.5624770     1.3529910     1.8963580
  H        2.3234150     1.2701900     2.1711160
  H        2.1708410     1.3362470    -1.4821670
  H        2.8360500     2.1503740    -0.0502520
  H        1.0944390     2.3121220    -0.4419640
  H       -1.7008040    -1.6902470     0.8932800
  H       -3.9262080    -0.3702980     0.8362390
  H       -3.2806590     1.9452040    -0.5535070
units angstrom
no_reorient  #important for SAPT in psi4, default
symmetry c1  #important for SAPT in psi4, default
}

set PROPERTIES_ORIGIN ["COM"]
properties('MP2/aug-cc-pvtz', properties = ['dipole'])
--------------------------------------------------------------------------

    Molecular point group: c1
  Charge       = 0
  Multiplicity = 1
  Basis Set: AUG-CC-PVTZ
    Blend: AUG-CC-PVTZ
  Basis Set: (AUG-CC-PVTZ AUX)
    Blend: AUG-CC-PVTZ-JKFIT

    Orbital Energies [Eh]
    ---------------------

    Doubly Occupied:

       1A    -92.216097     2A    -20.558688     3A    -20.555955
       4A    -15.658156     5A    -15.611355     6A    -15.590123
       7A    -11.340201     8A    -11.292880     9A    -11.275263
      10A    -11.274126    11A    -11.266053    12A     -9.180563
      13A     -6.865785    14A     -6.865384    15A     -6.864961
      16A     -1.464383    17A     -1.367510    18A     -1.345437
      19A     -1.258026    20A     -1.196950    21A     -1.048785
      22A     -0.981700    23A     -0.959886    24A     -0.878333
      25A     -0.838963    26A     -0.818999    27A     -0.752522
      28A     -0.710662    29A     -0.675984    30A     -0.668230
      31A     -0.642209    32A     -0.633202    33A     -0.624444
      34A     -0.615952    35A     -0.606952    36A     -0.577128
      37A     -0.571096    38A     -0.541943    39A     -0.513824
      40A     -0.508016    41A     -0.484466    42A     -0.480153
      43A     -0.474277    44A     -0.428596    45A     -0.418552
      46A     -0.344724

  @DF-RHF Final Energy:  -905.30306146537009

   => Energetics <=

    Nuclear Repulsion Energy =            796.7596581386284242
    One-Electron Energy =               -2824.4304580259699833
    Two-Electron Energy =                1122.3677384219715805
    Total Energy =                       -905.3030614653700923
  Basis Set: (AUG-CC-PVTZ AUX)
    Blend: AUG-CC-PVTZ-RI
    Molecular point group: c1

    Geometry (in Angstrom), charge = 0, multiplicity = 1:

       Center              X                  Y                   Z               Mass
    ------------   -----------------  -----------------  -----------------  -----------------
         S            0.772295977711    -0.678117087127    -0.279873708341    31.972071174400
         O            0.751397977711    -1.830083087127     0.630195291659    15.994914619570
         O            1.147593977711    -0.805683087127    -1.682727708341    15.994914619570
         N            1.745156977711     0.484235912873     0.395029291659    14.003074004430
         N           -1.840476022289    -0.739717087127     0.491864291659    14.003074004430
         N           -1.321159622289     1.140022912873    -0.648877308341    14.003074004430
         C           -0.872690022289    -0.042055087127    -0.165859708341    12.000000000000
         C            1.469194977711     0.775889912873     1.805167291659    12.000000000000
         C            1.968885977711     1.684433912873    -0.425917708341    12.000000000000
         C           -2.988088022289     0.006419912873     0.430480291659    12.000000000000
         C           -2.639583022289     1.149327912873    -0.266846708341    12.000000000000
         H            1.356920977711    -0.159972087127     2.351582291659     1.007825032230
         H            0.570983977711     1.396996912873     1.928779291659     1.007825032230
         H            2.331921977711     1.314195912873     2.203537291659     1.007825032230
         H            2.179347977711     1.380252912873    -1.449745708341     1.007825032230
         H            2.844556977711     2.194379912873    -0.017830708341     1.007825032230
         H            1.102945977711     2.356127912873    -0.409542708341     1.007825032230
         H           -1.692297022289    -1.646241087127     0.925701291659     1.007825032230
         H           -3.917701022289    -0.326292087127     0.868660291659     1.007825032230
         H           -3.272152022289     1.989209912873    -0.521085708341     1.007825032230

  Basis Set: AUG-CC-PVTZ
    Blend: AUG-CC-PVTZ
  Basis Set: (AUG-CC-PVTZ AUX)
    Blend: AUG-CC-PVTZ-JKFIT
	 Reference Energy          =    -905.3030614653700923 [Eh]
	 Singles Energy            =      -0.0000000000000000 [Eh]
	 Same-Spin Energy          =      -0.5980755274133965 [Eh]
	 Opposite-Spin Energy      =      -1.7767115663154880 [Eh]
	 Correlation Energy        =      -2.3747870937288846 [Eh]
	 Total Energy              =    -907.6778485590989476 [Eh]

	 ================> DF-SCS-MP2 Energies <==================
	-----------------------------------------------------------
	 SCS Same-Spin Scale       =       0.3333333333333333 [-]
	 SCS Opposite-Spin Scale   =       1.2000000000000000 [-]
	 SCS Same-Spin Energy      =      -0.1993585091377988 [Eh]
	 SCS Opposite-Spin Energy  =      -2.1320538795785855 [Eh]
	 SCS Correlation Energy    =      -2.3314123887163842 [Eh]
	 SCS Total Energy          =    -907.6344738540864228 [Eh]
	-----------------------------------------------------------

  Dipole Moment: [D]
     X:    -2.6971      Y:     1.8481      Z:     3.5942     Total:     4.8588

*** Psi4 exiting successfully. Buy a developer a beer!
