                               Psi4 1.3.2 release

  ==> Input File <==

--------------------------------------------------------------------------
#psi4
#
memory 32 gb

molecule  {
0 1
  S        0.7637890    -0.7221230    -0.3122950
  O        0.7428910    -1.8740890     0.5977740
  O        1.1390870    -0.8496890    -1.7151490
  N        1.7366500     0.4402300     0.3626080
  N       -1.8051039    -0.7141147     0.4106955
  N       -1.3270270     1.0745880    -0.6709160
  C       -0.8811970    -0.0860610    -0.1982810
  C        1.4606880     0.7318840     1.7727460
  C        1.9603790     1.6404280    -0.4583390
  C       -2.9965950    -0.0375860     0.3980590
  C       -2.6480900     1.1053220    -0.2992680
  H        1.3484140    -0.2039780     2.3191610
  H        0.5624770     1.3529910     1.8963580
  H        2.3234150     1.2701900     2.1711160
  H        2.1708410     1.3362470    -1.4821670
  H        2.8360500     2.1503740    -0.0502520
  H        1.0944390     2.3121220    -0.4419640
  H       -1.7008040    -1.6902470     0.8932800
  H       -3.9262080    -0.3702980     0.8362390
  H       -3.2806590     1.9452040    -0.5535070
units angstrom
no_reorient  #important for SAPT in psi4, default
symmetry c1  #important for SAPT in psi4, default
}

set PROPERTIES_ORIGIN ["COM"]
properties('MP2/aug-cc-pvtz', properties = ['dipole'])
--------------------------------------------------------------------------

    Molecular point group: c1
  Charge       = 0
  Multiplicity = 1
  Basis Set: AUG-CC-PVTZ
    Blend: AUG-CC-PVTZ
  Basis Set: (AUG-CC-PVTZ AUX)
    Blend: AUG-CC-PVTZ-JKFIT

    Orbital Energies [Eh]
    ---------------------

    Doubly Occupied:

       1A    -92.216837     2A    -20.559860     3A    -20.557004
       4A    -15.659615     5A    -15.612078     6A    -15.573596
       7A    -11.328834     8A    -11.285838     9A    -11.275876
      10A    -11.272498    11A    -11.265807    12A     -9.181454
      13A     -6.866670    14A     -6.866267    15A     -6.865836
      16A     -1.466341    17A     -1.392336    18A     -1.346708
      19A     -1.258632    20A     -1.189088    21A     -1.059667
      22A     -0.982012    23A     -0.960928    24A     -0.871194
      25A     -0.838266    26A     -0.821650    27A     -0.753837
      28A     -0.712155    29A     -0.681558    30A     -0.669582
      31A     -0.649516    32A     -0.635441    33A     -0.623587
      34A     -0.613560    35A     -0.603490    36A     -0.577775
      37A     -0.571172    38A     -0.542210    39A     -0.515034
      40A     -0.508618    41A     -0.483943    42A     -0.481034
      43A     -0.465697    44A     -0.421895    45A     -0.418554
      46A     -0.349423

  @DF-RHF Final Energy:  -905.29234397920629

   => Energetics <=

    Nuclear Repulsion Energy =            800.1191740703771984
    One-Electron Energy =               -2831.1170918317643554
    Two-Electron Energy =                1125.7055737821808634
    Total Energy =                       -905.2923439792064073
  Basis Set: (AUG-CC-PVTZ AUX)
    Blend: AUG-CC-PVTZ-RI
    Molecular point group: c1

    Geometry (in Angstrom), charge = 0, multiplicity = 1:

       Center              X                  Y                   Z               Mass
    ------------   -----------------  -----------------  -----------------  -----------------
         S            0.768574548101    -0.681971362367    -0.276804571094    31.972071174400
         O            0.747676548101    -1.833937362367     0.633264428906    15.994914619570
         O            1.143872548101    -0.809537362367    -1.679658571094    15.994914619570
         N            1.741435548101     0.480381637633     0.398098428906    14.003074004430
         N           -1.800318351899    -0.673963062367     0.446185928906    14.003074004430
         N           -1.322241451899     1.114739637633    -0.635425571094    14.003074004430
         C           -0.876411451899    -0.045909362367    -0.162790571094    12.000000000000
         C            1.465473548101     0.772035637633     1.808236428906    12.000000000000
         C            1.965164548101     1.680579637633    -0.422848571094    12.000000000000
         C           -2.991809451899     0.002565637633     0.433549428906    12.000000000000
         C           -2.643304451899     1.145473637633    -0.263777571094    12.000000000000
         H            1.353199548101    -0.163826362367     2.354651428906     1.007825032230
         H            0.567262548101     1.393142637633     1.931848428906     1.007825032230
         H            2.328200548101     1.310341637633     2.206606428906     1.007825032230
         H            2.175626548101     1.376398637633    -1.446676571094     1.007825032230
         H            2.840835548101     2.190525637633    -0.014761571094     1.007825032230
         H            1.099224548101     2.352273637633    -0.406473571094     1.007825032230
         H           -1.696018451899    -1.650095362367     0.928770428906     1.007825032230
         H           -3.921422451899    -0.330146362367     0.871729428906     1.007825032230
         H           -3.275873451899     1.985355637633    -0.518016571094     1.007825032230

  Basis Set: AUG-CC-PVTZ
    Blend: AUG-CC-PVTZ
  Basis Set: (AUG-CC-PVTZ AUX)
    Blend: AUG-CC-PVTZ-JKFIT
	 Reference Energy          =    -905.2923439792062936 [Eh]
	 Singles Energy            =      -0.0000000000000000 [Eh]
	 Same-Spin Energy          =      -0.5979372318025444 [Eh]
	 Opposite-Spin Energy      =      -1.7751047333679879 [Eh]
	 Correlation Energy        =      -2.3730419651705326 [Eh]
	 Total Energy              =    -907.6653859443767942 [Eh]

	 ================> DF-SCS-MP2 Energies <==================
	-----------------------------------------------------------
	 SCS Same-Spin Scale       =       0.3333333333333333 [-]
	 SCS Opposite-Spin Scale   =       1.2000000000000000 [-]
	 SCS Same-Spin Energy      =      -0.1993124106008481 [Eh]
	 SCS Opposite-Spin Energy  =      -2.1301256800415853 [Eh]
	 SCS Correlation Energy    =      -2.3294380906424337 [Eh]
	 SCS Total Energy          =    -907.6217820698486776 [Eh]
	-----------------------------------------------------------

  Dipole Moment: [D]
     X:    -2.6511      Y:     1.7023      Z:     3.6667     Total:     4.8343

*** Psi4 exiting successfully. Buy a developer a beer!
