                               Psi4 1.3.2 release

  ==> Input File <==

--------------------------------------------------------------------------
#psi4
#
memory 32 gb

molecule  {
0 1
  S        0.7453001    -0.7724243    -0.2817416
  O        0.7428910    -1.8740890     0.5977740
  O        1.1390870    -0.8496890    -1.7151490
  N        1.7366500     0.4402300     0.3626080
  N       -1.8489830    -0.7837230     0.4594430
  N       -1.3270270     1.0745880    -0.6709160
  C       -0.8811970    -0.0860610    -0.1982810
  C        1.4606880     0.7318840     1.7727460
  C        1.9603790     1.6404280    -0.4583390
  C       -2.9965950    -0.0375860     0.3980590
  C       -2.6480900     1.1053220    -0.2992680
  H        1.3484140    -0.2039780     2.3191610
  H        0.5624770     1.3529910     1.8963580
  H        2.3234150     1.2701900     2.1711160
  H        2.1708410     1.3362470    -1.4821670
  H        2.8360500     2.1503740    -0.0502520
  H        1.0944390     2.3121220    -0.4419640
  H       -1.7008040    -1.6902470     0.8932800
  H       -3.9262080    -0.3702980     0.8362390
  H       -3.2806590     1.9452040    -0.5535070
units angstrom
no_reorient  #important for SAPT in psi4, default
symmetry c1  #important for SAPT in psi4, default
}

set PROPERTIES_ORIGIN ["COM"]
properties('MP2/aug-cc-pvtz', properties = ['dipole'])
--------------------------------------------------------------------------

    Molecular point group: c1
  Charge       = 0
  Multiplicity = 1
  Basis Set: AUG-CC-PVTZ
    Blend: AUG-CC-PVTZ
  Basis Set: (AUG-CC-PVTZ AUX)
    Blend: AUG-CC-PVTZ-JKFIT

    Orbital Energies [Eh]
    ---------------------

    Doubly Occupied:

       1A    -92.215534     2A    -20.573836     3A    -20.549530
       4A    -15.656311     5A    -15.605320     6A    -15.587347
       7A    -11.338496     8A    -11.293561     9A    -11.274567
      10A    -11.271661    11A    -11.261365    12A     -9.180571
      13A     -6.865696    14A     -6.865633    15A     -6.864808
      16A     -1.483883    17A     -1.371467    18A     -1.349033
      19A     -1.246229    20A     -1.199605    21A     -1.051246
      22A     -0.976648    23A     -0.953395    24A     -0.874914
      25A     -0.842991    26A     -0.818048    27A     -0.754139
      28A     -0.713470    29A     -0.676177    30A     -0.669687
      31A     -0.643371    32A     -0.632537    33A     -0.625253
      34A     -0.619110    35A     -0.610619    36A     -0.579699
      37A     -0.567330    38A     -0.539278    39A     -0.519717
      40A     -0.516294    41A     -0.483104    42A     -0.480981
      43A     -0.468093    44A     -0.429871    45A     -0.410373
      46A     -0.346271

  @DF-RHF Final Energy:  -905.30039204801744

   => Energetics <=

    Nuclear Repulsion Energy =            797.2080413364548122
    One-Electron Energy =               -2825.3027261989159342
    Two-Electron Energy =                1122.7942928144436792
    Total Energy =                       -905.3003920480175566
  Basis Set: (AUG-CC-PVTZ AUX)
    Blend: AUG-CC-PVTZ-RI
    Molecular point group: c1

    Geometry (in Angstrom), charge = 0, multiplicity = 1:

       Center              X                  Y                   Z               Mass
    ------------   -----------------  -----------------  -----------------  -----------------
         S            0.756972988432    -0.717516354773    -0.255731607888    31.972071174400
         O            0.754563888432    -1.819181054773     0.623783992112    15.994914619570
         O            1.150759888432    -0.794781054773    -1.689139007888    15.994914619570
         N            1.748322888432     0.495137945227     0.388617992112    14.003074004430
         N           -1.837310111568    -0.728815054773     0.485452992112    14.003074004430
         N           -1.315354111568     1.129495945227    -0.644906007888    14.003074004430
         C           -0.869524111568    -0.031153054773    -0.172271007888    12.000000000000
         C            1.472360888432     0.786791945227     1.798755992112    12.000000000000
         C            1.972051888432     1.695335945227    -0.432329007888    12.000000000000
         C           -2.984922111568     0.017321945227     0.424068992112    12.000000000000
         C           -2.636417111568     1.160229945227    -0.273258007888    12.000000000000
         H            1.360086888432    -0.149070054773     2.345170992112     1.007825032230
         H            0.574149888432     1.407898945227     1.922367992112     1.007825032230
         H            2.335087888432     1.325097945227     2.197125992112     1.007825032230
         H            2.182513888432     1.391154945227    -1.456157007888     1.007825032230
         H            2.847722888432     2.205281945227    -0.024242007888     1.007825032230
         H            1.106111888432     2.367029945227    -0.415954007888     1.007825032230
         H           -1.689131111568    -1.635339054773     0.919289992112     1.007825032230
         H           -3.914535111568    -0.315390054773     0.862248992112     1.007825032230
         H           -3.268986111568     2.000111945227    -0.527497007888     1.007825032230

  Basis Set: AUG-CC-PVTZ
    Blend: AUG-CC-PVTZ
  Basis Set: (AUG-CC-PVTZ AUX)
    Blend: AUG-CC-PVTZ-JKFIT
	 Reference Energy          =    -905.3003920480174429 [Eh]
	 Singles Energy            =      -0.0000000000000000 [Eh]
	 Same-Spin Energy          =      -0.5971486555397899 [Eh]
	 Opposite-Spin Energy      =      -1.7751132724634044 [Eh]
	 Correlation Energy        =      -2.3722619280031942 [Eh]
	 Total Energy              =    -907.6726539760206833 [Eh]

	 ================> DF-SCS-MP2 Energies <==================
	-----------------------------------------------------------
	 SCS Same-Spin Scale       =       0.3333333333333333 [-]
	 SCS Opposite-Spin Scale   =       1.2000000000000000 [-]
	 SCS Same-Spin Energy      =      -0.1990495518465966 [Eh]
	 SCS Opposite-Spin Energy  =      -2.1301359269560853 [Eh]
	 SCS Correlation Energy    =      -2.3291854788026818 [Eh]
	 SCS Total Energy          =    -907.6295775268200714 [Eh]
	-----------------------------------------------------------

  Dipole Moment: [D]
     X:    -2.8983      Y:     1.4272      Z:     3.7846     Total:     4.9760

*** Psi4 exiting successfully. Buy a developer a beer!
