                               Psi4 1.3.2 release

  ==> Input File <==

--------------------------------------------------------------------------
#psi4
#
memory 32 gb

molecule  {
0 1
  S        0.7637890    -0.7221230    -0.3122950
  O        0.7428910    -1.8740890     0.5977740
  O        1.1390870    -0.8496890    -1.7151490
  N        1.7366500     0.4402300     0.3626080
  N       -1.8489830    -0.7837230     0.4594430
  N       -1.3229557     1.0317646    -0.6498144
  C       -0.8811970    -0.0860610    -0.1982810
  C        1.4606880     0.7318840     1.7727460
  C        1.9603790     1.6404280    -0.4583390
  C       -2.9965950    -0.0375860     0.3980590
  C       -2.6480900     1.1053220    -0.2992680
  H        1.3484140    -0.2039780     2.3191610
  H        0.5624770     1.3529910     1.8963580
  H        2.3234150     1.2701900     2.1711160
  H        2.1708410     1.3362470    -1.4821670
  H        2.8360500     2.1503740    -0.0502520
  H        1.0944390     2.3121220    -0.4419640
  H       -1.7008040    -1.6902470     0.8932800
  H       -3.9262080    -0.3702980     0.8362390
  H       -3.2806590     1.9452040    -0.5535070
units angstrom
no_reorient  #important for SAPT in psi4, default
symmetry c1  #important for SAPT in psi4, default
}

set PROPERTIES_ORIGIN ["COM"]
properties('MP2/aug-cc-pvtz', properties = ['dipole'])
--------------------------------------------------------------------------

    Molecular point group: c1
  Charge       = 0
  Multiplicity = 1
  Basis Set: AUG-CC-PVTZ
    Blend: AUG-CC-PVTZ
  Basis Set: (AUG-CC-PVTZ AUX)
    Blend: AUG-CC-PVTZ-JKFIT

    Orbital Energies [Eh]
    ---------------------

    Doubly Occupied:

       1A    -92.215163     2A    -20.558107     3A    -20.555765
       4A    -15.649034     5A    -15.611231     6A    -15.579497
       7A    -11.331719     8A    -11.293640     9A    -11.275338
      10A    -11.272480    11A    -11.266278    12A     -9.179809
      13A     -6.865018    14A     -6.864606    15A     -6.864193
      16A     -1.464278    17A     -1.376208    18A     -1.345309
      19A     -1.258008    20A     -1.202092    21A     -1.052543
      22A     -0.981785    23A     -0.960273    24A     -0.875013
      25A     -0.844128    26A     -0.816650    27A     -0.753743
      28A     -0.710866    29A     -0.678872    30A     -0.668059
      31A     -0.643978    32A     -0.632014    33A     -0.626594
      34A     -0.619580    35A     -0.611104    36A     -0.577403
      37A     -0.571187    38A     -0.541995    39A     -0.514657
      40A     -0.507721    41A     -0.487666    42A     -0.479738
      43A     -0.465251    44A     -0.431225    45A     -0.416841
      46A     -0.348632

  @DF-RHF Final Energy:  -905.30801696321259

   => Energetics <=

    Nuclear Repulsion Energy =            798.9229898659307310
    One-Electron Energy =               -2828.7714286099012497
    Two-Electron Energy =                1124.5404217807579244
    Total Energy =                       -905.3080169632125944
  Basis Set: (AUG-CC-PVTZ AUX)
    Blend: AUG-CC-PVTZ-RI
    Molecular point group: c1

    Geometry (in Angstrom), charge = 0, multiplicity = 1:

       Center              X                  Y                   Z               Mass
    ------------   -----------------  -----------------  -----------------  -----------------
         S            0.771759115288    -0.672976986826    -0.282392399408    31.972071174400
         O            0.750861115288    -1.824942986826     0.627676600592    15.994914619570
         O            1.147057115288    -0.800542986826    -1.685246399408    15.994914619570
         N            1.744620115288     0.489376013174     0.392510600592    14.003074004430
         N           -1.841012884712    -0.734576986826     0.489345600592    14.003074004430
         N           -1.314985584712     1.080910613174    -0.619911799408    14.003074004430
         C           -0.873226884712    -0.036914986826    -0.168378399408    12.000000000000
         C            1.468658115288     0.781030013174     1.802648600592    12.000000000000
         C            1.968349115288     1.689574013174    -0.428436399408    12.000000000000
         C           -2.988624884712     0.011560013174     0.427961600592    12.000000000000
         C           -2.640119884712     1.154468013174    -0.269365399408    12.000000000000
         H            1.356384115288    -0.154831986826     2.349063600592     1.007825032230
         H            0.570447115288     1.402137013174     1.926260600592     1.007825032230
         H            2.331385115288     1.319336013174     2.201018600592     1.007825032230
         H            2.178811115288     1.385393013174    -1.452264399408     1.007825032230
         H            2.844020115288     2.199520013174    -0.020349399408     1.007825032230
         H            1.102409115288     2.361268013174    -0.412061399408     1.007825032230
         H           -1.692833884712    -1.641100986826     0.923182600592     1.007825032230
         H           -3.918237884712    -0.321151986826     0.866141600592     1.007825032230
         H           -3.272688884712     1.994350013174    -0.523604399408     1.007825032230

  Basis Set: AUG-CC-PVTZ
    Blend: AUG-CC-PVTZ
  Basis Set: (AUG-CC-PVTZ AUX)
    Blend: AUG-CC-PVTZ-JKFIT
	 Reference Energy          =    -905.3080169632125944 [Eh]
	 Singles Energy            =      -0.0000000000000000 [Eh]
	 Same-Spin Energy          =      -0.5963537119636879 [Eh]
	 Opposite-Spin Energy      =      -1.7731340219339575 [Eh]
	 Correlation Energy        =      -2.3694877338976452 [Eh]
	 Total Energy              =    -907.6775046971102938 [Eh]

	 ================> DF-SCS-MP2 Energies <==================
	-----------------------------------------------------------
	 SCS Same-Spin Scale       =       0.3333333333333333 [-]
	 SCS Opposite-Spin Scale   =       1.2000000000000000 [-]
	 SCS Same-Spin Energy      =      -0.1987845706545626 [Eh]
	 SCS Opposite-Spin Energy  =      -2.1277608263207490 [Eh]
	 SCS Correlation Energy    =      -2.3265453969753116 [Eh]
	 SCS Total Energy          =    -907.6345623601879424 [Eh]
	-----------------------------------------------------------

  Dipole Moment: [D]
     X:    -2.6498      Y:     1.9857      Z:     3.5149     Total:     4.8290

*** Psi4 exiting successfully. Buy a developer a beer!
