                               Psi4 1.3.2 release

  ==> Input File <==

--------------------------------------------------------------------------
#psi4
#
memory 32 gb

molecule  {
0 1
  S        0.7637890    -0.7221230    -0.3122950
  O        0.7428910    -1.8740890     0.5977740
  O        1.1390870    -0.8496890    -1.7151490
  N        1.7366500     0.4402300     0.3626080
  N       -1.8489830    -0.7837230     0.4594430
  N       -1.3270270     1.0745880    -0.6709160
  C       -0.8811970    -0.0860610    -0.1982810
  C        1.4606880     0.7318840     1.7727460
  C        1.9603790     1.6404280    -0.4583390
  C       -2.9965950    -0.0375860     0.3980590
  C       -2.7854258     1.1481431    -0.2826859
  H        1.3484140    -0.2039780     2.3191610
  H        0.5624770     1.3529910     1.8963580
  H        2.3234150     1.2701900     2.1711160
  H        2.1708410     1.3362470    -1.4821670
  H        2.8360500     2.1503740    -0.0502520
  H        1.0944390     2.3121220    -0.4419640
  H       -1.7008040    -1.6902470     0.8932800
  H       -3.9262080    -0.3702980     0.8362390
  H       -3.2806590     1.9452040    -0.5535070
units angstrom
no_reorient  #important for SAPT in psi4, default
symmetry c1  #important for SAPT in psi4, default
}

set PROPERTIES_ORIGIN ["COM"]
properties('MP2/aug-cc-pvtz', properties = ['dipole'])
--------------------------------------------------------------------------

    Molecular point group: c1
  Charge       = 0
  Multiplicity = 1
  Basis Set: AUG-CC-PVTZ
    Blend: AUG-CC-PVTZ
  Basis Set: (AUG-CC-PVTZ AUX)
    Blend: AUG-CC-PVTZ-JKFIT

    Orbital Energies [Eh]
    ---------------------

    Doubly Occupied:

       1A    -92.217256     2A    -20.560084     3A    -20.556991
       4A    -15.650150     5A    -15.612077     6A    -15.589802
       7A    -11.340044     8A    -11.302523     9A    -11.276253
      10A    -11.275377    11A    -11.265761    12A     -9.181827
      13A     -6.867053    14A     -6.866627    15A     -6.866197
      16A     -1.465402    17A     -1.356338    18A     -1.345647
      19A     -1.258484    20A     -1.172451    21A     -1.052351
      22A     -0.981739    23A     -0.962058    24A     -0.876322
      25A     -0.850316    26A     -0.813703    27A     -0.751862
      28A     -0.710394    29A     -0.676943    30A     -0.668308
      31A     -0.656663    32A     -0.640195    33A     -0.621382
      34A     -0.614612    35A     -0.600779    36A     -0.577259
      37A     -0.570736    38A     -0.541960    39A     -0.515421
      40A     -0.508910    41A     -0.486097    42A     -0.480930
      43A     -0.457843    44A     -0.418701    45A     -0.409667
      46A     -0.356010

  @DF-RHF Final Energy:  -905.28020658638366

   => Energetics <=

    Nuclear Repulsion Energy =            794.1532588283492942
    One-Electron Energy =               -2819.2119247374880615
    Two-Electron Energy =                1119.7784593227549976
    Total Energy =                       -905.2802065863836560
  Basis Set: (AUG-CC-PVTZ AUX)
    Blend: AUG-CC-PVTZ-RI
    Molecular point group: c1

    Geometry (in Angstrom), charge = 0, multiplicity = 1:

       Center              X                  Y                   Z               Mass
    ------------   -----------------  -----------------  -----------------  -----------------
         S            0.781499890192    -0.679338404751    -0.281841089917    31.972071174400
         O            0.760601890192    -1.831304404751     0.628227910083    15.994914619570
         O            1.156797890192    -0.806904404751    -1.684695089917    15.994914619570
         N            1.754360890192     0.483014595249     0.393061910083    14.003074004430
         N           -1.831272109808    -0.740938404751     0.489896910083    14.003074004430
         N           -1.309316109808     1.117372595249    -0.640462089917    14.003074004430
         C           -0.863486109808    -0.043276404751    -0.167827089917    12.000000000000
         C            1.478398890192     0.774668595249     1.803199910083    12.000000000000
         C            1.978089890192     1.683212595249    -0.427885089917    12.000000000000
         C           -2.978884109808     0.005198595249     0.428512910083    12.000000000000
         C           -2.767714909808     1.190927695249    -0.252231989917    12.000000000000
         H            1.366124890192    -0.161193404751     2.349614910083     1.007825032230
         H            0.580187890192     1.395775595249     1.926811910083     1.007825032230
         H            2.341125890192     1.312974595249     2.201569910083     1.007825032230
         H            2.188551890192     1.379031595249    -1.451713089917     1.007825032230
         H            2.853760890192     2.193158595249    -0.019798089917     1.007825032230
         H            1.112149890192     2.354906595249    -0.411510089917     1.007825032230
         H           -1.683093109808    -1.647462404751     0.923733910083     1.007825032230
         H           -3.908497109808    -0.327513404751     0.866692910083     1.007825032230
         H           -3.262948109808     1.987988595249    -0.523053089917     1.007825032230

  Basis Set: AUG-CC-PVTZ
    Blend: AUG-CC-PVTZ
  Basis Set: (AUG-CC-PVTZ AUX)
    Blend: AUG-CC-PVTZ-JKFIT
	 Reference Energy          =    -905.2802065863836560 [Eh]
	 Singles Energy            =      -0.0000000000000000 [Eh]
	 Same-Spin Energy          =      -0.5967972154693530 [Eh]
	 Opposite-Spin Energy      =      -1.7778199189125148 [Eh]
	 Correlation Energy        =      -2.3746171343818681 [Eh]
	 Total Energy              =    -907.6548237207655347 [Eh]

	 ================> DF-SCS-MP2 Energies <==================
	-----------------------------------------------------------
	 SCS Same-Spin Scale       =       0.3333333333333333 [-]
	 SCS Opposite-Spin Scale   =       1.2000000000000000 [-]
	 SCS Same-Spin Energy      =      -0.1989324051564510 [Eh]
	 SCS Opposite-Spin Energy  =      -2.1333839026950177 [Eh]
	 SCS Correlation Energy    =      -2.3323163078514688 [Eh]
	 SCS Total Energy          =    -907.6125228942350986 [Eh]
	-----------------------------------------------------------

  Dipole Moment: [D]
     X:    -2.6282      Y:     1.9093      Z:     3.5619     Total:     4.8208

*** Psi4 exiting successfully. Buy a developer a beer!
