                               Psi4 1.3.2 release

  ==> Input File <==

--------------------------------------------------------------------------
#psi4
#
memory 32 gb

molecule  {
0 1
  S        0.7637890    -0.7221230    -0.3122950
  O        0.7428910    -1.8740890     0.5977740
  O        1.1390870    -0.8496890    -1.7151490
  N        1.7366500     0.4402300     0.3626080
  N       -1.8489830    -0.7837230     0.4594430
  N       -1.3270270     1.0745880    -0.6709160
  C       -0.8811970    -0.0860610    -0.1982810
  C        1.4606880     0.7318840     1.7727460
  C        1.9603790     1.6404280    -0.4583390
  C       -2.9847689    -0.0207868     0.3858182
  C       -2.6480900     1.1053220    -0.2992680
  H        1.3484140    -0.2039780     2.3191610
  H        0.5624770     1.3529910     1.8963580
  H        2.3234150     1.2701900     2.1711160
  H        2.1708410     1.3362470    -1.4821670
  H        2.8360500     2.1503740    -0.0502520
  H        1.0944390     2.3121220    -0.4419640
  H       -1.7008040    -1.6902470     0.8932800
  H       -3.9262080    -0.3702980     0.8362390
  H       -3.2806590     1.9452040    -0.5535070
units angstrom
no_reorient  #important for SAPT in psi4, default
symmetry c1  #important for SAPT in psi4, default
}

set PROPERTIES_ORIGIN ["COM"]
properties('MP2/aug-cc-pvtz', properties = ['dipole'])
--------------------------------------------------------------------------

    Molecular point group: c1
  Charge       = 0
  Multiplicity = 1
  Basis Set: AUG-CC-PVTZ
    Blend: AUG-CC-PVTZ
  Basis Set: (AUG-CC-PVTZ AUX)
    Blend: AUG-CC-PVTZ-JKFIT

    Orbital Energies [Eh]
    ---------------------

    Doubly Occupied:

       1A    -92.215812     2A    -20.558664     3A    -20.555939
       4A    -15.653630     5A    -15.611345     6A    -15.585745
       7A    -11.337787     8A    -11.291821     9A    -11.275332
      10A    -11.270360    11A    -11.266087    12A     -9.180362
      13A     -6.865580    14A     -6.865170    15A     -6.864754
      16A     -1.464448    17A     -1.371340    18A     -1.345534
      19A     -1.258048    20A     -1.198099    21A     -1.052245
      22A     -0.981738    23A     -0.960607    24A     -0.877932
      25A     -0.840647    26A     -0.816449    27A     -0.752348
      28A     -0.710865    29A     -0.675634    30A     -0.667843
      31A     -0.643286    32A     -0.633337    33A     -0.625621
      34A     -0.617191    35A     -0.606872    36A     -0.577246
      37A     -0.571145    38A     -0.541969    39A     -0.514111
      40A     -0.507950    41A     -0.485405    42A     -0.480091
      43A     -0.471182    44A     -0.428719    45A     -0.418127
      46A     -0.349530

  @DF-RHF Final Energy:  -905.30595561000746

   => Energetics <=

    Nuclear Repulsion Energy =            797.9119342268010087
    One-Electron Energy =               -2826.7478887183910956
    Two-Electron Energy =                1123.5299988815827419
    Total Energy =                       -905.3059556100074587
  Basis Set: (AUG-CC-PVTZ AUX)
    Blend: AUG-CC-PVTZ-RI
    Molecular point group: c1

    Geometry (in Angstrom), charge = 0, multiplicity = 1:

       Center              X                  Y                   Z               Mass
    ------------   -----------------  -----------------  -----------------  -----------------
         S            0.771274073389    -0.677554469428    -0.279865131612    31.972071174400
         O            0.750376073389    -1.829520469428     0.630203868388    15.994914619570
         O            1.146572073389    -0.805120469428    -1.682719131612    15.994914619570
         N            1.744135073389     0.484798530572     0.395037868388    14.003074004430
         N           -1.841497926611    -0.739154469428     0.491872868388    14.003074004430
         N           -1.319541926611     1.119156530572    -0.638486131612    14.003074004430
         C           -0.873711926611    -0.041492469428    -0.165851131612    12.000000000000
         C            1.468173073389     0.776452530572     1.805175868388    12.000000000000
         C            1.967864073389     1.684996530572    -0.425909131612    12.000000000000
         C           -2.977283826611     0.023781730572     0.418248068388    12.000000000000
         C           -2.640604926611     1.149890530572    -0.266838131612    12.000000000000
         H            1.355899073389    -0.159409469428     2.351590868388     1.007825032230
         H            0.569962073389     1.397559530572     1.928787868388     1.007825032230
         H            2.330900073389     1.314758530572     2.203545868388     1.007825032230
         H            2.178326073389     1.380815530572    -1.449737131612     1.007825032230
         H            2.843535073389     2.194942530572    -0.017822131612     1.007825032230
         H            1.101924073389     2.356690530572    -0.409534131612     1.007825032230
         H           -1.693318926611    -1.645678469428     0.925709868388     1.007825032230
         H           -3.918722926611    -0.325729469428     0.868668868388     1.007825032230
         H           -3.273173926611     1.989772530572    -0.521077131612     1.007825032230

  Basis Set: AUG-CC-PVTZ
    Blend: AUG-CC-PVTZ
  Basis Set: (AUG-CC-PVTZ AUX)
    Blend: AUG-CC-PVTZ-JKFIT
	 Reference Energy          =    -905.3059556100074587 [Eh]
	 Singles Energy            =      -0.0000000000000000 [Eh]
	 Same-Spin Energy          =      -0.5971852256460963 [Eh]
	 Opposite-Spin Energy      =      -1.7749568113927863 [Eh]
	 Correlation Energy        =      -2.3721420370388824 [Eh]
	 Total Energy              =    -907.6780976470463429 [Eh]

	 ================> DF-SCS-MP2 Energies <==================
	-----------------------------------------------------------
	 SCS Same-Spin Scale       =       0.3333333333333333 [-]
	 SCS Opposite-Spin Scale   =       1.2000000000000000 [-]
	 SCS Same-Spin Energy      =      -0.1990617418820321 [Eh]
	 SCS Opposite-Spin Energy  =      -2.1299481736713433 [Eh]
	 SCS Correlation Energy    =      -2.3290099155533754 [Eh]
	 SCS Total Energy          =    -907.6349655255608013 [Eh]
	-----------------------------------------------------------

  Dipole Moment: [D]
     X:    -2.6809      Y:     1.8988      Z:     3.5642     Total:     4.8473

*** Psi4 exiting successfully. Buy a developer a beer!
