                               Psi4 1.4a3.dev225

  ==> Input File <==

--------------------------------------------------------------------------
#psi4
#
memory 32 gb

molecule  {
0 1
  S        0.7637890    -0.7221230    -0.3122950
  O        0.7428910    -1.8740890     0.5977740
  O        1.1390870    -0.8496890    -1.7151490
  N        1.7366500     0.4402300     0.3626080
  N       -1.8489830    -0.7837230     0.4594430
  N       -1.3270270     1.0745880    -0.6709160
  C       -0.8346590    -0.1040557    -0.2015065
  C        1.4606880     0.7318840     1.7727460
  C        1.9603790     1.6404280    -0.4583390
  C       -2.9965950    -0.0375860     0.3980590
  C       -2.6480900     1.1053220    -0.2992680
  H        1.3484140    -0.2039780     2.3191610
  H        0.5624770     1.3529910     1.8963580
  H        2.3234150     1.2701900     2.1711160
  H        2.1708410     1.3362470    -1.4821670
  H        2.8360500     2.1503740    -0.0502520
  H        1.0944390     2.3121220    -0.4419640
  H       -1.7008040    -1.6902470     0.8932800
  H       -3.9262080    -0.3702980     0.8362390
  H       -3.2806590     1.9452040    -0.5535070
units angstrom
no_reorient  #important for SAPT in psi4, default
symmetry c1  #important for SAPT in psi4, default
}

set PROPERTIES_ORIGIN ["COM"]
properties('MP2/aug-cc-pvtz', properties = ['dipole'])
--------------------------------------------------------------------------

    Molecular point group: c1
  Charge       = 0
  Multiplicity = 1
  Basis Set: AUG-CC-PVTZ
    Blend: AUG-CC-PVTZ
  Basis Set: (AUG-CC-PVTZ AUX)
    Blend: AUG-CC-PVTZ-JKFIT

    Orbital Energies [Eh]
    ---------------------

    Doubly Occupied:

       1A    -92.215687     2A    -20.557892     3A    -20.555197
       4A    -15.657781     5A    -15.610598     6A    -15.591603
       7A    -11.337685     8A    -11.296914     9A    -11.274906
      10A    -11.274730    11A    -11.265771    12A     -9.180666
      13A     -6.865990    14A     -6.865537    15A     -6.865048
      16A     -1.465672    17A     -1.359913    18A     -1.345048
      19A     -1.257831    20A     -1.189929    21A     -1.055568
      22A     -0.981291    23A     -0.962665    24A     -0.883917
      25A     -0.838720    26A     -0.810980    27A     -0.752937
      28A     -0.711352    29A     -0.679195    30A     -0.668534
      31A     -0.643646    32A     -0.629551    33A     -0.621598
      34A     -0.616658    35A     -0.607885    36A     -0.576772
      37A     -0.570625    38A     -0.541525    39A     -0.515041
      40A     -0.507883    41A     -0.483929    42A     -0.479528
      43A     -0.471391    44A     -0.426127    45A     -0.419027
      46A     -0.345260

  @DF-RHF Final Energy:  -905.29854045661909

   => Energetics <=

    Nuclear Repulsion Energy =            797.8027617920322427
    One-Electron Energy =               -2826.5306092421533322
    Two-Electron Energy =                1123.4293069935019957
    Total Energy =                       -905.2985404566190937
  Basis Set: (AUG-CC-PVTZ AUX)
    Blend: AUG-CC-PVTZ-RI
    Molecular point group: c1

    Geometry (in Angstrom), charge = 0, multiplicity = 1:

       Center              X                  Y                   Z               Mass
    ------------   -----------------  -----------------  -----------------  -----------------
         S            0.768894393790    -0.675169168307    -0.280483176879    31.972071174400
         O            0.747996393790    -1.827135168307     0.629585823121    15.994914619570
         O            1.144192393790    -0.802735168307    -1.683337176879    15.994914619570
         N            1.741755393790     0.487183831693     0.394419823121    14.003074004430
         N           -1.843877606210    -0.736769168307     0.491254823121    14.003074004430
         N           -1.321921606210     1.121541831693    -0.639104176879    14.003074004430
         C           -0.829553606210    -0.057101868307    -0.169694676879    12.000000000000
         C            1.465793393790     0.778837831693     1.804557823121    12.000000000000
         C            1.965484393790     1.687381831693    -0.426527176879    12.000000000000
         C           -2.991489606210     0.009367831693     0.429870823121    12.000000000000
         C           -2.642984606210     1.152275831693    -0.267456176879    12.000000000000
         H            1.353519393790    -0.157024168307     2.350972823121     1.007825032230
         H            0.567582393790     1.399944831693     1.928169823121     1.007825032230
         H            2.328520393790     1.317143831693     2.202927823121     1.007825032230
         H            2.175946393790     1.383200831693    -1.450355176879     1.007825032230
         H            2.841155393790     2.197327831693    -0.018440176879     1.007825032230
         H            1.099544393790     2.359075831693    -0.410152176879     1.007825032230
         H           -1.695698606210    -1.643293168307     0.925091823121     1.007825032230
         H           -3.921102606210    -0.323344168307     0.868050823121     1.007825032230
         H           -3.275553606210     1.992157831693    -0.521695176879     1.007825032230

  Basis Set: AUG-CC-PVTZ
    Blend: AUG-CC-PVTZ
  Basis Set: (AUG-CC-PVTZ AUX)
    Blend: AUG-CC-PVTZ-JKFIT
	 Reference Energy          =    -905.2985404566190937 [Eh]
	 Singles Energy            =      -0.0000000000000000 [Eh]
	 Same-Spin Energy          =      -0.5989492364967003 [Eh]
	 Opposite-Spin Energy      =      -1.7779339075202767 [Eh]
	 Correlation Energy        =      -2.3768831440169769 [Eh]
	 Total Energy              =    -907.6754236006361225 [Eh]

	 ================> DF-SCS-MP2 Energies <==================
	-----------------------------------------------------------
	 SCS Same-Spin Scale       =       0.3333333333333333 [-]
	 SCS Opposite-Spin Scale   =       1.2000000000000000 [-]
	 SCS Same-Spin Energy      =      -0.1996497454989001 [Eh]
	 SCS Opposite-Spin Energy  =      -2.1335206890243321 [Eh]
	 SCS Correlation Energy    =      -2.3331704345232320 [Eh]
	 SCS Total Energy          =    -907.6317108911423475 [Eh]
	-----------------------------------------------------------

  Dipole Moment: [D]
     X:    -2.7982      Y:     1.9206      Z:     3.5816     Total:     4.9342

*** Psi4 exiting successfully. Buy a developer a beer!
