                               Psi4 1.4a3.dev225

  ==> Input File <==

--------------------------------------------------------------------------
#psi4
#
memory 32 gb

molecule  {
0 1
  S        0.7637890    -0.7221230    -0.3122950
  O        0.7428910    -1.8740890     0.5977740
  O        1.1262148    -0.8453136    -1.6670329
  N        1.7366500     0.4402300     0.3626080
  N       -1.8489830    -0.7837230     0.4594430
  N       -1.3270270     1.0745880    -0.6709160
  C       -0.8811970    -0.0860610    -0.1982810
  C        1.4606880     0.7318840     1.7727460
  C        1.9603790     1.6404280    -0.4583390
  C       -2.9965950    -0.0375860     0.3980590
  C       -2.6480900     1.1053220    -0.2992680
  H        1.3484140    -0.2039780     2.3191610
  H        0.5624770     1.3529910     1.8963580
  H        2.3234150     1.2701900     2.1711160
  H        2.1708410     1.3362470    -1.4821670
  H        2.8360500     2.1503740    -0.0502520
  H        1.0944390     2.3121220    -0.4419640
  H       -1.7008040    -1.6902470     0.8932800
  H       -3.9262080    -0.3702980     0.8362390
  H       -3.2806590     1.9452040    -0.5535070
units angstrom
no_reorient  #important for SAPT in psi4, default
symmetry c1  #important for SAPT in psi4, default
}

set PROPERTIES_ORIGIN ["COM"]
properties('MP2/aug-cc-pvtz', properties = ['dipole'])
--------------------------------------------------------------------------

    Molecular point group: c1
  Charge       = 0
  Multiplicity = 1
  Basis Set: AUG-CC-PVTZ
    Blend: AUG-CC-PVTZ
  Basis Set: (AUG-CC-PVTZ AUX)
    Blend: AUG-CC-PVTZ-JKFIT

    Orbital Energies [Eh]
    ---------------------

    Doubly Occupied:

       1A    -92.210780     2A    -20.557189     3A    -20.554743
       4A    -15.653382     5A    -15.608314     6A    -15.585042
       7A    -11.334787     8A    -11.291610     9A    -11.273405
      10A    -11.272224    11A    -11.265687    12A     -9.176424
      13A     -6.861548    14A     -6.861369    15A     -6.861023
      16A     -1.482168    17A     -1.370592    18A     -1.354866
      19A     -1.256898    20A     -1.197174    21A     -1.048134
      22A     -0.980490    23A     -0.956999    24A     -0.876395
      25A     -0.839137    26A     -0.816848    27A     -0.752701
      28A     -0.713921    29A     -0.677590    30A     -0.670544
      31A     -0.644047    32A     -0.631424    33A     -0.623855
      34A     -0.617928    35A     -0.610340    36A     -0.579082
      37A     -0.570184    38A     -0.540962    39A     -0.518743
      40A     -0.514430    41A     -0.485300    42A     -0.484486
      43A     -0.470884    44A     -0.428122    45A     -0.416434
      46A     -0.344665

  @DF-RHF Final Energy:  -905.30892976592077

   => Energetics <=

    Nuclear Repulsion Energy =            800.1159527667517750
    One-Electron Energy =               -2831.1640306524532207
    Two-Electron Energy =                1125.7391481197805660
    Total Energy =                       -905.3089297659207659
  Basis Set: (AUG-CC-PVTZ AUX)
    Blend: AUG-CC-PVTZ-RI
    Molecular point group: c1

    Geometry (in Angstrom), charge = 0, multiplicity = 1:

       Center              X                  Y                   Z               Mass
    ------------   -----------------  -----------------  -----------------  -----------------
         S            0.773261047022    -0.676802612213    -0.285101045732    31.972071174400
         O            0.752363047022    -1.828768612213     0.624967954268    15.994914619570
         O            1.135686847022    -0.799993212213    -1.639838945732    15.994914619570
         N            1.746122047022     0.485550387787     0.389801954268    14.003074004430
         N           -1.839510952978    -0.738402612213     0.486636954268    14.003074004430
         N           -1.317554952978     1.119908387787    -0.643722045732    14.003074004430
         C           -0.871724952978    -0.040740612213    -0.171087045732    12.000000000000
         C            1.470160047022     0.777204387787     1.799939954268    12.000000000000
         C            1.969851047022     1.685748387787    -0.431145045732    12.000000000000
         C           -2.987122952978     0.007734387787     0.425252954268    12.000000000000
         C           -2.638617952978     1.150642387787    -0.272074045732    12.000000000000
         H            1.357886047022    -0.158657612213     2.346354954268     1.007825032230
         H            0.571949047022     1.398311387787     1.923551954268     1.007825032230
         H            2.332887047022     1.315510387787     2.198309954268     1.007825032230
         H            2.180313047022     1.381567387787    -1.454973045732     1.007825032230
         H            2.845522047022     2.195694387787    -0.023058045732     1.007825032230
         H            1.103911047022     2.357442387787    -0.414770045732     1.007825032230
         H           -1.691331952978    -1.644926612213     0.920473954268     1.007825032230
         H           -3.916735952978    -0.324977612213     0.863432954268     1.007825032230
         H           -3.271186952978     1.990524387787    -0.526313045732     1.007825032230

  Basis Set: AUG-CC-PVTZ
    Blend: AUG-CC-PVTZ
  Basis Set: (AUG-CC-PVTZ AUX)
    Blend: AUG-CC-PVTZ-JKFIT
	 Reference Energy          =    -905.3089297659207659 [Eh]
	 Singles Energy            =      -0.0000000000000000 [Eh]
	 Same-Spin Energy          =      -0.5962513305334405 [Eh]
	 Opposite-Spin Energy      =      -1.7725970768871360 [Eh]
	 Correlation Energy        =      -2.3688484074205762 [Eh]
	 Total Energy              =    -907.6777781733413804 [Eh]

	 ================> DF-SCS-MP2 Energies <==================
	-----------------------------------------------------------
	 SCS Same-Spin Scale       =       0.3333333333333333 [-]
	 SCS Opposite-Spin Scale   =       1.2000000000000000 [-]
	 SCS Same-Spin Energy      =      -0.1987504435111468 [Eh]
	 SCS Opposite-Spin Energy  =      -2.1271164922645629 [Eh]
	 SCS Correlation Energy    =      -2.3258669357757098 [Eh]
	 SCS Total Energy          =    -907.6347967016964731 [Eh]
	-----------------------------------------------------------

  Dipole Moment: [D]
     X:    -2.5813      Y:     1.8247      Z:     3.3261     Total:     4.5886

*** Psi4 exiting successfully. Buy a developer a beer!
