                               Psi4 1.3.2 release

  ==> Input File <==

--------------------------------------------------------------------------
#psi4
#
memory 32 gb

molecule  {
0 1
  S        0.7637890    -0.7221230    -0.3122950
  O        0.7428910    -1.8740890     0.5977740
  O        1.1390870    -0.8496890    -1.7151490
  N        1.7825693     0.4066384     0.3517845
  N       -1.8489830    -0.7837230     0.4594430
  N       -1.3270270     1.0745880    -0.6709160
  C       -0.8811970    -0.0860610    -0.1982810
  C        1.4606880     0.7318840     1.7727460
  C        1.9603790     1.6404280    -0.4583390
  C       -2.9965950    -0.0375860     0.3980590
  C       -2.6480900     1.1053220    -0.2992680
  H        1.3484140    -0.2039780     2.3191610
  H        0.5624770     1.3529910     1.8963580
  H        2.3234150     1.2701900     2.1711160
  H        2.1708410     1.3362470    -1.4821670
  H        2.8360500     2.1503740    -0.0502520
  H        1.0944390     2.3121220    -0.4419640
  H       -1.7008040    -1.6902470     0.8932800
  H       -3.9262080    -0.3702980     0.8362390
  H       -3.2806590     1.9452040    -0.5535070
units angstrom
no_reorient  #important for SAPT in psi4, default
symmetry c1  #important for SAPT in psi4, default
}

set PROPERTIES_ORIGIN ["COM"]
properties('MP2/aug-cc-pvtz', properties = ['dipole'])
--------------------------------------------------------------------------

    Molecular point group: c1
  Charge       = 0
  Multiplicity = 1
  Basis Set: AUG-CC-PVTZ
    Blend: AUG-CC-PVTZ
  Basis Set: (AUG-CC-PVTZ AUX)
    Blend: AUG-CC-PVTZ-JKFIT

    Orbital Energies [Eh]
    ---------------------

    Doubly Occupied:

       1A    -92.213971     2A    -20.556646     3A    -20.553476
       4A    -15.656286     5A    -15.615157     6A    -15.587967
       7A    -11.339013     8A    -11.294388     9A    -11.276994
      10A    -11.274465    11A    -11.266872    12A     -9.178818
      13A     -6.863983    14A     -6.863642    15A     -6.863142
      16A     -1.463131    17A     -1.371011    18A     -1.343867
      19A     -1.251549    20A     -1.199736    21A     -1.050502
      22A     -0.977493    23A     -0.958451    24A     -0.879936
      25A     -0.841586    26A     -0.819659    27A     -0.751662
      28A     -0.708107    29A     -0.675278    30A     -0.666208
      31A     -0.640909    32A     -0.633257    33A     -0.625044
      34A     -0.616986    35A     -0.608157    36A     -0.577459
      37A     -0.571546    38A     -0.534537    39A     -0.511888
      40A     -0.506375    41A     -0.485144    42A     -0.478235
      43A     -0.472460    44A     -0.430346    45A     -0.424780
      46A     -0.347506

  @DF-RHF Final Energy:  -905.30366562897382

   => Energetics <=

    Nuclear Repulsion Energy =            796.6978119527067292
    One-Electron Energy =               -2824.3477070593085045
    Two-Electron Energy =                1122.3462294776281851
    Total Energy =                       -905.3036656289737039
  Basis Set: (AUG-CC-PVTZ AUX)
    Blend: AUG-CC-PVTZ-RI
    Molecular point group: c1

    Geometry (in Angstrom), charge = 0, multiplicity = 1:

       Center              X                  Y                   Z               Mass
    ------------   -----------------  -----------------  -----------------  -----------------
         S            0.768411335012    -0.673715517651    -0.279838436970    31.972071174400
         O            0.747513335012    -1.825681517651     0.630230563030    15.994914619570
         O            1.143709335012    -0.801281517651    -1.682692436970    15.994914619570
         N            1.787191635012     0.455045882349     0.384241063030    14.003074004430
         N           -1.844360664988    -0.735315517651     0.491899563030    14.003074004430
         N           -1.322404664988     1.122995482349    -0.638459436970    14.003074004430
         C           -0.876574664988    -0.037653517651    -0.165824436970    12.000000000000
         C            1.465310335012     0.780291482349     1.805202563030    12.000000000000
         C            1.965001335012     1.688835482349    -0.425882436970    12.000000000000
         C           -2.991972664988     0.010821482349     0.430515563030    12.000000000000
         C           -2.643467664988     1.153729482349    -0.266811436970    12.000000000000
         H            1.353036335012    -0.155570517651     2.351617563030     1.007825032230
         H            0.567099335012     1.401398482349     1.928814563030     1.007825032230
         H            2.328037335012     1.318597482349     2.203572563030     1.007825032230
         H            2.175463335012     1.384654482349    -1.449710436970     1.007825032230
         H            2.840672335012     2.198781482349    -0.017795436970     1.007825032230
         H            1.099061335012     2.360529482349    -0.409507436970     1.007825032230
         H           -1.696181664988    -1.641839517651     0.925736563030     1.007825032230
         H           -3.921585664988    -0.321890517651     0.868695563030     1.007825032230
         H           -3.276036664988     1.993611482349    -0.521050436970     1.007825032230

  Basis Set: AUG-CC-PVTZ
    Blend: AUG-CC-PVTZ
  Basis Set: (AUG-CC-PVTZ AUX)
    Blend: AUG-CC-PVTZ-JKFIT
	 Reference Energy          =    -905.3036656289738175 [Eh]
	 Singles Energy            =      -0.0000000000000000 [Eh]
	 Same-Spin Energy          =      -0.5974783511020123 [Eh]
	 Opposite-Spin Energy      =      -1.7760530214256383 [Eh]
	 Correlation Energy        =      -2.3735313725276503 [Eh]
	 Total Energy              =    -907.6771970015014404 [Eh]

	 ================> DF-SCS-MP2 Energies <==================
	-----------------------------------------------------------
	 SCS Same-Spin Scale       =       0.3333333333333333 [-]
	 SCS Opposite-Spin Scale   =       1.2000000000000000 [-]
	 SCS Same-Spin Energy      =      -0.1991594503673374 [Eh]
	 SCS Opposite-Spin Energy  =      -2.1312636257107660 [Eh]
	 SCS Correlation Energy    =      -2.3304230760781035 [Eh]
	 SCS Total Energy          =    -907.6340887050519086 [Eh]
	-----------------------------------------------------------

  Dipole Moment: [D]
     X:    -2.8283      Y:     1.9964      Z:     3.6139     Total:     5.0045

*** Psi4 exiting successfully. Buy a developer a beer!
