                               Psi4 1.3.2 release

  ==> Input File <==

--------------------------------------------------------------------------
#psi4
#
memory 32 gb

molecule  {
0 1
  S        0.7637890    -0.7221230    -0.3122950
  O        0.7428910    -1.8740890     0.5977740
  O        1.1390870    -0.8496890    -1.7151490
  N        1.7366500     0.4402300     0.3626080
  N       -1.8489830    -0.7837230     0.4594430
  N       -1.3270270     1.0745880    -0.6709160
  C       -0.8811970    -0.0860610    -0.1982810
  C        1.4606880     0.7318840     1.7727460
  C        1.9603790     1.6404280    -0.4583390
  C       -2.9055095    -0.0678105     0.3873576
  C       -2.6480900     1.1053220    -0.2992680
  H        1.3484140    -0.2039780     2.3191610
  H        0.5624770     1.3529910     1.8963580
  H        2.3234150     1.2701900     2.1711160
  H        2.1708410     1.3362470    -1.4821670
  H        2.8360500     2.1503740    -0.0502520
  H        1.0944390     2.3121220    -0.4419640
  H       -1.7008040    -1.6902470     0.8932800
  H       -3.9262080    -0.3702980     0.8362390
  H       -3.2806590     1.9452040    -0.5535070
units angstrom
no_reorient  #important for SAPT in psi4, default
symmetry c1  #important for SAPT in psi4, default
}

set PROPERTIES_ORIGIN ["COM"]
properties('MP2/aug-cc-pvtz', properties = ['dipole'])
--------------------------------------------------------------------------

    Molecular point group: c1
  Charge       = 0
  Multiplicity = 1
  Basis Set: AUG-CC-PVTZ
    Blend: AUG-CC-PVTZ
  Basis Set: (AUG-CC-PVTZ AUX)
    Blend: AUG-CC-PVTZ-JKFIT

    Orbital Energies [Eh]
    ---------------------

    Doubly Occupied:

       1A    -92.213590     2A    -20.557336     3A    -20.553424
       4A    -15.659320     5A    -15.609187     6A    -15.589094
       7A    -11.329725     8A    -11.294307     9A    -11.274306
      10A    -11.267766    11A    -11.264938    12A     -9.178035
      13A     -6.863240    14A     -6.862863    15A     -6.862455
      16A     -1.462968    17A     -1.394601    18A     -1.343977
      19A     -1.256412    20A     -1.211800    21A     -1.049369
      22A     -0.980510    23A     -0.956697    24A     -0.875773
      25A     -0.851505    26A     -0.824951    27A     -0.751768
      28A     -0.711116    29A     -0.683813    30A     -0.666392
      31A     -0.650000    32A     -0.636597    33A     -0.624481
      34A     -0.615686    35A     -0.598633    36A     -0.576286
      37A     -0.570200    38A     -0.540798    39A     -0.512386
      40A     -0.507144    41A     -0.482367    42A     -0.478684
      43A     -0.470160    44A     -0.437592    45A     -0.416654
      46A     -0.340149

  @DF-RHF Final Energy:  -905.29429349073155

   => Energetics <=

    Nuclear Repulsion Energy =            799.9343960728734828
    One-Electron Energy =               -2830.7392642512154453
    Two-Electron Energy =                1125.5105746876106423
    Total Energy =                       -905.2942934907314338
  Basis Set: (AUG-CC-PVTZ AUX)
    Blend: AUG-CC-PVTZ-RI
    Molecular point group: c1

    Geometry (in Angstrom), charge = 0, multiplicity = 1:

       Center              X                  Y                   Z               Mass
    ------------   -----------------  -----------------  -----------------  -----------------
         S            0.765840433134    -0.674330752503    -0.279970665414    31.972071174400
         O            0.744942433134    -1.826296752503     0.630098334586    15.994914619570
         O            1.141138433134    -0.801896752503    -1.682824665414    15.994914619570
         N            1.738701433134     0.488022247497     0.394932334586    14.003074004430
         N           -1.846931566866    -0.735930752503     0.491767334586    14.003074004430
         N           -1.324975566866     1.122380247497    -0.638591665414    14.003074004430
         C           -0.879145566866    -0.038268752503    -0.165956665414    12.000000000000
         C            1.462739433134     0.779676247497     1.805070334586    12.000000000000
         C            1.962430433134     1.688220247497    -0.426014665414    12.000000000000
         C           -2.903458066866    -0.020018252503     0.419681934586    12.000000000000
         C           -2.646038566866     1.153114247497    -0.266943665414    12.000000000000
         H            1.350465433134    -0.156185752503     2.351485334586     1.007825032230
         H            0.564528433134     1.400783247497     1.928682334586     1.007825032230
         H            2.325466433134     1.317982247497     2.203440334586     1.007825032230
         H            2.172892433134     1.384039247497    -1.449842665414     1.007825032230
         H            2.838101433134     2.198166247497    -0.017927665414     1.007825032230
         H            1.096490433134     2.359914247497    -0.409639665414     1.007825032230
         H           -1.698752566866    -1.642454752503     0.925604334586     1.007825032230
         H           -3.924156566866    -0.322505752503     0.868563334586     1.007825032230
         H           -3.278607566866     1.992996247497    -0.521182665414     1.007825032230

  Basis Set: AUG-CC-PVTZ
    Blend: AUG-CC-PVTZ
  Basis Set: (AUG-CC-PVTZ AUX)
    Blend: AUG-CC-PVTZ-JKFIT
	 Reference Energy          =    -905.2942934907315475 [Eh]
	 Singles Energy            =      -0.0000000000000000 [Eh]
	 Same-Spin Energy          =      -0.5979245707137850 [Eh]
	 Opposite-Spin Energy      =      -1.7746028762071915 [Eh]
	 Correlation Energy        =      -2.3725274469209765 [Eh]
	 Total Energy              =    -907.6668209376525738 [Eh]

	 ================> DF-SCS-MP2 Energies <==================
	-----------------------------------------------------------
	 SCS Same-Spin Scale       =       0.3333333333333333 [-]
	 SCS Opposite-Spin Scale   =       1.2000000000000000 [-]
	 SCS Same-Spin Energy      =      -0.1993081902379283 [Eh]
	 SCS Opposite-Spin Energy  =      -2.1295234514486299 [Eh]
	 SCS Correlation Energy    =      -2.3288316416865582 [Eh]
	 SCS Total Energy          =    -907.6231251324180676 [Eh]
	-----------------------------------------------------------

  Dipole Moment: [D]
     X:    -2.7231      Y:     1.8189      Z:     3.5991     Total:     4.8659

*** Psi4 exiting successfully. Buy a developer a beer!
