                               Psi4 1.3.2 release

  ==> Input File <==

--------------------------------------------------------------------------
#psi4
#
memory 32 gb

molecule  {
0 1
  S        0.7637890    -0.7221230    -0.3122950
  O        0.7428910    -1.8740890     0.5977740
  O        1.1390870    -0.8496890    -1.7151490
  N        1.7366500     0.4402300     0.3626080
  N       -1.8489830    -0.7837230     0.4594430
  N       -1.3195736     0.9465917    -0.6060631
  C       -0.8811970    -0.0860610    -0.1982810
  C        1.4606880     0.7318840     1.7727460
  C        1.9603790     1.6404280    -0.4583390
  C       -2.9965950    -0.0375860     0.3980590
  C       -2.6480900     1.1053220    -0.2992680
  H        1.3484140    -0.2039780     2.3191610
  H        0.5624770     1.3529910     1.8963580
  H        2.3234150     1.2701900     2.1711160
  H        2.1708410     1.3362470    -1.4821670
  H        2.8360500     2.1503740    -0.0502520
  H        1.0944390     2.3121220    -0.4419640
  H       -1.7008040    -1.6902470     0.8932800
  H       -3.9262080    -0.3702980     0.8362390
  H       -3.2806590     1.9452040    -0.5535070
units angstrom
no_reorient  #important for SAPT in psi4, default
symmetry c1  #important for SAPT in psi4, default
}

set PROPERTIES_ORIGIN ["COM"]
properties('MP2/aug-cc-pvtz', properties = ['dipole'])
--------------------------------------------------------------------------

    Molecular point group: c1
  Charge       = 0
  Multiplicity = 1
  Basis Set: AUG-CC-PVTZ
    Blend: AUG-CC-PVTZ
  Basis Set: (AUG-CC-PVTZ AUX)
    Blend: AUG-CC-PVTZ-JKFIT

    Orbital Energies [Eh]
    ---------------------

    Doubly Occupied:

       1A    -92.213064     2A    -20.556869     3A    -20.555319
       4A    -15.636514     5A    -15.610976     6A    -15.564378
       7A    -11.318904     8A    -11.294708     9A    -11.275436
      10A    -11.271047    11A    -11.266736    12A     -9.178073
      13A     -6.863241    14A     -6.862820    15A     -6.862423
      16A     -1.464085    17A     -1.393544    18A     -1.344666
      19A     -1.257896    20A     -1.207853    21A     -1.058048
      22A     -0.981941    23A     -0.961204    24A     -0.872094
      25A     -0.851385    26A     -0.811997    27A     -0.755268
      28A     -0.711255    29A     -0.683916    30A     -0.667845
      31A     -0.648611    32A     -0.635187    33A     -0.629675
      34A     -0.620906    35A     -0.612255    36A     -0.577585
      37A     -0.571386    38A     -0.542104    39A     -0.516538
      40A     -0.507052    41A     -0.491575    42A     -0.478958
      43A     -0.452865    44A     -0.436264    45A     -0.412611
      46A     -0.352730

  @DF-RHF Final Energy:  -905.29341238510051

   => Energetics <=

    Nuclear Repulsion Energy =            801.9145644526661272
    One-Electron Energy =               -2834.7363467303734978
    Two-Electron Energy =                1127.5283698926068610
    Total Energy =                       -905.2934123851005097
  Basis Set: (AUG-CC-PVTZ AUX)
    Blend: AUG-CC-PVTZ-RI
    Molecular point group: c1

    Geometry (in Angstrom), charge = 0, multiplicity = 1:

       Center              X                  Y                   Z               Mass
    ------------   -----------------  -----------------  -----------------  -----------------
         S            0.771488552115    -0.666163276382    -0.285892440967    31.972071174400
         O            0.750590552115    -1.818129276382     0.624176559033    15.994914619570
         O            1.146786552115    -0.793729276382    -1.688746440967    15.994914619570
         N            1.744349552115     0.496189723618     0.389010559033    14.003074004430
         N           -1.841283447885    -0.727763276382     0.485845559033    14.003074004430
         N           -1.311874047885     1.002551423618    -0.579660540967    14.003074004430
         C           -0.873497447885    -0.030101276382    -0.171878440967    12.000000000000
         C            1.468387552115     0.787843723618     1.799148559033    12.000000000000
         C            1.968078552115     1.696387723618    -0.431936440967    12.000000000000
         C           -2.988895447885     0.018373723618     0.424461559033    12.000000000000
         C           -2.640390447885     1.161281723618    -0.272865440967    12.000000000000
         H            1.356113552115    -0.148018276382     2.345563559033     1.007825032230
         H            0.570176552115     1.408950723618     1.922760559033     1.007825032230
         H            2.331114552115     1.326149723618     2.197518559033     1.007825032230
         H            2.178540552115     1.392206723618    -1.455764440967     1.007825032230
         H            2.843749552115     2.206333723618    -0.023849440967     1.007825032230
         H            1.102138552115     2.368081723618    -0.415561440967     1.007825032230
         H           -1.693104447885    -1.634287276382     0.919682559033     1.007825032230
         H           -3.918508447885    -0.314338276382     0.862641559033     1.007825032230
         H           -3.272959447885     2.001163723618    -0.527104440967     1.007825032230

  Basis Set: AUG-CC-PVTZ
    Blend: AUG-CC-PVTZ
  Basis Set: (AUG-CC-PVTZ AUX)
    Blend: AUG-CC-PVTZ-JKFIT
	 Reference Energy          =    -905.2934123851005097 [Eh]
	 Singles Energy            =      -0.0000000000000000 [Eh]
	 Same-Spin Energy          =      -0.5945025068310199 [Eh]
	 Opposite-Spin Energy      =      -1.7693211491210763 [Eh]
	 Correlation Energy        =      -2.3638236559520962 [Eh]
	 Total Energy              =    -907.6572360410525562 [Eh]

	 ================> DF-SCS-MP2 Energies <==================
	-----------------------------------------------------------
	 SCS Same-Spin Scale       =       0.3333333333333333 [-]
	 SCS Opposite-Spin Scale   =       1.2000000000000000 [-]
	 SCS Same-Spin Energy      =      -0.1981675022770066 [Eh]
	 SCS Opposite-Spin Energy  =      -2.1231853789452915 [Eh]
	 SCS Correlation Energy    =      -2.3213528812222979 [Eh]
	 SCS Total Energy          =    -907.6147652663228200 [Eh]
	-----------------------------------------------------------

  Dipole Moment: [D]
     X:    -2.5909      Y:     2.2228      Z:     3.3801     Total:     4.8041

*** Psi4 exiting successfully. Buy a developer a beer!
