                               Psi4 1.3.2 release

  ==> Input File <==

--------------------------------------------------------------------------
#psi4
#
memory 32 gb

molecule  {
0 1
  S        0.7637890    -0.7221230    -0.3122950
  O        0.8902692    -1.8961763     0.5602241
  O        1.1390870    -0.8496890    -1.7151490
  N        1.7366500     0.4402300     0.3626080
  N       -1.8489830    -0.7837230     0.4594430
  N       -1.3270270     1.0745880    -0.6709160
  C       -0.8811970    -0.0860610    -0.1982810
  C        1.4606880     0.7318840     1.7727460
  C        1.9603790     1.6404280    -0.4583390
  C       -2.9965950    -0.0375860     0.3980590
  C       -2.6480900     1.1053220    -0.2992680
  H        1.3484140    -0.2039780     2.3191610
  H        0.5624770     1.3529910     1.8963580
  H        2.3234150     1.2701900     2.1711160
  H        2.1708410     1.3362470    -1.4821670
  H        2.8360500     2.1503740    -0.0502520
  H        1.0944390     2.3121220    -0.4419640
  H       -1.7008040    -1.6902470     0.8932800
  H       -3.9262080    -0.3702980     0.8362390
  H       -3.2806590     1.9452040    -0.5535070
units angstrom
no_reorient  #important for SAPT in psi4, default
symmetry c1  #important for SAPT in psi4, default
}

set PROPERTIES_ORIGIN ["COM"]
properties('MP2/aug-cc-pvtz', properties = ['dipole'])
--------------------------------------------------------------------------

    Molecular point group: c1
  Charge       = 0
  Multiplicity = 1
  Basis Set: AUG-CC-PVTZ
    Blend: AUG-CC-PVTZ
  Basis Set: (AUG-CC-PVTZ AUX)
    Blend: AUG-CC-PVTZ-JKFIT

    Orbital Energies [Eh]
    ---------------------

    Doubly Occupied:

       1A    -92.213482     2A    -20.555969     3A    -20.550023
       4A    -15.660836     5A    -15.607451     6A    -15.591911
       7A    -11.344502     8A    -11.297550     9A    -11.277998
      10A    -11.274243    11A    -11.263749    12A     -9.178312
      13A     -6.863550    14A     -6.862994    15A     -6.862733
      16A     -1.461806    17A     -1.375109    18A     -1.338853
      19A     -1.255135    20A     -1.203787    21A     -1.055711
      22A     -0.980026    23A     -0.959676    24A     -0.879575
      25A     -0.845526    26A     -0.822812    27A     -0.750999
      28A     -0.708352    29A     -0.678525    30A     -0.665129
      31A     -0.644845    32A     -0.636498    33A     -0.627353
      34A     -0.618330    35A     -0.607674    36A     -0.576145
      37A     -0.569614    38A     -0.539932    39A     -0.512189
      40A     -0.502361    41A     -0.487775    42A     -0.473872
      43A     -0.472630    44A     -0.433809    45A     -0.416456
      46A     -0.350280

  @DF-RHF Final Energy:  -905.30363947723720

   => Energetics <=

    Nuclear Repulsion Energy =            796.3979913869128495
    One-Electron Energy =               -2823.6910932384112130
    Two-Electron Energy =                1121.9894623742609383
    Total Energy =                       -905.3036394772373114
  Basis Set: (AUG-CC-PVTZ AUX)
    Blend: AUG-CC-PVTZ-RI
    Molecular point group: c1

    Geometry (in Angstrom), charge = 0, multiplicity = 1:

       Center              X                  Y                   Z               Mass
    ------------   -----------------  -----------------  -----------------  -----------------
         S            0.758617715200    -0.674384508439    -0.277273073610    31.972071174400
         O            0.885097915200    -1.848437808439     0.595246026390    15.994914619570
         O            1.133915715200    -0.801950508439    -1.680127073610    15.994914619570
         N            1.731478715200     0.487968491561     0.397629926390    14.003074004430
         N           -1.854154284800    -0.735984508439     0.494464926390    14.003074004430
         N           -1.332198284800     1.122326491561    -0.635894073610    14.003074004430
         C           -0.886368284800    -0.038322508439    -0.163259073610    12.000000000000
         C            1.455516715200     0.779622491561     1.807767926390    12.000000000000
         C            1.955207715200     1.688166491561    -0.423317073610    12.000000000000
         C           -3.001766284800     0.010152491561     0.433080926390    12.000000000000
         C           -2.653261284800     1.153060491561    -0.264246073610    12.000000000000
         H            1.343242715200    -0.156239508439     2.354182926390     1.007825032230
         H            0.557305715200     1.400729491561     1.931379926390     1.007825032230
         H            2.318243715200     1.317928491561     2.206137926390     1.007825032230
         H            2.165669715200     1.383985491561    -1.447145073610     1.007825032230
         H            2.830878715200     2.198112491561    -0.015230073610     1.007825032230
         H            1.089267715200     2.359860491561    -0.406942073610     1.007825032230
         H           -1.705975284800    -1.642508508439     0.928301926390     1.007825032230
         H           -3.931379284800    -0.322559508439     0.871260926390     1.007825032230
         H           -3.285830284800     1.992942491561    -0.518485073610     1.007825032230

  Basis Set: AUG-CC-PVTZ
    Blend: AUG-CC-PVTZ
  Basis Set: (AUG-CC-PVTZ AUX)
    Blend: AUG-CC-PVTZ-JKFIT
	 Reference Energy          =    -905.3036394772371978 [Eh]
	 Singles Energy            =      -0.0000000000000000 [Eh]
	 Same-Spin Energy          =      -0.5973664636043778 [Eh]
	 Opposite-Spin Energy      =      -1.7753523924449968 [Eh]
	 Correlation Energy        =      -2.3727188560493744 [Eh]
	 Total Energy              =    -907.6763583332865437 [Eh]

	 ================> DF-SCS-MP2 Energies <==================
	-----------------------------------------------------------
	 SCS Same-Spin Scale       =       0.3333333333333333 [-]
	 SCS Opposite-Spin Scale   =       1.2000000000000000 [-]
	 SCS Same-Spin Energy      =      -0.1991221545347926 [Eh]
	 SCS Opposite-Spin Energy  =      -2.1304228709339958 [Eh]
	 SCS Correlation Energy    =      -2.3295450254687884 [Eh]
	 SCS Total Energy          =    -907.6331845027059444 [Eh]
	-----------------------------------------------------------

  Dipole Moment: [D]
     X:    -3.1661      Y:     1.9572      Z:     3.6613     Total:     5.2211

*** Psi4 exiting successfully. Buy a developer a beer!
