                               Psi4 1.3.2 release

  ==> Input File <==

--------------------------------------------------------------------------
#psi4
#
memory 32 gb

molecule  {
0 1
  S        0.7637890    -0.7221230    -0.3122950
  O        0.7731549    -1.9322840     0.5190356
  O        1.1390870    -0.8496890    -1.7151490
  N        1.7366500     0.4402300     0.3626080
  N       -1.8489830    -0.7837230     0.4594430
  N       -1.3270270     1.0745880    -0.6709160
  C       -0.8811970    -0.0860610    -0.1982810
  C        1.4606880     0.7318840     1.7727460
  C        1.9603790     1.6404280    -0.4583390
  C       -2.9965950    -0.0375860     0.3980590
  C       -2.6480900     1.1053220    -0.2992680
  H        1.3484140    -0.2039780     2.3191610
  H        0.5624770     1.3529910     1.8963580
  H        2.3234150     1.2701900     2.1711160
  H        2.1708410     1.3362470    -1.4821670
  H        2.8360500     2.1503740    -0.0502520
  H        1.0944390     2.3121220    -0.4419640
  H       -1.7008040    -1.6902470     0.8932800
  H       -3.9262080    -0.3702980     0.8362390
  H       -3.2806590     1.9452040    -0.5535070
units angstrom
no_reorient  #important for SAPT in psi4, default
symmetry c1  #important for SAPT in psi4, default
}

set PROPERTIES_ORIGIN ["COM"]
properties('MP2/aug-cc-pvtz', properties = ['dipole'])
--------------------------------------------------------------------------

    Molecular point group: c1
  Charge       = 0
  Multiplicity = 1
  Basis Set: AUG-CC-PVTZ
    Blend: AUG-CC-PVTZ
  Basis Set: (AUG-CC-PVTZ AUX)
    Blend: AUG-CC-PVTZ-JKFIT

    Orbital Energies [Eh]
    ---------------------

    Doubly Occupied:

       1A    -92.214384     2A    -20.557667     3A    -20.549041
       4A    -15.656992     5A    -15.613037     6A    -15.588399
       7A    -11.339643     8A    -11.294573     9A    -11.277654
      10A    -11.275029    11A    -11.267233    12A     -9.179081
      13A     -6.864300    14A     -6.863761    15A     -6.863541
      16A     -1.462391    17A     -1.371552    18A     -1.339003
      19A     -1.260229    20A     -1.200364    21A     -1.052031
      22A     -0.983383    23A     -0.961551    24A     -0.878213
      25A     -0.842105    26A     -0.819866    27A     -0.752877
      28A     -0.709430    29A     -0.677803    30A     -0.666642
      31A     -0.644074    32A     -0.634014    33A     -0.626380
      34A     -0.617302    35A     -0.607721    36A     -0.579483
      37A     -0.572467    38A     -0.543043    39A     -0.513200
      40A     -0.502823    41A     -0.486610    42A     -0.474628
      43A     -0.472359    44A     -0.430756    45A     -0.419554
      46A     -0.347526

  @DF-RHF Final Energy:  -905.30563220012584

   => Energetics <=

    Nuclear Repulsion Energy =            796.6364217494664217
    One-Electron Energy =               -2824.1766772901723925
    Two-Electron Energy =                1122.2346233405799012
    Total Energy =                       -905.3056322001259559
  Basis Set: (AUG-CC-PVTZ AUX)
    Blend: AUG-CC-PVTZ-RI
    Molecular point group: c1

    Geometry (in Angstrom), charge = 0, multiplicity = 1:

       Center              X                  Y                   Z               Mass
    ------------   -----------------  -----------------  -----------------  -----------------
         S            0.769319364344    -0.671085065615    -0.273509358370    31.972071174400
         O            0.778685264344    -1.881246065615     0.557821241630    15.994914619570
         O            1.144617364344    -0.798651065615    -1.676363358370    15.994914619570
         N            1.742180364344     0.491267934385     0.401393641630    14.003074004430
         N           -1.843452635656    -0.732685065615     0.498228641630    14.003074004430
         N           -1.321496635656     1.125625934385    -0.632130358370    14.003074004430
         C           -0.875666635656    -0.035023065615    -0.159495358370    12.000000000000
         C            1.466218364344     0.782921934385     1.811531641630    12.000000000000
         C            1.965909364344     1.691465934385    -0.419553358370    12.000000000000
         C           -2.991064635656     0.013451934385     0.436844641630    12.000000000000
         C           -2.642559635656     1.156359934385    -0.260482358370    12.000000000000
         H            1.353944364344    -0.152940065615     2.357946641630     1.007825032230
         H            0.568007364344     1.404028934385     1.935143641630     1.007825032230
         H            2.328945364344     1.321227934385     2.209901641630     1.007825032230
         H            2.176371364344     1.387284934385    -1.443381358370     1.007825032230
         H            2.841580364344     2.201411934385    -0.011466358370     1.007825032230
         H            1.099969364344     2.363159934385    -0.403178358370     1.007825032230
         H           -1.695273635656    -1.639209065615     0.932065641630     1.007825032230
         H           -3.920677635656    -0.319260065615     0.875024641630     1.007825032230
         H           -3.275128635656     1.996241934385    -0.514721358370     1.007825032230

  Basis Set: AUG-CC-PVTZ
    Blend: AUG-CC-PVTZ
  Basis Set: (AUG-CC-PVTZ AUX)
    Blend: AUG-CC-PVTZ-JKFIT
	 Reference Energy          =    -905.3056322001258422 [Eh]
	 Singles Energy            =      -0.0000000000000000 [Eh]
	 Same-Spin Energy          =      -0.5971847900697164 [Eh]
	 Opposite-Spin Energy      =      -1.7749813283016271 [Eh]
	 Correlation Energy        =      -2.3721661183713434 [Eh]
	 Total Energy              =    -907.6777983184971390 [Eh]

	 ================> DF-SCS-MP2 Energies <==================
	-----------------------------------------------------------
	 SCS Same-Spin Scale       =       0.3333333333333333 [-]
	 SCS Opposite-Spin Scale   =       1.2000000000000000 [-]
	 SCS Same-Spin Energy      =      -0.1990615966899054 [Eh]
	 SCS Opposite-Spin Energy  =      -2.1299775939619523 [Eh]
	 SCS Correlation Energy    =      -2.3290391906518577 [Eh]
	 SCS Total Energy          =    -907.6346713907777257 [Eh]
	-----------------------------------------------------------

  Dipole Moment: [D]
     X:    -2.7930      Y:     2.0577      Z:     3.7693     Total:     5.1228

*** Psi4 exiting successfully. Buy a developer a beer!
