                               Psi4 1.3.2 release

  ==> Input File <==

--------------------------------------------------------------------------
#psi4
#
memory 32 gb

molecule  {
0 1
  S        0.7637890    -0.7221230    -0.3122950
  O        0.7428910    -1.8740890     0.5977740
  O        1.1390870    -0.8496890    -1.7151490
  N        1.7366500     0.4402300     0.3626080
  N       -1.8489830    -0.7837230     0.4594430
  N       -1.3270270     1.0745880    -0.6709160
  C       -0.9147147     0.0011971    -0.2338139
  C        1.4606880     0.7318840     1.7727460
  C        1.9603790     1.6404280    -0.4583390
  C       -2.9965950    -0.0375860     0.3980590
  C       -2.6480900     1.1053220    -0.2992680
  H        1.3484140    -0.2039780     2.3191610
  H        0.5624770     1.3529910     1.8963580
  H        2.3234150     1.2701900     2.1711160
  H        2.1708410     1.3362470    -1.4821670
  H        2.8360500     2.1503740    -0.0502520
  H        1.0944390     2.3121220    -0.4419640
  H       -1.7008040    -1.6902470     0.8932800
  H       -3.9262080    -0.3702980     0.8362390
  H       -3.2806590     1.9452040    -0.5535070
units angstrom
no_reorient  #important for SAPT in psi4, default
symmetry c1  #important for SAPT in psi4, default
}

set PROPERTIES_ORIGIN ["COM"]
properties('MP2/aug-cc-pvtz', properties = ['dipole'])
--------------------------------------------------------------------------

    Molecular point group: c1
  Charge       = 0
  Multiplicity = 1
  Basis Set: AUG-CC-PVTZ
    Blend: AUG-CC-PVTZ
  Basis Set: (AUG-CC-PVTZ AUX)
    Blend: AUG-CC-PVTZ-JKFIT

    Orbital Energies [Eh]
    ---------------------

    Doubly Occupied:

       1A    -92.213998     2A    -20.561683     3A    -20.554564
       4A    -15.643339     5A    -15.609564     6A    -15.582049
       7A    -11.337404     8A    -11.294398     9A    -11.275330
      10A    -11.270632    11A    -11.266754    12A     -9.178381
      13A     -6.863559    14A     -6.862955    15A     -6.862776
      16A     -1.462393    17A     -1.379626    18A     -1.345481
      19A     -1.257259    20A     -1.217489    21A     -1.042321
      22A     -0.981794    23A     -0.957784    24A     -0.869063
      25A     -0.845111    26A     -0.813461    27A     -0.752483
      28A     -0.709536    29A     -0.677108    30A     -0.667341
      31A     -0.645320    32A     -0.633433    33A     -0.623544
      34A     -0.616027    35A     -0.610434    36A     -0.577502
      37A     -0.571656    38A     -0.542098    39A     -0.515531
      40A     -0.507728    41A     -0.497663    42A     -0.480069
      43A     -0.464832    44A     -0.443299    45A     -0.412303
      46A     -0.346570

  @DF-RHF Final Energy:  -905.29849572525245

   => Energetics <=

    Nuclear Repulsion Energy =            797.2262051855016125
    One-Electron Energy =               -2825.3621061048797856
    Two-Electron Energy =                1122.8374051941257221
    Total Energy =                       -905.2984957252524509
  Basis Set: (AUG-CC-PVTZ AUX)
    Blend: AUG-CC-PVTZ-RI
    Molecular point group: c1

    Geometry (in Angstrom), charge = 0, multiplicity = 1:

       Center              X                  Y                   Z               Mass
    ------------   -----------------  -----------------  -----------------  -----------------
         S            0.774382624513    -0.682384790063    -0.278268338144    31.972071174400
         O            0.753484624513    -1.834350790063     0.631800661856    15.994914619570
         O            1.149680624513    -0.809950790063    -1.681122338144    15.994914619570
         N            1.747243624513     0.479968209937     0.396634661856    14.003074004430
         N           -1.838389375487    -0.743984790063     0.493469661856    14.003074004430
         N           -1.316433375487     1.114326209937    -0.636889338144    14.003074004430
         C           -0.904121075487     0.040935309937    -0.199787238144    12.000000000000
         C            1.471281624513     0.771622209937     1.806772661856    12.000000000000
         C            1.970972624513     1.680166209937    -0.424312338144    12.000000000000
         C           -2.986001375487     0.002152209937     0.432085661856    12.000000000000
         C           -2.637496375487     1.145060209937    -0.265241338144    12.000000000000
         H            1.359007624513    -0.164239790063     2.353187661856     1.007825032230
         H            0.573070624513     1.392729209937     1.930384661856     1.007825032230
         H            2.334008624513     1.309928209937     2.205142661856     1.007825032230
         H            2.181434624513     1.375985209937    -1.448140338144     1.007825032230
         H            2.846643624513     2.190112209937    -0.016225338144     1.007825032230
         H            1.105032624513     2.351860209937    -0.407937338144     1.007825032230
         H           -1.690210375487    -1.650508790063     0.927306661856     1.007825032230
         H           -3.915614375487    -0.330559790063     0.870265661856     1.007825032230
         H           -3.270065375487     1.984942209937    -0.519480338144     1.007825032230

  Basis Set: AUG-CC-PVTZ
    Blend: AUG-CC-PVTZ
  Basis Set: (AUG-CC-PVTZ AUX)
    Blend: AUG-CC-PVTZ-JKFIT
	 Reference Energy          =    -905.2984957252524509 [Eh]
	 Singles Energy            =      -0.0000000000000000 [Eh]
	 Same-Spin Energy          =      -0.5952055912503793 [Eh]
	 Opposite-Spin Energy      =      -1.7723542985659806 [Eh]
	 Correlation Energy        =      -2.3675598898163601 [Eh]
	 Total Energy              =    -907.6660556150687853 [Eh]

	 ================> DF-SCS-MP2 Energies <==================
	-----------------------------------------------------------
	 SCS Same-Spin Scale       =       0.3333333333333333 [-]
	 SCS Opposite-Spin Scale   =       1.2000000000000000 [-]
	 SCS Same-Spin Energy      =      -0.1984018637501264 [Eh]
	 SCS Opposite-Spin Energy  =      -2.1268251582791766 [Eh]
	 SCS Correlation Energy    =      -2.3252270220293032 [Eh]
	 SCS Total Energy          =    -907.6237227472817040 [Eh]
	-----------------------------------------------------------

  Dipole Moment: [D]
     X:    -2.5129      Y:     1.9682      Z:     3.4742     Total:     4.7179

*** Psi4 exiting successfully. Buy a developer a beer!
