                               Psi4 1.3.2 release

  ==> Input File <==

--------------------------------------------------------------------------
#psi4
#
memory 32 gb

molecule  {
0 1
  S        0.7637890    -0.7221230    -0.3122950
  O        0.6803360    -1.9208273     0.5314061
  O        1.1390870    -0.8496890    -1.7151490
  N        1.7366500     0.4402300     0.3626080
  N       -1.8489830    -0.7837230     0.4594430
  N       -1.3270270     1.0745880    -0.6709160
  C       -0.8811970    -0.0860610    -0.1982810
  C        1.4606880     0.7318840     1.7727460
  C        1.9603790     1.6404280    -0.4583390
  C       -2.9965950    -0.0375860     0.3980590
  C       -2.6480900     1.1053220    -0.2992680
  H        1.3484140    -0.2039780     2.3191610
  H        0.5624770     1.3529910     1.8963580
  H        2.3234150     1.2701900     2.1711160
  H        2.1708410     1.3362470    -1.4821670
  H        2.8360500     2.1503740    -0.0502520
  H        1.0944390     2.3121220    -0.4419640
  H       -1.7008040    -1.6902470     0.8932800
  H       -3.9262080    -0.3702980     0.8362390
  H       -3.2806590     1.9452040    -0.5535070
units angstrom
no_reorient  #important for SAPT in psi4, default
symmetry c1  #important for SAPT in psi4, default
}

set PROPERTIES_ORIGIN ["COM"]
properties('MP2/aug-cc-pvtz', properties = ['dipole'])
--------------------------------------------------------------------------

    Molecular point group: c1
  Charge       = 0
  Multiplicity = 1
  Basis Set: AUG-CC-PVTZ
    Blend: AUG-CC-PVTZ
  Basis Set: (AUG-CC-PVTZ AUX)
    Blend: AUG-CC-PVTZ-JKFIT

    Orbital Energies [Eh]
    ---------------------

    Doubly Occupied:

       1A    -92.215732     2A    -20.559068     3A    -20.552184
       4A    -15.653281     5A    -15.615617     6A    -15.585007
       7A    -11.335163     8A    -11.291703     9A    -11.278633
      10A    -11.272140    11A    -11.268831    12A     -9.180280
      13A     -6.865508    14A     -6.865016    15A     -6.864707
      16A     -1.463967    17A     -1.368311    18A     -1.342550
      19A     -1.262251    20A     -1.197073    21A     -1.048347
      22A     -0.984663    23A     -0.962036    24A     -0.876585
      25A     -0.838892    26A     -0.817010    27A     -0.754205
      28A     -0.710922    29A     -0.676803    30A     -0.668463
      31A     -0.642892    32A     -0.631704    33A     -0.624839
      34A     -0.616460    35A     -0.607898    36A     -0.580501
      37A     -0.573535    38A     -0.544447    39A     -0.514612
      40A     -0.505708    41A     -0.484956    42A     -0.477970
      43A     -0.471328    44A     -0.427893    45A     -0.420366
      46A     -0.344779

  @DF-RHF Final Energy:  -905.30525646727619

   => Energetics <=

    Nuclear Repulsion Energy =            797.3267626890550446
    One-Electron Energy =               -2825.5743684837293586
    Two-Electron Energy =                1122.9423493273980057
    Total Energy =                       -905.3052564672761946
  Basis Set: (AUG-CC-PVTZ AUX)
    Blend: AUG-CC-PVTZ-RI
    Molecular point group: c1

    Geometry (in Angstrom), charge = 0, multiplicity = 1:

       Center              X                  Y                   Z               Mass
    ------------   -----------------  -----------------  -----------------  -----------------
         S            0.777800952858    -0.672131953858    -0.274639747662    31.972071174400
         O            0.694347952858    -1.870836253858     0.569061352338    15.994914619570
         O            1.153098952858    -0.799697953858    -1.677493747662    15.994914619570
         N            1.750661952858     0.490221046142     0.400263252338    14.003074004430
         N           -1.834971047142    -0.733731953858     0.497098252338    14.003074004430
         N           -1.313015047142     1.124579046142    -0.633260747662    14.003074004430
         C           -0.867185047142    -0.036069953858    -0.160625747662    12.000000000000
         C            1.474699952858     0.781875046142     1.810401252338    12.000000000000
         C            1.974390952858     1.690419046142    -0.420683747662    12.000000000000
         C           -2.982583047142     0.012405046142     0.435714252338    12.000000000000
         C           -2.634078047142     1.155313046142    -0.261612747662    12.000000000000
         H            1.362425952858    -0.153986953858     2.356816252338     1.007825032230
         H            0.576488952858     1.402982046142     1.934013252338     1.007825032230
         H            2.337426952858     1.320181046142     2.208771252338     1.007825032230
         H            2.184852952858     1.386238046142    -1.444511747662     1.007825032230
         H            2.850061952858     2.200365046142    -0.012596747662     1.007825032230
         H            1.108450952858     2.362113046142    -0.404308747662     1.007825032230
         H           -1.686792047142    -1.640255953858     0.930935252338     1.007825032230
         H           -3.912196047142    -0.320306953858     0.873894252338     1.007825032230
         H           -3.266647047142     1.995195046142    -0.515851747662     1.007825032230

  Basis Set: AUG-CC-PVTZ
    Blend: AUG-CC-PVTZ
  Basis Set: (AUG-CC-PVTZ AUX)
    Blend: AUG-CC-PVTZ-JKFIT
	 Reference Energy          =    -905.3052564672761946 [Eh]
	 Singles Energy            =      -0.0000000000000000 [Eh]
	 Same-Spin Energy          =      -0.5973197256142502 [Eh]
	 Opposite-Spin Energy      =      -1.7751753347441603 [Eh]
	 Correlation Energy        =      -2.3724950603584105 [Eh]
	 Total Energy              =    -907.6777515276346548 [Eh]

	 ================> DF-SCS-MP2 Energies <==================
	-----------------------------------------------------------
	 SCS Same-Spin Scale       =       0.3333333333333333 [-]
	 SCS Opposite-Spin Scale   =       1.2000000000000000 [-]
	 SCS Same-Spin Energy      =      -0.1991065752047501 [Eh]
	 SCS Opposite-Spin Energy  =      -2.1302104016929921 [Eh]
	 SCS Correlation Energy    =      -2.3293169768977422 [Eh]
	 SCS Total Energy          =    -907.6345734441739523 [Eh]
	-----------------------------------------------------------

  Dipole Moment: [D]
     X:    -2.4814      Y:     2.0213      Z:     3.7369     Total:     4.9201

*** Psi4 exiting successfully. Buy a developer a beer!
