                               Psi4 1.3.2 release

  ==> Input File <==

--------------------------------------------------------------------------
#psi4
#
memory 32 gb

molecule  {
0 1
  S        0.7637890    -0.7221230    -0.3122950
  O        0.6937360    -1.8639059     0.6080921
  O        1.1390870    -0.8496890    -1.7151490
  N        1.7366500     0.4402300     0.3626080
  N       -1.8489830    -0.7837230     0.4594430
  N       -1.3270270     1.0745880    -0.6709160
  C       -0.8811970    -0.0860610    -0.1982810
  C        1.4606880     0.7318840     1.7727460
  C        1.9603790     1.6404280    -0.4583390
  C       -2.9965950    -0.0375860     0.3980590
  C       -2.6480900     1.1053220    -0.2992680
  H        1.3484140    -0.2039780     2.3191610
  H        0.5624770     1.3529910     1.8963580
  H        2.3234150     1.2701900     2.1711160
  H        2.1708410     1.3362470    -1.4821670
  H        2.8360500     2.1503740    -0.0502520
  H        1.0944390     2.3121220    -0.4419640
  H       -1.7008040    -1.6902470     0.8932800
  H       -3.9262080    -0.3702980     0.8362390
  H       -3.2806590     1.9452040    -0.5535070
units angstrom
no_reorient  #important for SAPT in psi4, default
symmetry c1  #important for SAPT in psi4, default
}

set PROPERTIES_ORIGIN ["COM"]
properties('MP2/aug-cc-pvtz', properties = ['dipole'])
--------------------------------------------------------------------------

    Molecular point group: c1
  Charge       = 0
  Multiplicity = 1
  Basis Set: AUG-CC-PVTZ
    Blend: AUG-CC-PVTZ
  Basis Set: (AUG-CC-PVTZ AUX)
    Blend: AUG-CC-PVTZ-JKFIT

    Orbital Energies [Eh]
    ---------------------

    Doubly Occupied:

       1A    -92.216590     2A    -20.559240     3A    -20.557837
       4A    -15.653091     5A    -15.612583     6A    -15.584788
       7A    -11.335056     8A    -11.291542     9A    -11.275670
      10A    -11.271924    11A    -11.266895    12A     -9.181029
      13A     -6.866244    14A     -6.865880    15A     -6.865405
      16A     -1.465301    17A     -1.368337    18A     -1.347400
      19A     -1.258980    20A     -1.196882    21A     -1.047937
      22A     -0.982301    23A     -0.960165    24A     -0.876245
      25A     -0.838804    26A     -0.816805    27A     -0.753655
      28A     -0.711567    29A     -0.676278    30A     -0.669202
      31A     -0.641962    32A     -0.631361    33A     -0.624341
      34A     -0.616657    35A     -0.608752    36A     -0.577641
      37A     -0.571610    38A     -0.542634    39A     -0.514772
      40A     -0.509641    41A     -0.484496    42A     -0.481958
      43A     -0.470795    44A     -0.427723    45A     -0.418435
      46A     -0.344553

  @DF-RHF Final Energy:  -905.30526670603786

   => Energetics <=

    Nuclear Repulsion Energy =            797.8942247152183427
    One-Electron Energy =               -2826.7170637951417120
    Two-Electron Energy =                1123.5175723738855140
    Total Energy =                       -905.3052667060378553
  Basis Set: (AUG-CC-PVTZ AUX)
    Blend: AUG-CC-PVTZ-RI
    Molecular point group: c1

    Geometry (in Angstrom), charge = 0, multiplicity = 1:

       Center              X                  Y                   Z               Mass
    ------------   -----------------  -----------------  -----------------  -----------------
         S            0.776576490102    -0.677333307164    -0.281647146983    31.972071174400
         O            0.706523490102    -1.819116207164     0.638739953017    15.994914619570
         O            1.151874490102    -0.804899307164    -1.684501146983    15.994914619570
         N            1.749437490102     0.485019692836     0.393255853017    14.003074004430
         N           -1.836195509898    -0.738933307164     0.490090853017    14.003074004430
         N           -1.314239509898     1.119377692836    -0.640268146983    14.003074004430
         C           -0.868409509898    -0.041271307164    -0.167633146983    12.000000000000
         C            1.473475490102     0.776673692836     1.803393853017    12.000000000000
         C            1.973166490102     1.685217692836    -0.427691146983    12.000000000000
         C           -2.983807509898     0.007203692836     0.428706853017    12.000000000000
         C           -2.635302509898     1.150111692836    -0.268620146983    12.000000000000
         H            1.361201490102    -0.159188307164     2.349808853017     1.007825032230
         H            0.575264490102     1.397780692836     1.927005853017     1.007825032230
         H            2.336202490102     1.314979692836     2.201763853017     1.007825032230
         H            2.183628490102     1.381036692836    -1.451519146983     1.007825032230
         H            2.848837490102     2.195163692836    -0.019604146983     1.007825032230
         H            1.107226490102     2.356911692836    -0.411316146983     1.007825032230
         H           -1.688016509898    -1.645457307164     0.923927853017     1.007825032230
         H           -3.913420509898    -0.325508307164     0.866886853017     1.007825032230
         H           -3.267871509898     1.989993692836    -0.522859146983     1.007825032230

  Basis Set: AUG-CC-PVTZ
    Blend: AUG-CC-PVTZ
  Basis Set: (AUG-CC-PVTZ AUX)
    Blend: AUG-CC-PVTZ-JKFIT
	 Reference Energy          =    -905.3052667060378553 [Eh]
	 Singles Energy            =      -0.0000000000000000 [Eh]
	 Same-Spin Energy          =      -0.5975856565528339 [Eh]
	 Opposite-Spin Energy      =      -1.7756297316343350 [Eh]
	 Correlation Energy        =      -2.3732153881871687 [Eh]
	 Total Energy              =    -907.6784820942250462 [Eh]

	 ================> DF-SCS-MP2 Energies <==================
	-----------------------------------------------------------
	 SCS Same-Spin Scale       =       0.3333333333333333 [-]
	 SCS Opposite-Spin Scale   =       1.2000000000000000 [-]
	 SCS Same-Spin Energy      =      -0.1991952188509446 [Eh]
	 SCS Opposite-Spin Energy  =      -2.1307556779612020 [Eh]
	 SCS Correlation Energy    =      -2.3299508968121465 [Eh]
	 SCS Total Energy          =    -907.6352176028500480 [Eh]
	-----------------------------------------------------------

  Dipole Moment: [D]
     X:    -2.5129      Y:     1.8599      Z:     3.5432     Total:     4.7253

*** Psi4 exiting successfully. Buy a developer a beer!
