                               Psi4 1.3.2 release

  ==> Input File <==

--------------------------------------------------------------------------
#psi4
#
memory 32 gb

molecule  {
0 1
  S        0.7637890    -0.7221230    -0.3122950
  O        0.7428910    -1.8740890     0.5977740
  O        1.1390870    -0.8496890    -1.7151490
  N        1.7366500     0.4402300     0.3626080
  N       -1.8263529    -0.7493932     0.4350138
  N       -1.3270270     1.0745880    -0.6709160
  C       -0.8811970    -0.0860610    -0.1982810
  C        1.4606880     0.7318840     1.7727460
  C        1.9603790     1.6404280    -0.4583390
  C       -2.9965950    -0.0375860     0.3980590
  C       -2.6480900     1.1053220    -0.2992680
  H        1.3484140    -0.2039780     2.3191610
  H        0.5624770     1.3529910     1.8963580
  H        2.3234150     1.2701900     2.1711160
  H        2.1708410     1.3362470    -1.4821670
  H        2.8360500     2.1503740    -0.0502520
  H        1.0944390     2.3121220    -0.4419640
  H       -1.7008040    -1.6902470     0.8932800
  H       -3.9262080    -0.3702980     0.8362390
  H       -3.2806590     1.9452040    -0.5535070
units angstrom
no_reorient  #important for SAPT in psi4, default
symmetry c1  #important for SAPT in psi4, default
}

set PROPERTIES_ORIGIN ["COM"]
properties('MP2/aug-cc-pvtz', properties = ['dipole'])
--------------------------------------------------------------------------

    Molecular point group: c1
  Charge       = 0
  Multiplicity = 1
  Basis Set: AUG-CC-PVTZ
    Blend: AUG-CC-PVTZ
  Basis Set: (AUG-CC-PVTZ AUX)
    Blend: AUG-CC-PVTZ-JKFIT

    Orbital Energies [Eh]
    ---------------------

    Doubly Occupied:

       1A    -92.216271     2A    -20.559143     3A    -20.556381
       4A    -15.657540     5A    -15.611632     6A    -15.580173
       7A    -11.333291     8A    -11.289375     9A    -11.275544
      10A    -11.272981    11A    -11.265928    12A     -9.180838
      13A     -6.866055    14A     -6.865652    15A     -6.865228
      16A     -1.465229    17A     -1.380408    18A     -1.346033
      19A     -1.258275    20A     -1.193826    21A     -1.054406
      22A     -0.981828    23A     -0.960170    24A     -0.873534
      25A     -0.837185    26A     -0.823099    27A     -0.753290
      28A     -0.711288    29A     -0.678383    30A     -0.668757
      31A     -0.645215    32A     -0.630604    33A     -0.628071
      34A     -0.615228    35A     -0.608108    36A     -0.577482
      37A     -0.571117    38A     -0.542046    39A     -0.514515
      40A     -0.508269    41A     -0.484394    42A     -0.480493
      43A     -0.468976    44A     -0.425466    45A     -0.418300
      46A     -0.347813

  @DF-RHF Final Energy:  -905.30300252971608

   => Energetics <=

    Nuclear Repulsion Energy =            798.7817726243672496
    One-Electron Energy =               -2828.4738697076509197
    Two-Electron Energy =                1124.3890945535674746
    Total Energy =                       -905.3030025297161956
  Basis Set: (AUG-CC-PVTZ AUX)
    Blend: AUG-CC-PVTZ-RI
    Molecular point group: c1

    Geometry (in Angstrom), charge = 0, multiplicity = 1:

       Center              X                  Y                   Z               Mass
    ------------   -----------------  -----------------  -----------------  -----------------
         S            0.770274437775    -0.679149132716    -0.278750000387    31.972071174400
         O            0.749376437775    -1.831115132716     0.631318999613    15.994914619570
         O            1.145572437775    -0.806715132716    -1.681604000387    15.994914619570
         N            1.743135437775     0.483203867284     0.396152999613    14.003074004430
         N           -1.819867462225    -0.706419332716     0.468558799613    14.003074004430
         N           -1.320541562225     1.117561867284    -0.637371000387    14.003074004430
         C           -0.874711562225    -0.043087132716    -0.164736000387    12.000000000000
         C            1.467173437775     0.774857867284     1.806290999613    12.000000000000
         C            1.966864437775     1.683401867284    -0.424794000387    12.000000000000
         C           -2.990109562225     0.005387867284     0.431603999613    12.000000000000
         C           -2.641604562225     1.148295867284    -0.265723000387    12.000000000000
         H            1.354899437775    -0.161004132716     2.352705999613     1.007825032230
         H            0.568962437775     1.395964867284     1.929902999613     1.007825032230
         H            2.329900437775     1.313163867284     2.204660999613     1.007825032230
         H            2.177326437775     1.379220867284    -1.448622000387     1.007825032230
         H            2.842535437775     2.193347867284    -0.016707000387     1.007825032230
         H            1.100924437775     2.355095867284    -0.408419000387     1.007825032230
         H           -1.694318562225    -1.647273132716     0.926824999613     1.007825032230
         H           -3.919722562225    -0.327324132716     0.869783999613     1.007825032230
         H           -3.274173562225     1.988177867284    -0.519962000387     1.007825032230

  Basis Set: AUG-CC-PVTZ
    Blend: AUG-CC-PVTZ
  Basis Set: (AUG-CC-PVTZ AUX)
    Blend: AUG-CC-PVTZ-JKFIT
	 Reference Energy          =    -905.3030025297160819 [Eh]
	 Singles Energy            =      -0.0000000000000000 [Eh]
	 Same-Spin Energy          =      -0.5976452346061734 [Eh]
	 Opposite-Spin Energy      =      -1.7751110192920354 [Eh]
	 Correlation Energy        =      -2.3727562538982090 [Eh]
	 Total Energy              =    -907.6757587836142420 [Eh]

	 ================> DF-SCS-MP2 Energies <==================
	-----------------------------------------------------------
	 SCS Same-Spin Scale       =       0.3333333333333333 [-]
	 SCS Opposite-Spin Scale   =       1.2000000000000000 [-]
	 SCS Same-Spin Energy      =      -0.1992150782020578 [Eh]
	 SCS Opposite-Spin Energy  =      -2.1301332231504424 [Eh]
	 SCS Correlation Energy    =      -2.3293483013525003 [Eh]
	 SCS Total Energy          =    -907.6323508310686066 [Eh]
	-----------------------------------------------------------

  Dipole Moment: [D]
     X:    -2.6751      Y:     1.7930      Z:     3.6212     Total:     4.8460

*** Psi4 exiting successfully. Buy a developer a beer!
