                               Psi4 1.4a3.dev225

  ==> Input File <==

--------------------------------------------------------------------------
#psi4
#
memory 32 gb

molecule  {
0 1
  S        0.7637890    -0.7221230    -0.3122950
  O        0.7428910    -1.8740890     0.5977740
  O        1.1390870    -0.8496890    -1.7151490
  N        1.7366500     0.4402300     0.3626080
  N       -1.8489830    -0.7837230     0.4594430
  N       -1.3270270     1.0745880    -0.6709160
  C       -0.8811970    -0.0860610    -0.1982810
  C        1.4606880     0.7318840     1.7727460
  C        1.9603790     1.6404280    -0.4583390
  C       -2.9965950    -0.0375860     0.3980590
  C       -2.6480900     1.1053220    -0.2992680
  H        1.3484140    -0.2039780     2.3191610
  H        0.5624770     1.3529910     1.8963580
  H        2.3234150     1.2701900     2.1711160
  H        2.1708410     1.3362470    -1.4821670
  H        2.8360500     2.1503740    -0.0502520
  H        1.0944390     2.3121220    -0.4419640
  H       -1.7037213    -1.6723995     0.8847387
  H       -3.9262080    -0.3702980     0.8362390
  H       -3.2806590     1.9452040    -0.5535070
units angstrom
no_reorient  #important for SAPT in psi4, default
symmetry c1  #important for SAPT in psi4, default
}

set PROPERTIES_ORIGIN ["COM"]
properties('MP2/aug-cc-pvtz', properties = ['dipole'])
--------------------------------------------------------------------------

    Molecular point group: c1
  Charge       = 0
  Multiplicity = 1
  Basis Set: AUG-CC-PVTZ
    Blend: AUG-CC-PVTZ
  Basis Set: (AUG-CC-PVTZ AUX)
    Blend: AUG-CC-PVTZ-JKFIT

    Orbital Energies [Eh]
    ---------------------

    Doubly Occupied:

       1A    -92.215925     2A    -20.558544     3A    -20.555985
       4A    -15.653672     5A    -15.611398     6A    -15.586905
       7A    -11.337756     8A    -11.293383     9A    -11.275347
      10A    -11.273757    11A    -11.266188    12A     -9.180441
      13A     -6.865661    14A     -6.865254    15A     -6.864834
      16A     -1.464432    17A     -1.371066    18A     -1.345469
      19A     -1.258110    20A     -1.200615    21A     -1.050388
      22A     -0.981793    23A     -0.960325    24A     -0.878844
      25A     -0.842722    26A     -0.820349    27A     -0.753164
      28A     -0.710832    29A     -0.677321    30A     -0.668243
      31A     -0.643034    32A     -0.633902    33A     -0.625461
      34A     -0.617313    35A     -0.609033    36A     -0.577306
      37A     -0.571198    38A     -0.542019    39A     -0.514092
      40A     -0.508000    41A     -0.485617    42A     -0.480060
      43A     -0.471682    44A     -0.429773    45A     -0.418174
      46A     -0.346336

  @DF-RHF Final Energy:  -905.30639423743389

   => Energetics <=

    Nuclear Repulsion Energy =            797.5975171395252801
    One-Electron Energy =               -2826.0843788054335164
    Two-Electron Energy =                1123.1804674284744578
    Total Energy =                       -905.3063942374337785
  Basis Set: (AUG-CC-PVTZ AUX)
    Blend: AUG-CC-PVTZ-RI
    Molecular point group: c1

    Geometry (in Angstrom), charge = 0, multiplicity = 1:

       Center              X                  Y                   Z               Mass
    ------------   -----------------  -----------------  -----------------  -----------------
         S            0.772101610221    -0.676505557069    -0.280655123850    31.972071174400
         O            0.751203610221    -1.828471557069     0.629413876150    15.994914619570
         O            1.147399610221    -0.804071557069    -1.683509123850    15.994914619570
         N            1.744962610221     0.485847442931     0.394247876150    14.003074004430
         N           -1.840670389779    -0.738105557069     0.491082876150    14.003074004430
         N           -1.318714389779     1.120205442931    -0.639276123850    14.003074004430
         C           -0.872884389779    -0.040443557069    -0.166641123850    12.000000000000
         C            1.469000610221     0.777501442931     1.804385876150    12.000000000000
         C            1.968691610221     1.686045442931    -0.426699123850    12.000000000000
         C           -2.988282389779     0.008031442931     0.429698876150    12.000000000000
         C           -2.639777389779     1.150939442931    -0.267628123850    12.000000000000
         H            1.356726610221    -0.158360557069     2.350800876150     1.007825032230
         H            0.570789610221     1.398608442931     1.927997876150     1.007825032230
         H            2.331727610221     1.315807442931     2.202755876150     1.007825032230
         H            2.179153610221     1.381864442931    -1.450527123850     1.007825032230
         H            2.844362610221     2.195991442931    -0.018612123850     1.007825032230
         H            1.102751610221     2.357739442931    -0.410324123850     1.007825032230
         H           -1.695408689779    -1.626782057069     0.916378576150     1.007825032230
         H           -3.917895389779    -0.324680557069     0.867878876150     1.007825032230
         H           -3.272346389779     1.990821442931    -0.521867123850     1.007825032230

  Basis Set: AUG-CC-PVTZ
    Blend: AUG-CC-PVTZ
  Basis Set: (AUG-CC-PVTZ AUX)
    Blend: AUG-CC-PVTZ-JKFIT
	 Reference Energy          =    -905.3063942374338922 [Eh]
	 Singles Energy            =      -0.0000000000000000 [Eh]
	 Same-Spin Energy          =      -0.5972908287434697 [Eh]
	 Opposite-Spin Energy      =      -1.7751033742136508 [Eh]
	 Correlation Energy        =      -2.3723942029571203 [Eh]
	 Total Energy              =    -907.6787884403910311 [Eh]

	 ================> DF-SCS-MP2 Energies <==================
	-----------------------------------------------------------
	 SCS Same-Spin Scale       =       0.3333333333333333 [-]
	 SCS Opposite-Spin Scale   =       1.2000000000000000 [-]
	 SCS Same-Spin Energy      =      -0.1990969429144899 [Eh]
	 SCS Opposite-Spin Energy  =      -2.1301240490563811 [Eh]
	 SCS Correlation Energy    =      -2.3292209919708711 [Eh]
	 SCS Total Energy          =    -907.6356152294047206 [Eh]
	-----------------------------------------------------------

  Dipole Moment: [D]
     X:    -2.6834      Y:     1.9172      Z:     3.5573     Total:     4.8508

*** Psi4 exiting successfully. Buy a developer a beer!
