                               Psi4 1.3.2 release

  ==> Input File <==

--------------------------------------------------------------------------
#psi4
#
memory 32 gb

molecule  {
0 1
  S        0.7637890    -0.7221230    -0.3122950
  O        0.7428910    -1.8740890     0.5977740
  O        1.1390870    -0.8496890    -1.7151490
  N        1.7366500     0.4402300     0.3626080
  N       -1.8489830    -0.7837230     0.4594430
  N       -1.3270270     1.0745880    -0.6709160
  C       -0.8811970    -0.0860610    -0.1982810
  C        1.4606880     0.7318840     1.7727460
  C        1.9603790     1.6404280    -0.4583390
  C       -2.9965950    -0.0375860     0.3980590
  C       -2.6480900     1.1053220    -0.2992680
  H        1.3484140    -0.2039780     2.3191610
  H        0.5624770     1.3529910     1.8963580
  H        2.3234150     1.2701900     2.1711160
  H        2.1708410     1.3362470    -1.4821670
  H        2.8360500     2.1503740    -0.0502520
  H        1.0944390     2.3121220    -0.4419640
  H       -1.7153907    -1.6010093     0.8505733
  H       -3.9262080    -0.3702980     0.8362390
  H       -3.2806590     1.9452040    -0.5535070
units angstrom
no_reorient  #important for SAPT in psi4, default
symmetry c1  #important for SAPT in psi4, default
}

set PROPERTIES_ORIGIN ["COM"]
properties('MP2/aug-cc-pvtz', properties = ['dipole'])
--------------------------------------------------------------------------

    Molecular point group: c1
  Charge       = 0
  Multiplicity = 1
  Basis Set: AUG-CC-PVTZ
    Blend: AUG-CC-PVTZ
  Basis Set: (AUG-CC-PVTZ AUX)
    Blend: AUG-CC-PVTZ-JKFIT

    Orbital Energies [Eh]
    ---------------------

    Doubly Occupied:

       1A    -92.216275     2A    -20.558621     3A    -20.556313
       4A    -15.647031     5A    -15.611717     6A    -15.587846
       7A    -11.338777     8A    -11.294368     9A    -11.275582
      10A    -11.274658    11A    -11.266463    12A     -9.180779
      13A     -6.866004    14A     -6.865591    15A     -6.865169
      16A     -1.464750    17A     -1.375976    18A     -1.345633
      19A     -1.258463    20A     -1.209399    21A     -1.052038
      22A     -0.982061    23A     -0.962038    24A     -0.889137
      25A     -0.851427    26A     -0.825600    27A     -0.753970
      28A     -0.711251    29A     -0.679180    30A     -0.668500
      31A     -0.644881    32A     -0.638076    33A     -0.626684
      34A     -0.618382    35A     -0.609614    36A     -0.577571
      37A     -0.571490    38A     -0.542259    39A     -0.514255
      40A     -0.508262    41A     -0.486174    42A     -0.480198
      43A     -0.472486    44A     -0.431617    45A     -0.418558
      46A     -0.347278

  @DF-RHF Final Energy:  -905.29983933858671

   => Energetics <=

    Nuclear Repulsion Energy =            798.1294332690259807
    One-Electron Energy =               -2827.0137353204718238
    Two-Electron Energy =                1123.5844627128592492
    Total Energy =                       -905.2998393385867075
  Basis Set: (AUG-CC-PVTZ AUX)
    Blend: AUG-CC-PVTZ-RI
    Molecular point group: c1

    Geometry (in Angstrom), charge = 0, multiplicity = 1:

       Center              X                  Y                   Z               Mass
    ------------   -----------------  -----------------  -----------------  -----------------
         S            0.772168798347    -0.676916595657    -0.280458412008    31.972071174400
         O            0.751270798347    -1.828882595657     0.629610587992    15.994914619570
         O            1.147466798347    -0.804482595657    -1.683312412008    15.994914619570
         N            1.745029798347     0.485436404343     0.394444587992    14.003074004430
         N           -1.840603201653    -0.738516595657     0.491279587992    14.003074004430
         N           -1.318647201653     1.119794404343    -0.639079412008    14.003074004430
         C           -0.872817201653    -0.040854595657    -0.166444412008    12.000000000000
         C            1.469067798347     0.777090404343     1.804582587992    12.000000000000
         C            1.968758798347     1.685634404343    -0.426502412008    12.000000000000
         C           -2.988215201653     0.007620404343     0.429895587992    12.000000000000
         C           -2.639710201653     1.150528404343    -0.267431412008    12.000000000000
         H            1.356793798347    -0.158771595657     2.350997587992     1.007825032230
         H            0.570856798347     1.398197404343     1.928194587992     1.007825032230
         H            2.331794798347     1.315396404343     2.202952587992     1.007825032230
         H            2.179220798347     1.381453404343    -1.450330412008     1.007825032230
         H            2.844429798347     2.195580404343    -0.018415412008     1.007825032230
         H            1.102818798347     2.357328404343    -0.410127412008     1.007825032230
         H           -1.707010901653    -1.555802895657     0.882409887992     1.007825032230
         H           -3.917828201653    -0.325091595657     0.868075587992     1.007825032230
         H           -3.272279201653     1.990410404343    -0.521670412008     1.007825032230

  Basis Set: AUG-CC-PVTZ
    Blend: AUG-CC-PVTZ
  Basis Set: (AUG-CC-PVTZ AUX)
    Blend: AUG-CC-PVTZ-JKFIT
	 Reference Energy          =    -905.2998393385867075 [Eh]
	 Singles Energy            =      -0.0000000000000000 [Eh]
	 Same-Spin Energy          =      -0.5965931635577422 [Eh]
	 Opposite-Spin Energy      =      -1.7738820814091605 [Eh]
	 Correlation Energy        =      -2.3704752449669027 [Eh]
	 Total Energy              =    -907.6703145835535906 [Eh]

	 ================> DF-SCS-MP2 Energies <==================
	-----------------------------------------------------------
	 SCS Same-Spin Scale       =       0.3333333333333333 [-]
	 SCS Opposite-Spin Scale   =       1.2000000000000000 [-]
	 SCS Same-Spin Energy      =      -0.1988643878525807 [Eh]
	 SCS Opposite-Spin Energy  =      -2.1286584976909926 [Eh]
	 SCS Correlation Energy    =      -2.3275228855435732 [Eh]
	 SCS Total Energy          =    -907.6273622241302519 [Eh]
	-----------------------------------------------------------

  Dipole Moment: [D]
     X:    -2.6907      Y:     2.0223      Z:     3.5083     Total:     4.8618

*** Psi4 exiting successfully. Buy a developer a beer!
