                               Psi4 1.3.2 release

  ==> Input File <==

--------------------------------------------------------------------------
#psi4
#
memory 32 gb

molecule  {
0 1
  S        0.7637890    -0.7221230    -0.3122950
  O        0.7428910    -1.8740890     0.5977740
  O        1.1390870    -0.8496890    -1.7151490
  N        1.7366500     0.4402300     0.3626080
  N       -1.8489830    -0.7837230     0.4594430
  N       -1.3270270     1.0745880    -0.6709160
  C       -0.8657565    -0.1035468    -0.1936793
  C        1.4606880     0.7318840     1.7727460
  C        1.9603790     1.6404280    -0.4583390
  C       -2.9965950    -0.0375860     0.3980590
  C       -2.6480900     1.1053220    -0.2992680
  H        1.3484140    -0.2039780     2.3191610
  H        0.5624770     1.3529910     1.8963580
  H        2.3234150     1.2701900     2.1711160
  H        2.1708410     1.3362470    -1.4821670
  H        2.8360500     2.1503740    -0.0502520
  H        1.0944390     2.3121220    -0.4419640
  H       -1.7008040    -1.6902470     0.8932800
  H       -3.9262080    -0.3702980     0.8362390
  H       -3.2806590     1.9452040    -0.5535070
units angstrom
no_reorient  #important for SAPT in psi4, default
symmetry c1  #important for SAPT in psi4, default
}

set PROPERTIES_ORIGIN ["COM"]
properties('MP2/aug-cc-pvtz', properties = ['dipole'])
--------------------------------------------------------------------------

    Molecular point group: c1
  Charge       = 0
  Multiplicity = 1
  Basis Set: AUG-CC-PVTZ
    Blend: AUG-CC-PVTZ
  Basis Set: (AUG-CC-PVTZ AUX)
    Blend: AUG-CC-PVTZ-JKFIT

    Orbital Energies [Eh]
    ---------------------

    Doubly Occupied:

       1A    -92.215931     2A    -20.557791     3A    -20.555895
       4A    -15.657511     5A    -15.611406     6A    -15.588326
       7A    -11.337443     8A    -11.293844     9A    -11.275146
      10A    -11.274377    11A    -11.265946    12A     -9.180593
      13A     -6.865842    14A     -6.865451    15A     -6.864981
      16A     -1.464908    17A     -1.367184    18A     -1.345266
      19A     -1.258066    20A     -1.193886    21A     -1.052411
      22A     -0.981610    23A     -0.960948    24A     -0.879848
      25A     -0.839650    26A     -0.817451    27A     -0.752896
      28A     -0.711020    29A     -0.677527    30A     -0.668346
      31A     -0.642999    32A     -0.631425    33A     -0.624509
      34A     -0.617070    35A     -0.608324    36A     -0.577060
      37A     -0.570935    38A     -0.541830    39A     -0.514194
      40A     -0.507913    41A     -0.483361    42A     -0.479877
      43A     -0.471998    44A     -0.426982    45A     -0.418998
      46A     -0.345572

  @DF-RHF Final Energy:  -905.30327769215751

   => Energetics <=

    Nuclear Repulsion Energy =            797.5949456950758076
    One-Electron Energy =               -2826.1073551711292566
    Two-Electron Energy =                1123.2091317838960549
    Total Energy =                       -905.3032776921575078
  Basis Set: (AUG-CC-PVTZ AUX)
    Blend: AUG-CC-PVTZ-RI
    Molecular point group: c1

    Geometry (in Angstrom), charge = 0, multiplicity = 1:

       Center              X                  Y                   Z               Mass
    ------------   -----------------  -----------------  -----------------  -----------------
         S            0.771026287645    -0.675204056024    -0.281019771768    31.972071174400
         O            0.750128287645    -1.827170056024     0.629049228232    15.994914619570
         O            1.146324287645    -0.802770056024    -1.683873771768    15.994914619570
         N            1.743887287645     0.487148943976     0.393883228232    14.003074004430
         N           -1.841745712355    -0.736804056024     0.490718228232    14.003074004430
         N           -1.319789712355     1.121506943976    -0.639640771768    14.003074004430
         C           -0.858519212355    -0.056627856024    -0.162404071768    12.000000000000
         C            1.467925287645     0.778802943976     1.804021228232    12.000000000000
         C            1.967616287645     1.687346943976    -0.427063771768    12.000000000000
         C           -2.989357712355     0.009332943976     0.429334228232    12.000000000000
         C           -2.640852712355     1.152240943976    -0.267992771768    12.000000000000
         H            1.355651287645    -0.157059056024     2.350436228232     1.007825032230
         H            0.569714287645     1.399909943976     1.927633228232     1.007825032230
         H            2.330652287645     1.317108943976     2.202391228232     1.007825032230
         H            2.178078287645     1.383165943976    -1.450891771768     1.007825032230
         H            2.843287287645     2.197292943976    -0.018976771768     1.007825032230
         H            1.101676287645     2.359040943976    -0.410688771768     1.007825032230
         H           -1.693566712355    -1.643328056024     0.924555228232     1.007825032230
         H           -3.918970712355    -0.323379056024     0.867514228232     1.007825032230
         H           -3.273421712355     1.992122943976    -0.522231771768     1.007825032230

  Basis Set: AUG-CC-PVTZ
    Blend: AUG-CC-PVTZ
  Basis Set: (AUG-CC-PVTZ AUX)
    Blend: AUG-CC-PVTZ-JKFIT
	 Reference Energy          =    -905.3032776921575078 [Eh]
	 Singles Energy            =      -0.0000000000000000 [Eh]
	 Same-Spin Energy          =      -0.5981794342988970 [Eh]
	 Opposite-Spin Energy      =      -1.7765684068752607 [Eh]
	 Correlation Energy        =      -2.3747478411741576 [Eh]
	 Total Energy              =    -907.6780255333317200 [Eh]

	 ================> DF-SCS-MP2 Energies <==================
	-----------------------------------------------------------
	 SCS Same-Spin Scale       =       0.3333333333333333 [-]
	 SCS Opposite-Spin Scale   =       1.2000000000000000 [-]
	 SCS Same-Spin Energy      =      -0.1993931447662990 [Eh]
	 SCS Opposite-Spin Energy  =      -2.1318820882503129 [Eh]
	 SCS Correlation Energy    =      -2.3312752330166120 [Eh]
	 SCS Total Energy          =    -907.6345529251741482 [Eh]
	-----------------------------------------------------------

  Dipole Moment: [D]
     X:    -2.7351      Y:     1.8936      Z:     3.5830     Total:     4.8892

*** Psi4 exiting successfully. Buy a developer a beer!
