                               Psi4 1.3.2 release

  ==> Input File <==

--------------------------------------------------------------------------
#psi4
#
memory 32 gb

molecule  {
0 1
  S        0.7637890    -0.7221230    -0.3122950
  O        0.7428910    -1.8740890     0.5977740
  O        1.1390870    -0.8496890    -1.7151490
  N        1.7366500     0.4402300     0.3626080
  N       -1.8051485    -0.7141961     0.4105396
  N       -1.3270270     1.0745880    -0.6709160
  C       -0.8811970    -0.0860610    -0.1982810
  C        1.4606880     0.7318840     1.7727460
  C        1.9603790     1.6404280    -0.4583390
  C       -2.9965950    -0.0375860     0.3980590
  C       -2.6480900     1.1053220    -0.2992680
  H        1.3484140    -0.2039780     2.3191610
  H        0.5624770     1.3529910     1.8963580
  H        2.3234150     1.2701900     2.1711160
  H        2.1708410     1.3362470    -1.4821670
  H        2.8360500     2.1503740    -0.0502520
  H        1.0944390     2.3121220    -0.4419640
  H       -1.7008040    -1.6902470     0.8932800
  H       -3.9262080    -0.3702980     0.8362390
  H       -3.2806590     1.9452040    -0.5535070
units angstrom
no_reorient  #important for SAPT in psi4, default
symmetry c1  #important for SAPT in psi4, default
}

set PROPERTIES_ORIGIN ["COM"]
properties('MP2/aug-cc-pvtz', properties = ['dipole'])
--------------------------------------------------------------------------

    Molecular point group: c1
  Charge       = 0
  Multiplicity = 1
  Basis Set: AUG-CC-PVTZ
    Blend: AUG-CC-PVTZ
  Basis Set: (AUG-CC-PVTZ AUX)
    Blend: AUG-CC-PVTZ-JKFIT

    Orbital Energies [Eh]
    ---------------------

    Doubly Occupied:

       1A    -92.216837     2A    -20.559861     3A    -20.557003
       4A    -15.659615     5A    -15.612079     6A    -15.573596
       7A    -11.328833     8A    -11.285838     9A    -11.275877
      10A    -11.272497    11A    -11.265807    12A     -9.181454
      13A     -6.866670    14A     -6.866267    15A     -6.865837
      16A     -1.466341    17A     -1.392336    18A     -1.346708
      19A     -1.258632    20A     -1.189088    21A     -1.059667
      22A     -0.982012    23A     -0.960928    24A     -0.871194
      25A     -0.838266    26A     -0.821650    27A     -0.753837
      28A     -0.712154    29A     -0.681558    30A     -0.669582
      31A     -0.649515    32A     -0.635444    33A     -0.623587
      34A     -0.613559    35A     -0.603490    36A     -0.577775
      37A     -0.571172    38A     -0.542210    39A     -0.515034
      40A     -0.508619    41A     -0.483944    42A     -0.481034
      43A     -0.465697    44A     -0.421895    45A     -0.418553
      46A     -0.349424

  @DF-RHF Final Energy:  -905.29234396882100

   => Energetics <=

    Nuclear Repulsion Energy =            800.1187819636508038
    One-Electron Energy =               -2831.1162983133235684
    Two-Electron Energy =                1125.7051723808517636
    Total Energy =                       -905.2923439688211147
  Basis Set: (AUG-CC-PVTZ AUX)
    Blend: AUG-CC-PVTZ-RI
    Molecular point group: c1

    Geometry (in Angstrom), charge = 0, multiplicity = 1:

       Center              X                  Y                   Z               Mass
    ------------   -----------------  -----------------  -----------------  -----------------
         S            0.768578116037    -0.681964850484    -0.276792099316    31.972071174400
         O            0.747680116037    -1.833930850484     0.633276900684    15.994914619570
         O            1.143876116037    -0.809530850484    -1.679646099316    15.994914619570
         N            1.741439116037     0.480388149516     0.398110900684    14.003074004430
         N           -1.800359383963    -0.674037950484     0.446042500684    14.003074004430
         N           -1.322237883963     1.114746149516    -0.635413099316    14.003074004430
         C           -0.876407883963    -0.045902850484    -0.162778099316    12.000000000000
         C            1.465477116037     0.772042149516     1.808248900684    12.000000000000
         C            1.965168116037     1.680586149516    -0.422836099316    12.000000000000
         C           -2.991805883963     0.002572149516     0.433561900684    12.000000000000
         C           -2.643300883963     1.145480149516    -0.263765099316    12.000000000000
         H            1.353203116037    -0.163819850484     2.354663900684     1.007825032230
         H            0.567266116037     1.393149149516     1.931860900684     1.007825032230
         H            2.328204116037     1.310348149516     2.206618900684     1.007825032230
         H            2.175630116037     1.376405149516    -1.446664099316     1.007825032230
         H            2.840839116037     2.190532149516    -0.014749099316     1.007825032230
         H            1.099228116037     2.352280149516    -0.406461099316     1.007825032230
         H           -1.696014883963    -1.650088850484     0.928782900684     1.007825032230
         H           -3.921418883963    -0.330139850484     0.871741900684     1.007825032230
         H           -3.275869883963     1.985362149516    -0.518004099316     1.007825032230

  Basis Set: AUG-CC-PVTZ
    Blend: AUG-CC-PVTZ
  Basis Set: (AUG-CC-PVTZ AUX)
    Blend: AUG-CC-PVTZ-JKFIT
	 Reference Energy          =    -905.2923439688210010 [Eh]
	 Singles Energy            =      -0.0000000000000000 [Eh]
	 Same-Spin Energy          =      -0.5979370922338459 [Eh]
	 Opposite-Spin Energy      =      -1.7751045463304462 [Eh]
	 Correlation Energy        =      -2.3730416385642923 [Eh]
	 Total Energy              =    -907.6653856073852467 [Eh]

	 ================> DF-SCS-MP2 Energies <==================
	-----------------------------------------------------------
	 SCS Same-Spin Scale       =       0.3333333333333333 [-]
	 SCS Opposite-Spin Scale   =       1.2000000000000000 [-]
	 SCS Same-Spin Energy      =      -0.1993123640779486 [Eh]
	 SCS Opposite-Spin Energy  =      -2.1301254555965352 [Eh]
	 SCS Correlation Energy    =      -2.3294378196744838 [Eh]
	 SCS Total Energy          =    -907.6217817884954684 [Eh]
	-----------------------------------------------------------

  Dipole Moment: [D]
     X:    -2.6510      Y:     1.7023      Z:     3.6668     Total:     4.8344

*** Psi4 exiting successfully. Buy a developer a beer!
