                               Psi4 1.3.2 release

  ==> Input File <==

--------------------------------------------------------------------------
#psi4
#
memory 32 gb

molecule  {
0 1
  S        0.7366486    -0.7275058    -0.2614172
  O        0.7428910    -1.8740890     0.5977740
  O        1.1390870    -0.8496890    -1.7151490
  N        1.7366500     0.4402300     0.3626080
  N       -1.8489830    -0.7837230     0.4594430
  N       -1.3270270     1.0745880    -0.6709160
  C       -0.8811970    -0.0860610    -0.1982810
  C        1.4606880     0.7318840     1.7727460
  C        1.9603790     1.6404280    -0.4583390
  C       -2.9965950    -0.0375860     0.3980590
  C       -2.6480900     1.1053220    -0.2992680
  H        1.3484140    -0.2039780     2.3191610
  H        0.5624770     1.3529910     1.8963580
  H        2.3234150     1.2701900     2.1711160
  H        2.1708410     1.3362470    -1.4821670
  H        2.8360500     2.1503740    -0.0502520
  H        1.0944390     2.3121220    -0.4419640
  H       -1.7008040    -1.6902470     0.8932800
  H       -3.9262080    -0.3702980     0.8362390
  H       -3.2806590     1.9452040    -0.5535070
units angstrom
no_reorient  #important for SAPT in psi4, default
symmetry c1  #important for SAPT in psi4, default
}

set PROPERTIES_ORIGIN ["COM"]
properties('MP2/aug-cc-pvtz', properties = ['dipole'])
--------------------------------------------------------------------------

    Molecular point group: c1
  Charge       = 0
  Multiplicity = 1
  Basis Set: AUG-CC-PVTZ
    Blend: AUG-CC-PVTZ
  Basis Set: (AUG-CC-PVTZ AUX)
    Blend: AUG-CC-PVTZ-JKFIT

    Orbital Energies [Eh]
    ---------------------

    Doubly Occupied:

       1A    -92.213770     2A    -20.566674     3A    -20.541784
       4A    -15.658724     5A    -15.611395     6A    -15.590481
       7A    -11.339614     8A    -11.296402     9A    -11.276662
      10A    -11.275632    11A    -11.265254    12A     -9.179069
      13A     -6.864228    14A     -6.863994    15A     -6.863167
      16A     -1.467702    17A     -1.373298    18A     -1.329951
      19A     -1.256011    20A     -1.202104    21A     -1.056801
      22A     -0.981611    23A     -0.961527    24A     -0.882058
      25A     -0.844991    26A     -0.821061    27A     -0.753630
      28A     -0.710429    29A     -0.677948    30A     -0.667471
      31A     -0.643523    32A     -0.635236    33A     -0.628335
      34A     -0.619548    35A     -0.606580    36A     -0.577417
      37A     -0.571227    38A     -0.542357    39A     -0.510888
      40A     -0.509750    41A     -0.483094    42A     -0.469856
      43A     -0.467319    44A     -0.431767    45A     -0.419050
      46A     -0.348877

  @DF-RHF Final Energy:  -905.29866535857252

   => Energetics <=

    Nuclear Repulsion Energy =            798.0920661492557429
    One-Electron Energy =               -2827.0649275354999190
    Two-Electron Energy =                1123.6741960276715417
    Total Energy =                       -905.2986653585726344
  Basis Set: (AUG-CC-PVTZ AUX)
    Blend: AUG-CC-PVTZ-RI
    Molecular point group: c1

    Geometry (in Angstrom), charge = 0, multiplicity = 1:

       Center              X                  Y                   Z               Mass
    ------------   -----------------  -----------------  -----------------  -----------------
         S            0.749901721110    -0.680802406765    -0.239119544598    31.972071174400
         O            0.756144121110    -1.827385606765     0.620071655402    15.994914619570
         O            1.152340121110    -0.802985606765    -1.692851344598    15.994914619570
         N            1.749903121110     0.486933393235     0.384905655402    14.003074004430
         N           -1.835729878890    -0.737019606765     0.481740655402    14.003074004430
         N           -1.313773878890     1.121291393235    -0.648618344598    14.003074004430
         C           -0.867943878890    -0.039357606765    -0.175983344598    12.000000000000
         C            1.473941121110     0.778587393235     1.795043655402    12.000000000000
         C            1.973632121110     1.687131393235    -0.436041344598    12.000000000000
         C           -2.983341878890     0.009117393235     0.420356655402    12.000000000000
         C           -2.634836878890     1.152025393235    -0.276970344598    12.000000000000
         H            1.361667121110    -0.157274606765     2.341458655402     1.007825032230
         H            0.575730121110     1.399694393235     1.918655655402     1.007825032230
         H            2.336668121110     1.316893393235     2.193413655402     1.007825032230
         H            2.184094121110     1.382950393235    -1.459869344598     1.007825032230
         H            2.849303121110     2.197077393235    -0.027954344598     1.007825032230
         H            1.107692121110     2.358825393235    -0.419666344598     1.007825032230
         H           -1.687550878890    -1.643543606765     0.915577655402     1.007825032230
         H           -3.912954878890    -0.323594606765     0.858536655402     1.007825032230
         H           -3.267405878890     1.991907393235    -0.531209344598     1.007825032230

  Basis Set: AUG-CC-PVTZ
    Blend: AUG-CC-PVTZ
  Basis Set: (AUG-CC-PVTZ AUX)
    Blend: AUG-CC-PVTZ-JKFIT
	 Reference Energy          =    -905.2986653585725207 [Eh]
	 Singles Energy            =      -0.0000000000000000 [Eh]
	 Same-Spin Energy          =      -0.5980082625696287 [Eh]
	 Opposite-Spin Energy      =      -1.7762797947813402 [Eh]
	 Correlation Energy        =      -2.3742880573509688 [Eh]
	 Total Energy              =    -907.6729534159235300 [Eh]

	 ================> DF-SCS-MP2 Energies <==================
	-----------------------------------------------------------
	 SCS Same-Spin Scale       =       0.3333333333333333 [-]
	 SCS Opposite-Spin Scale   =       1.2000000000000000 [-]
	 SCS Same-Spin Energy      =      -0.1993360875232096 [Eh]
	 SCS Opposite-Spin Energy  =      -2.1315357537376083 [Eh]
	 SCS Correlation Energy    =      -2.3308718412608180 [Eh]
	 SCS Total Energy          =    -907.6295371998332939 [Eh]
	-----------------------------------------------------------

  Dipole Moment: [D]
     X:    -2.9947      Y:     1.8787      Z:     4.0150     Total:     5.3496

*** Psi4 exiting successfully. Buy a developer a beer!
