                               Psi4 1.3.2 release

  ==> Input File <==

--------------------------------------------------------------------------
#psi4
#
memory 32 gb

molecule  {
0 1
  S        0.7637890    -0.7221230    -0.3122950
  O        0.7428910    -1.8740890     0.5977740
  O        1.1390870    -0.8496890    -1.7151490
  N        1.7366500     0.4402300     0.3626080
  N       -1.8489830    -0.7837230     0.4594430
  N       -1.3270270     1.0745880    -0.6709160
  C       -0.8811970    -0.0860610    -0.1982810
  C        1.4606880     0.7318840     1.7727460
  C        1.9603790     1.6404280    -0.4583390
  C       -3.0803489     0.0168678     0.3935791
  C       -2.6480900     1.1053220    -0.2992680
  H        1.3484140    -0.2039780     2.3191610
  H        0.5624770     1.3529910     1.8963580
  H        2.3234150     1.2701900     2.1711160
  H        2.1708410     1.3362470    -1.4821670
  H        2.8360500     2.1503740    -0.0502520
  H        1.0944390     2.3121220    -0.4419640
  H       -1.7008040    -1.6902470     0.8932800
  H       -3.9262080    -0.3702980     0.8362390
  H       -3.2806590     1.9452040    -0.5535070
units angstrom
no_reorient  #important for SAPT in psi4, default
symmetry c1  #important for SAPT in psi4, default
}

set PROPERTIES_ORIGIN ["COM"]
properties('MP2/aug-cc-pvtz', properties = ['dipole'])
--------------------------------------------------------------------------

    Molecular point group: c1
  Charge       = 0
  Multiplicity = 1
  Basis Set: AUG-CC-PVTZ
    Blend: AUG-CC-PVTZ
  Basis Set: (AUG-CC-PVTZ AUX)
    Blend: AUG-CC-PVTZ-JKFIT

    Orbital Energies [Eh]
    ---------------------

    Doubly Occupied:

       1A    -92.217841     2A    -20.559669     3A    -20.558223
       4A    -15.647715     5A    -15.613320     6A    -15.583606
       7A    -11.345266     8A    -11.292735     9A    -11.277674
      10A    -11.276240    11A    -11.267198    12A     -9.182460
      13A     -6.867695    14A     -6.867253    15A     -6.866822
      16A     -1.465886    17A     -1.353490    18A     -1.345966
      19A     -1.259565    20A     -1.185522    21A     -1.053254
      22A     -0.982870    23A     -0.964188    24A     -0.880895
      25A     -0.835016    26A     -0.811324    27A     -0.752334
      28A     -0.711009    29A     -0.673437    30A     -0.669875
      31A     -0.650929    32A     -0.638617    33A     -0.620272
      34A     -0.610660    35A     -0.596408    36A     -0.577623
      37A     -0.571909    38A     -0.543042    39A     -0.515530
      40A     -0.508298    41A     -0.487639    42A     -0.481248
      43A     -0.472428    44A     -0.421345    45A     -0.419449
      46A     -0.355741

  @DF-RHF Final Energy:  -905.29473183694643

   => Energetics <=

    Nuclear Repulsion Energy =            795.5146291451026173
    One-Electron Energy =               -2821.9397541729144905
    Two-Electron Energy =                1121.1303931908653340
    Total Energy =                       -905.2947318369465393
  Basis Set: (AUG-CC-PVTZ AUX)
    Blend: AUG-CC-PVTZ-RI
    Molecular point group: c1

    Geometry (in Angstrom), charge = 0, multiplicity = 1:

       Center              X                  Y                   Z               Mass
    ------------   -----------------  -----------------  -----------------  -----------------
         S            0.777826574866    -0.680135886274    -0.280397181295    31.972071174400
         O            0.756928574866    -1.832101886274     0.629671818705    15.994914619570
         O            1.153124574866    -0.807701886274    -1.683251181295    15.994914619570
         N            1.750687574866     0.482217113726     0.394505818705    14.003074004430
         N           -1.834945425134    -0.741735886274     0.491340818705    14.003074004430
         N           -1.312989425134     1.116575113726    -0.639018181295    14.003074004430
         C           -0.867159425134    -0.044073886274    -0.166383181295    12.000000000000
         C            1.474725574866     0.773871113726     1.804643818705    12.000000000000
         C            1.974416574866     1.682415113726    -0.426441181295    12.000000000000
         C           -3.066311325134     0.058854913726     0.425476918705    12.000000000000
         C           -2.634052425134     1.147309113726    -0.267370181295    12.000000000000
         H            1.362451574866    -0.161990886274     2.351058818705     1.007825032230
         H            0.576514574866     1.394978113726     1.928255818705     1.007825032230
         H            2.337452574866     1.312177113726     2.203013818705     1.007825032230
         H            2.184878574866     1.378234113726    -1.450269181295     1.007825032230
         H            2.850087574866     2.192361113726    -0.018354181295     1.007825032230
         H            1.108476574866     2.354109113726    -0.410066181295     1.007825032230
         H           -1.686766425134    -1.648259886274     0.925177818705     1.007825032230
         H           -3.912170425134    -0.328310886274     0.868136818705     1.007825032230
         H           -3.266621425134     1.987191113726    -0.521609181295     1.007825032230

  Basis Set: AUG-CC-PVTZ
    Blend: AUG-CC-PVTZ
  Basis Set: (AUG-CC-PVTZ AUX)
    Blend: AUG-CC-PVTZ-JKFIT
	 Reference Energy          =    -905.2947318369464256 [Eh]
	 Singles Energy            =      -0.0000000000000000 [Eh]
	 Same-Spin Energy          =      -0.5968371355720289 [Eh]
	 Opposite-Spin Energy      =      -1.7763765749546296 [Eh]
	 Correlation Energy        =      -2.3732137105266586 [Eh]
	 Total Energy              =    -907.6679455474730958 [Eh]

	 ================> DF-SCS-MP2 Energies <==================
	-----------------------------------------------------------
	 SCS Same-Spin Scale       =       0.3333333333333333 [-]
	 SCS Opposite-Spin Scale   =       1.2000000000000000 [-]
	 SCS Same-Spin Energy      =      -0.1989457118573429 [Eh]
	 SCS Opposite-Spin Energy  =      -2.1316518899455557 [Eh]
	 SCS Correlation Energy    =      -2.3305976018028987 [Eh]
	 SCS Total Energy          =    -907.6253294387493042 [Eh]
	-----------------------------------------------------------

  Dipole Moment: [D]
     X:    -2.6424      Y:     1.9706      Z:     3.5356     Total:     4.8338

*** Psi4 exiting successfully. Buy a developer a beer!
