                               Psi4 1.3.2 release

  ==> Input File <==

--------------------------------------------------------------------------
#psi4
#
memory 32 gb

molecule  {
0 1
  S        0.7637890    -0.7221230    -0.3122950
  O        0.7428910    -1.8740890     0.5977740
  O        1.1390870    -0.8496890    -1.7151490
  N        1.7366500     0.4402300     0.3626080
  N       -1.8489830    -0.7837230     0.4594430
  N       -1.3270270     1.0745880    -0.6709160
  C       -0.8969769    -0.0688676    -0.2028326
  C        1.4606880     0.7318840     1.7727460
  C        1.9603790     1.6404280    -0.4583390
  C       -2.9965950    -0.0375860     0.3980590
  C       -2.6480900     1.1053220    -0.2992680
  H        1.3484140    -0.2039780     2.3191610
  H        0.5624770     1.3529910     1.8963580
  H        2.3234150     1.2701900     2.1711160
  H        2.1708410     1.3362470    -1.4821670
  H        2.8360500     2.1503740    -0.0502520
  H        1.0944390     2.3121220    -0.4419640
  H       -1.7008040    -1.6902470     0.8932800
  H       -3.9262080    -0.3702980     0.8362390
  H       -3.2806590     1.9452040    -0.5535070
units angstrom
no_reorient  #important for SAPT in psi4, default
symmetry c1  #important for SAPT in psi4, default
}

set PROPERTIES_ORIGIN ["COM"]
properties('MP2/aug-cc-pvtz', properties = ['dipole'])
--------------------------------------------------------------------------

    Molecular point group: c1
  Charge       = 0
  Multiplicity = 1
  Basis Set: AUG-CC-PVTZ
    Blend: AUG-CC-PVTZ
  Basis Set: (AUG-CC-PVTZ AUX)
    Blend: AUG-CC-PVTZ-JKFIT

    Orbital Energies [Eh]
    ---------------------

    Doubly Occupied:

       1A    -92.215462     2A    -20.559088     3A    -20.555767
       4A    -15.652897     5A    -15.611135     6A    -15.585054
       7A    -11.337521     8A    -11.292582     9A    -11.275376
      10A    -11.272838    11A    -11.266243    12A     -9.179875
      13A     -6.865068    14A     -6.864635    15A     -6.864271
      16A     -1.463707    17A     -1.373296    18A     -1.345427
      19A     -1.257894    20A     -1.203815    21A     -1.047701
      22A     -0.981783    23A     -0.959024    24A     -0.874458
      25A     -0.841544    26A     -0.819401    27A     -0.752878
      28A     -0.710370    29A     -0.676307    30A     -0.667930
      31A     -0.642645    32A     -0.633733    33A     -0.625815
      34A     -0.616851    35A     -0.609285    36A     -0.577331
      37A     -0.571268    38A     -0.542027    39A     -0.513844
      40A     -0.507828    41A     -0.488162    42A     -0.480012
      43A     -0.470172    44A     -0.431966    45A     -0.416962
      46A     -0.346580

  @DF-RHF Final Energy:  -905.30703809432373

   => Energetics <=

    Nuclear Repulsion Energy =            797.3622128236465869
    One-Electron Energy =               -2825.6428439576911842
    Two-Electron Energy =                1122.9735930397207539
    Total Energy =                       -905.3070380943238433
  Basis Set: (AUG-CC-PVTZ AUX)
    Blend: AUG-CC-PVTZ-RI
    Molecular point group: c1

    Geometry (in Angstrom), charge = 0, multiplicity = 1:

       Center              X                  Y                   Z               Mass
    ------------   -----------------  -----------------  -----------------  -----------------
         S            0.773166606929    -0.677581493869    -0.280392265891    31.972071174400
         O            0.752268606929    -1.829547493869     0.629676734109    15.994914619570
         O            1.148464606929    -0.805147493869    -1.683246265891    15.994914619570
         N            1.746027606929     0.484771506131     0.394510734109    14.003074004430
         N           -1.839605393071    -0.739181493869     0.491345734109    14.003074004430
         N           -1.317649393071     1.119129506131    -0.639013265891    14.003074004430
         C           -0.887599293071    -0.024326093869    -0.170929865891    12.000000000000
         C            1.470065606929     0.776425506131     1.804648734109    12.000000000000
         C            1.969756606929     1.684969506131    -0.426436265891    12.000000000000
         C           -2.987217393071     0.006955506131     0.429961734109    12.000000000000
         C           -2.638712393071     1.149863506131    -0.267365265891    12.000000000000
         H            1.357791606929    -0.159436493869     2.351063734109     1.007825032230
         H            0.571854606929     1.397532506131     1.928260734109     1.007825032230
         H            2.332792606929     1.314731506131     2.203018734109     1.007825032230
         H            2.180218606929     1.380788506131    -1.450264265891     1.007825032230
         H            2.845427606929     2.194915506131    -0.018349265891     1.007825032230
         H            1.103816606929     2.356663506131    -0.410061265891     1.007825032230
         H           -1.691426393071    -1.645705493869     0.925182734109     1.007825032230
         H           -3.916830393071    -0.325756493869     0.868141734109     1.007825032230
         H           -3.271281393071     1.989745506131    -0.521604265891     1.007825032230

  Basis Set: AUG-CC-PVTZ
    Blend: AUG-CC-PVTZ
  Basis Set: (AUG-CC-PVTZ AUX)
    Blend: AUG-CC-PVTZ-JKFIT
	 Reference Energy          =    -905.3070380943237296 [Eh]
	 Singles Energy            =      -0.0000000000000000 [Eh]
	 Same-Spin Energy          =      -0.5968250283265641 [Eh]
	 Opposite-Spin Energy      =      -1.7744559834667499 [Eh]
	 Correlation Energy        =      -2.3712810117933141 [Eh]
	 Total Energy              =    -907.6783191061169873 [Eh]

	 ================> DF-SCS-MP2 Energies <==================
	-----------------------------------------------------------
	 SCS Same-Spin Scale       =       0.3333333333333333 [-]
	 SCS Opposite-Spin Scale   =       1.2000000000000000 [-]
	 SCS Same-Spin Energy      =      -0.1989416761088547 [Eh]
	 SCS Opposite-Spin Energy  =      -2.1293471801600998 [Eh]
	 SCS Correlation Energy    =      -2.3282888562689545 [Eh]
	 SCS Total Energy          =    -907.6353269505926846 [Eh]
	-----------------------------------------------------------

  Dipole Moment: [D]
     X:    -2.6339      Y:     1.8913      Z:     3.5555     Total:     4.8121

*** Psi4 exiting successfully. Buy a developer a beer!
