                               Psi4 1.3.2 release

  ==> Input File <==

--------------------------------------------------------------------------
#psi4
#
memory 32 gb

molecule  {
0 1
  S        0.7637890    -0.7221230    -0.3122950
  O        0.7428910    -1.8740890     0.5977740
  O        1.1390870    -0.8496890    -1.7151490
  N        1.8272474     0.3716715     0.3401519
  N       -1.8489830    -0.7837230     0.4594430
  N       -1.3270270     1.0745880    -0.6709160
  C       -0.8811970    -0.0860610    -0.1982810
  C        1.4606880     0.7318840     1.7727460
  C        1.9603790     1.6404280    -0.4583390
  C       -2.9965950    -0.0375860     0.3980590
  C       -2.6480900     1.1053220    -0.2992680
  H        1.3484140    -0.2039780     2.3191610
  H        0.5624770     1.3529910     1.8963580
  H        2.3234150     1.2701900     2.1711160
  H        2.1708410     1.3362470    -1.4821670
  H        2.8360500     2.1503740    -0.0502520
  H        1.0944390     2.3121220    -0.4419640
  H       -1.7008040    -1.6902470     0.8932800
  H       -3.9262080    -0.3702980     0.8362390
  H       -3.2806590     1.9452040    -0.5535070
units angstrom
no_reorient  #important for SAPT in psi4, default
symmetry c1  #important for SAPT in psi4, default
}

set PROPERTIES_ORIGIN ["COM"]
properties('MP2/aug-cc-pvtz', properties = ['dipole'])
--------------------------------------------------------------------------

    Molecular point group: c1
  Charge       = 0
  Multiplicity = 1
  Basis Set: AUG-CC-PVTZ
    Blend: AUG-CC-PVTZ
  Basis Set: (AUG-CC-PVTZ AUX)
    Blend: AUG-CC-PVTZ-JKFIT

    Orbital Energies [Eh]
    ---------------------

    Doubly Occupied:

       1A    -92.212132     2A    -20.554672     3A    -20.551007
       4A    -15.657390     5A    -15.619199     6A    -15.589208
       7A    -11.340543     8A    -11.295589     9A    -11.278877
      10A    -11.275380    11A    -11.267932    12A     -9.177291
      13A     -6.862393    14A     -6.862139    15A     -6.861546
      16A     -1.461884    17A     -1.371973    18A     -1.342264
      19A     -1.244532    20A     -1.200722    21A     -1.051034
      22A     -0.973236    23A     -0.956869    24A     -0.882797
      25A     -0.842568    26A     -0.820876    27A     -0.750418
      28A     -0.705313    29A     -0.673789    30A     -0.664271
      31A     -0.639087    32A     -0.633870    33A     -0.624545
      34A     -0.617184    35A     -0.607205    36A     -0.577647
      37A     -0.571841    38A     -0.526664    39A     -0.509831
      40A     -0.504282    41A     -0.484777    42A     -0.476352
      43A     -0.473231    44A     -0.432609    45A     -0.430105
      46A     -0.348793

  @DF-RHF Final Energy:  -905.29841652406856

   => Energetics <=

    Nuclear Repulsion Energy =            795.8972710822860108
    One-Electron Energy =               -2822.7796383732088543
    Two-Electron Energy =                1121.5839507668545139
    Total Energy =                       -905.2984165240684433
  Basis Set: (AUG-CC-PVTZ AUX)
    Blend: AUG-CC-PVTZ-RI
    Molecular point group: c1

    Geometry (in Angstrom), charge = 0, multiplicity = 1:

       Center              X                  Y                   Z               Mass
    ------------   -----------------  -----------------  -----------------  -----------------
         S            0.764837150775    -0.670918215554    -0.278907845571    31.972071174400
         O            0.743939150775    -1.822884215554     0.631161154429    15.994914619570
         O            1.140135150775    -0.798484215554    -1.681761845571    15.994914619570
         N            1.828295550775     0.422876284446     0.373539054429    14.003074004430
         N           -1.847934849225    -0.732518215554     0.492830154429    14.003074004430
         N           -1.325978849225     1.125792784446    -0.637528845571    14.003074004430
         C           -0.880148849225    -0.034856215554    -0.164893845571    12.000000000000
         C            1.461736150775     0.783088784446     1.806133154429    12.000000000000
         C            1.961427150775     1.691632784446    -0.424951845571    12.000000000000
         C           -2.995546849225     0.013618784446     0.431446154429    12.000000000000
         C           -2.647041849225     1.156526784446    -0.265880845571    12.000000000000
         H            1.349462150775    -0.152773215554     2.352548154429     1.007825032230
         H            0.563525150775     1.404195784446     1.929745154429     1.007825032230
         H            2.324463150775     1.321394784446     2.204503154429     1.007825032230
         H            2.171889150775     1.387451784446    -1.448779845571     1.007825032230
         H            2.837098150775     2.201578784446    -0.016864845571     1.007825032230
         H            1.095487150775     2.363326784446    -0.408576845571     1.007825032230
         H           -1.699755849225    -1.639042215554     0.926667154429     1.007825032230
         H           -3.925159849225    -0.319093215554     0.869626154429     1.007825032230
         H           -3.279610849225     1.996408784446    -0.520119845571     1.007825032230

  Basis Set: AUG-CC-PVTZ
    Blend: AUG-CC-PVTZ
  Basis Set: (AUG-CC-PVTZ AUX)
    Blend: AUG-CC-PVTZ-JKFIT
	 Reference Energy          =    -905.2984165240685570 [Eh]
	 Singles Energy            =      -0.0000000000000000 [Eh]
	 Same-Spin Energy          =      -0.5976300593422771 [Eh]
	 Opposite-Spin Energy      =      -1.7770079295242900 [Eh]
	 Correlation Energy        =      -2.3746379888665672 [Eh]
	 Total Energy              =    -907.6730545129350958 [Eh]

	 ================> DF-SCS-MP2 Energies <==================
	-----------------------------------------------------------
	 SCS Same-Spin Scale       =       0.3333333333333333 [-]
	 SCS Opposite-Spin Scale   =       1.2000000000000000 [-]
	 SCS Same-Spin Energy      =      -0.1992100197807590 [Eh]
	 SCS Opposite-Spin Energy  =      -2.1324095154291478 [Eh]
	 SCS Correlation Energy    =      -2.3316195352099069 [Eh]
	 SCS Total Energy          =    -907.6300360592784955 [Eh]
	-----------------------------------------------------------

  Dipole Moment: [D]
     X:    -2.9669      Y:     2.1009      Z:     3.6556     Total:     5.1555

*** Psi4 exiting successfully. Buy a developer a beer!
