                               Psi4 1.3.2 release

  ==> Input File <==

--------------------------------------------------------------------------
#psi4
#
memory 32 gb

molecule  {
0 1
  S        0.7257845    -0.8200438    -0.2476049
  O        0.7428910    -1.8740890     0.5977740
  O        1.1390870    -0.8496890    -1.7151490
  N        1.7366500     0.4402300     0.3626080
  N       -1.8489830    -0.7837230     0.4594430
  N       -1.3270270     1.0745880    -0.6709160
  C       -0.8811970    -0.0860610    -0.1982810
  C        1.4606880     0.7318840     1.7727460
  C        1.9603790     1.6404280    -0.4583390
  C       -2.9965950    -0.0375860     0.3980590
  C       -2.6480900     1.1053220    -0.2992680
  H        1.3484140    -0.2039780     2.3191610
  H        0.5624770     1.3529910     1.8963580
  H        2.3234150     1.2701900     2.1711160
  H        2.1708410     1.3362470    -1.4821670
  H        2.8360500     2.1503740    -0.0502520
  H        1.0944390     2.3121220    -0.4419640
  H       -1.7008040    -1.6902470     0.8932800
  H       -3.9262080    -0.3702980     0.8362390
  H       -3.2806590     1.9452040    -0.5535070
units angstrom
no_reorient  #important for SAPT in psi4, default
symmetry c1  #important for SAPT in psi4, default
}

set PROPERTIES_ORIGIN ["COM"]
properties('MP2/aug-cc-pvtz', properties = ['dipole'])
--------------------------------------------------------------------------

    Molecular point group: c1
  Charge       = 0
  Multiplicity = 1
  Basis Set: AUG-CC-PVTZ
    Blend: AUG-CC-PVTZ
  Basis Set: (AUG-CC-PVTZ AUX)
    Blend: AUG-CC-PVTZ-JKFIT

    Orbital Energies [Eh]
    ---------------------

    Doubly Occupied:

       1A    -92.212944     2A    -20.588657     3A    -20.542244
       4A    -15.657591     5A    -15.599496     6A    -15.588079
       7A    -11.339814     8A    -11.294049     9A    -11.275686
      10A    -11.268405    11A    -11.256936    12A     -9.179926
      13A     -6.865496    14A     -6.864695    15A     -6.863698
      16A     -1.520366    17A     -1.374072    18A     -1.335962
      19A     -1.234627    20A     -1.200662    21A     -1.052708
      22A     -0.972202    23A     -0.947754    24A     -0.872873
      25A     -0.845643    26A     -0.817818    27A     -0.758796
      28A     -0.719541    29A     -0.679189    30A     -0.675760
      31A     -0.644370    32A     -0.633331    33A     -0.625739
      34A     -0.619911    35A     -0.611241    36A     -0.586850
      37A     -0.563563    38A     -0.537991    39A     -0.530732
      40A     -0.513820    41A     -0.479602    42A     -0.474813
      43A     -0.459670    44A     -0.430543    45A     -0.402907
      46A     -0.346323

  @DF-RHF Final Energy:  -905.27953482225303

   => Energetics <=

    Nuclear Repulsion Energy =            797.1204269507966274
    One-Electron Energy =               -2825.0657343823936571
    Two-Electron Energy =                1122.6657726093440033
    Total Energy =                       -905.2795348222530265
  Basis Set: (AUG-CC-PVTZ AUX)
    Blend: AUG-CC-PVTZ-RI
    Molecular point group: c1

    Geometry (in Angstrom), charge = 0, multiplicity = 1:

       Center              X                  Y                   Z               Mass
    ------------   -----------------  -----------------  -----------------  -----------------
         S            0.741021994438    -0.756437953828    -0.227830118992    31.972071174400
         O            0.758128494438    -1.810483153828     0.617548781008    15.994914619570
         O            1.154324494438    -0.786083153828    -1.695374218992    15.994914619570
         N            1.751887494438     0.503835846172     0.382382781008    14.003074004430
         N           -1.833745505562    -0.720117153828     0.479217781008    14.003074004430
         N           -1.311789505562     1.138193846172    -0.651141218992    14.003074004430
         C           -0.865959505562    -0.022455153828    -0.178506218992    12.000000000000
         C            1.475925494438     0.795489846172     1.792520781008    12.000000000000
         C            1.975616494438     1.704033846172    -0.438564218992    12.000000000000
         C           -2.981357505562     0.026019846172     0.417833781008    12.000000000000
         C           -2.632852505562     1.168927846172    -0.279493218992    12.000000000000
         H            1.363651494438    -0.140372153828     2.338935781008     1.007825032230
         H            0.577714494438     1.416596846172     1.916132781008     1.007825032230
         H            2.338652494438     1.333795846172     2.190890781008     1.007825032230
         H            2.186078494438     1.399852846172    -1.462392218992     1.007825032230
         H            2.851287494438     2.213979846172    -0.030477218992     1.007825032230
         H            1.109676494438     2.375727846172    -0.422189218992     1.007825032230
         H           -1.685566505562    -1.626641153828     0.913054781008     1.007825032230
         H           -3.910970505562    -0.306692153828     0.856013781008     1.007825032230
         H           -3.265421505562     2.008809846172    -0.533732218992     1.007825032230

  Basis Set: AUG-CC-PVTZ
    Blend: AUG-CC-PVTZ
  Basis Set: (AUG-CC-PVTZ AUX)
    Blend: AUG-CC-PVTZ-JKFIT
	 Reference Energy          =    -905.2795348222530265 [Eh]
	 Singles Energy            =      -0.0000000000000000 [Eh]
	 Same-Spin Energy          =      -0.5967561587046945 [Eh]
	 Opposite-Spin Energy      =      -1.7748522145415337 [Eh]
	 Correlation Energy        =      -2.3716083732462283 [Eh]
	 Total Energy              =    -907.6511431954992304 [Eh]

	 ================> DF-SCS-MP2 Energies <==================
	-----------------------------------------------------------
	 SCS Same-Spin Scale       =       0.3333333333333333 [-]
	 SCS Opposite-Spin Scale   =       1.2000000000000000 [-]
	 SCS Same-Spin Energy      =      -0.1989187195682315 [Eh]
	 SCS Opposite-Spin Energy  =      -2.1298226574498402 [Eh]
	 SCS Correlation Energy    =      -2.3287413770180718 [Eh]
	 SCS Total Energy          =    -907.6082761992711312 [Eh]
	-----------------------------------------------------------

  Dipole Moment: [D]
     X:    -3.1260      Y:     1.0057      Z:     4.0312     Total:     5.1994

*** Psi4 exiting successfully. Buy a developer a beer!
