                               Psi4 1.3.2 release

  ==> Input File <==

--------------------------------------------------------------------------
#psi4
#
memory 32 gb

molecule  {
0 1
  S        0.7637890    -0.7221230    -0.3122950
  O        0.7428910    -1.8740890     0.5977740
  O        1.1390870    -0.8496890    -1.7151490
  N        1.7366500     0.4402300     0.3626080
  N       -1.8489830    -0.7837230     0.4594430
  N       -1.3270270     1.0745880    -0.6709160
  C       -0.8811970    -0.0860610    -0.1982810
  C        1.4606880     0.7318840     1.7727460
  C        1.9603790     1.6404280    -0.4583390
  C       -2.9965950    -0.0375860     0.3980590
  C       -2.6030866     1.0882385    -0.3031042
  H        1.3484140    -0.2039780     2.3191610
  H        0.5624770     1.3529910     1.8963580
  H        2.3234150     1.2701900     2.1711160
  H        2.1708410     1.3362470    -1.4821670
  H        2.8360500     2.1503740    -0.0502520
  H        1.0944390     2.3121220    -0.4419640
  H       -1.7008040    -1.6902470     0.8932800
  H       -3.9262080    -0.3702980     0.8362390
  H       -3.2806590     1.9452040    -0.5535070
units angstrom
no_reorient  #important for SAPT in psi4, default
symmetry c1  #important for SAPT in psi4, default
}

set PROPERTIES_ORIGIN ["COM"]
properties('MP2/aug-cc-pvtz', properties = ['dipole'])
--------------------------------------------------------------------------

    Molecular point group: c1
  Charge       = 0
  Multiplicity = 1
  Basis Set: AUG-CC-PVTZ
    Blend: AUG-CC-PVTZ
  Basis Set: (AUG-CC-PVTZ AUX)
    Blend: AUG-CC-PVTZ-JKFIT

    Orbital Energies [Eh]
    ---------------------

    Doubly Occupied:

       1A    -92.215357     2A    -20.558003     3A    -20.555562
       4A    -15.657411     5A    -15.611104     6A    -15.585149
       7A    -11.336785     8A    -11.290826     9A    -11.275321
      10A    -11.273307    11A    -11.266314    12A     -9.179858
      13A     -6.865073    14A     -6.864677    15A     -6.864259
      16A     -1.464071    17A     -1.377152    18A     -1.345204
      19A     -1.257929    20A     -1.209408    21A     -1.049320
      22A     -0.981786    23A     -0.959529    24A     -0.879769
      25A     -0.838260    26A     -0.819925    27A     -0.753027
      28A     -0.710841    29A     -0.677329    30A     -0.668342
      31A     -0.643954    32A     -0.637556    33A     -0.627494
      34A     -0.613760    35A     -0.602235    36A     -0.577132
      37A     -0.571206    38A     -0.542020    39A     -0.513484
      40A     -0.507761    41A     -0.484049    42A     -0.479758
      43A     -0.474130    44A     -0.436520    45A     -0.418491
      46A     -0.343060

  @DF-RHF Final Energy:  -905.30286416058607

   => Energetics <=

    Nuclear Repulsion Energy =            798.6860460059153866
    One-Electron Energy =               -2828.2507995363976079
    Two-Electron Energy =                1124.2618893698961529
    Total Energy =                       -905.3028641605860685
  Basis Set: (AUG-CC-PVTZ AUX)
    Blend: AUG-CC-PVTZ-RI
    Molecular point group: c1

    Geometry (in Angstrom), charge = 0, multiplicity = 1:

       Center              X                  Y                   Z               Mass
    ------------   -----------------  -----------------  -----------------  -----------------
         S            0.768999598527    -0.675231635762    -0.280441310247    31.972071174400
         O            0.748101598527    -1.827197635762     0.629627689753    15.994914619570
         O            1.144297598527    -0.802797635762    -1.683295310247    15.994914619570
         N            1.741860598527     0.487121364238     0.394461689753    14.003074004430
         N           -1.843772401473    -0.736831635762     0.491296689753    14.003074004430
         N           -1.321816401473     1.121479364238    -0.639062310247    14.003074004430
         C           -0.875986401473    -0.039169635762    -0.166427310247    12.000000000000
         C            1.465898598527     0.778775364238     1.804599689753    12.000000000000
         C            1.965589598527     1.687319364238    -0.426485310247    12.000000000000
         C           -2.991384401473     0.009305364238     0.429912689753    12.000000000000
         C           -2.597876001473     1.135129864238    -0.271250510247    12.000000000000
         H            1.353624598527    -0.157086635762     2.351014689753     1.007825032230
         H            0.567687598527     1.399882364238     1.928211689753     1.007825032230
         H            2.328625598527     1.317081364238     2.202969689753     1.007825032230
         H            2.176051598527     1.383138364238    -1.450313310247     1.007825032230
         H            2.841260598527     2.197265364238    -0.018398310247     1.007825032230
         H            1.099649598527     2.359013364238    -0.410110310247     1.007825032230
         H           -1.695593401473    -1.643355635762     0.925133689753     1.007825032230
         H           -3.920997401473    -0.323406635762     0.868092689753     1.007825032230
         H           -3.275448401473     1.992095364238    -0.521653310247     1.007825032230

  Basis Set: AUG-CC-PVTZ
    Blend: AUG-CC-PVTZ
  Basis Set: (AUG-CC-PVTZ AUX)
    Blend: AUG-CC-PVTZ-JKFIT
	 Reference Energy          =    -905.3028641605860685 [Eh]
	 Singles Energy            =      -0.0000000000000000 [Eh]
	 Same-Spin Energy          =      -0.5978935833214506 [Eh]
	 Opposite-Spin Energy      =      -1.7753006082232834 [Eh]
	 Correlation Energy        =      -2.3731941915447341 [Eh]
	 Total Energy              =    -907.6760583521307808 [Eh]

	 ================> DF-SCS-MP2 Energies <==================
	-----------------------------------------------------------
	 SCS Same-Spin Scale       =       0.3333333333333333 [-]
	 SCS Opposite-Spin Scale   =       1.2000000000000000 [-]
	 SCS Same-Spin Energy      =      -0.1992978611071502 [Eh]
	 SCS Opposite-Spin Energy  =      -2.1303607298679399 [Eh]
	 SCS Correlation Energy    =      -2.3296585909750900 [Eh]
	 SCS Total Energy          =    -907.6325227515611687 [Eh]
	-----------------------------------------------------------

  Dipole Moment: [D]
     X:    -2.6703      Y:     1.8701      Z:     3.5728     Total:     4.8366

*** Psi4 exiting successfully. Buy a developer a beer!
