                               Psi4 1.4a3.dev225

  ==> Input File <==

--------------------------------------------------------------------------
#psi4
#
memory 32 gb

molecule  {
0 1
  S        0.7637890    -0.7221230    -0.3122950
  O        0.7428910    -1.8740890     0.5977740
  O        1.1390870    -0.8496890    -1.7151490
  N        1.7483767     0.4542408     0.3707432
  N       -1.8489830    -0.7837230     0.4594430
  N       -1.3270270     1.0745880    -0.6709160
  C       -0.8811970    -0.0860610    -0.1982810
  C        1.4606880     0.7318840     1.7727460
  C        1.9603790     1.6404280    -0.4583390
  C       -2.9965950    -0.0375860     0.3980590
  C       -2.6480900     1.1053220    -0.2992680
  H        1.3484140    -0.2039780     2.3191610
  H        0.5624770     1.3529910     1.8963580
  H        2.3234150     1.2701900     2.1711160
  H        2.1708410     1.3362470    -1.4821670
  H        2.8360500     2.1503740    -0.0502520
  H        1.0944390     2.3121220    -0.4419640
  H       -1.7008040    -1.6902470     0.8932800
  H       -3.9262080    -0.3702980     0.8362390
  H       -3.2806590     1.9452040    -0.5535070
units angstrom
no_reorient  #important for SAPT in psi4, default
symmetry c1  #important for SAPT in psi4, default
}

set PROPERTIES_ORIGIN ["COM"]
properties('MP2/aug-cc-pvtz', properties = ['dipole'])
--------------------------------------------------------------------------

    Molecular point group: c1
  Charge       = 0
  Multiplicity = 1
  Basis Set: AUG-CC-PVTZ
    Blend: AUG-CC-PVTZ
  Basis Set: (AUG-CC-PVTZ AUX)
    Blend: AUG-CC-PVTZ-JKFIT

    Orbital Energies [Eh]
    ---------------------

    Doubly Occupied:

       1A    -92.216299     2A    -20.559565     3A    -20.556962
       4A    -15.655752     5A    -15.611356     6A    -15.587271
       7A    -11.338271     8A    -11.293704     9A    -11.273973
      10A    -11.273834    11A    -11.264600    12A     -9.180808
      13A     -6.865971    14A     -6.865583    15A     -6.865173
      16A     -1.463963    17A     -1.370564    18A     -1.346101
      19A     -1.257989    20A     -1.199246    21A     -1.050564
      22A     -0.982975    23A     -0.957149    24A     -0.875911
      25A     -0.841028    26A     -0.818912    27A     -0.753393
      28A     -0.711466    29A     -0.676641    30A     -0.667596
      31A     -0.643499    32A     -0.633122    33A     -0.625884
      34A     -0.617722    35A     -0.609556    36A     -0.576208
      37A     -0.570603    38A     -0.544190    39A     -0.513464
      40A     -0.508655    41A     -0.484921    42A     -0.480692
      43A     -0.471315    44A     -0.429693    45A     -0.415725
      46A     -0.346652

  @DF-RHF Final Energy:  -905.30482807333681

   => Energetics <=

    Nuclear Repulsion Energy =            796.9759882203612733
    One-Electron Energy =               -2824.8525911482329320
    Two-Electron Energy =                1122.5717748545350787
    Total Energy =                       -905.3048280733366937
  Basis Set: (AUG-CC-PVTZ AUX)
    Blend: AUG-CC-PVTZ-RI
    Molecular point group: c1

    Geometry (in Angstrom), charge = 0, multiplicity = 1:

       Center              X                  Y                   Z               Mass
    ------------   -----------------  -----------------  -----------------  -----------------
         S            0.771146694214    -0.677523641714    -0.281355105913    31.972071174400
         O            0.750248694214    -1.829489641714     0.628713894087    15.994914619570
         O            1.146444694214    -0.805089641714    -1.684209105913    15.994914619570
         N            1.755734394214     0.498840158286     0.401683094087    14.003074004430
         N           -1.841625305786    -0.739123641714     0.490382894087    14.003074004430
         N           -1.319669305786     1.119187358286    -0.639976105913    14.003074004430
         C           -0.873839305786    -0.041461641714    -0.167341105913    12.000000000000
         C            1.468045694214     0.776483358286     1.803685894087    12.000000000000
         C            1.967736694214     1.685027358286    -0.427399105913    12.000000000000
         C           -2.989237305786     0.007013358286     0.428998894087    12.000000000000
         C           -2.640732305786     1.149921358286    -0.268328105913    12.000000000000
         H            1.355771694214    -0.159378641714     2.350100894087     1.007825032230
         H            0.569834694214     1.397590358286     1.927297894087     1.007825032230
         H            2.330772694214     1.314789358286     2.202055894087     1.007825032230
         H            2.178198694214     1.380846358286    -1.451227105913     1.007825032230
         H            2.843407694214     2.194973358286    -0.019312105913     1.007825032230
         H            1.101796694214     2.356721358286    -0.411024105913     1.007825032230
         H           -1.693446305786    -1.645647641714     0.924219894087     1.007825032230
         H           -3.918850305786    -0.325698641714     0.867178894087     1.007825032230
         H           -3.273301305786     1.989803358286    -0.522567105913     1.007825032230

  Basis Set: AUG-CC-PVTZ
    Blend: AUG-CC-PVTZ
  Basis Set: (AUG-CC-PVTZ AUX)
    Blend: AUG-CC-PVTZ-JKFIT
	 Reference Energy          =    -905.3048280733368074 [Eh]
	 Singles Energy            =      -0.0000000000000000 [Eh]
	 Same-Spin Energy          =      -0.5976784606469162 [Eh]
	 Opposite-Spin Energy      =      -1.7758523020002388 [Eh]
	 Correlation Energy        =      -2.3735307626471549 [Eh]
	 Total Energy              =    -907.6783588359839996 [Eh]

	 ================> DF-SCS-MP2 Energies <==================
	-----------------------------------------------------------
	 SCS Same-Spin Scale       =       0.3333333333333333 [-]
	 SCS Opposite-Spin Scale   =       1.2000000000000000 [-]
	 SCS Same-Spin Energy      =      -0.1992261535489721 [Eh]
	 SCS Opposite-Spin Energy  =      -2.1310227624002867 [Eh]
	 SCS Correlation Energy    =      -2.3302489159492588 [Eh]
	 SCS Total Energy          =    -907.6350769892860626 [Eh]
	-----------------------------------------------------------

  Dipole Moment: [D]
     X:    -2.7549      Y:     1.8194      Z:     3.5292     Total:     4.8327

*** Psi4 exiting successfully. Buy a developer a beer!
