                               Psi4 1.3.2 release

  ==> Input File <==

--------------------------------------------------------------------------
#psi4
#
memory 32 gb

molecule  {
0 1
  S        0.7500686    -0.7249919    -0.2869550
  O        0.7428910    -1.8740890     0.5977740
  O        1.1390870    -0.8496890    -1.7151490
  N        1.7366500     0.4402300     0.3626080
  N       -1.8489830    -0.7837230     0.4594430
  N       -1.3270270     1.0745880    -0.6709160
  C       -0.8811970    -0.0860610    -0.1982810
  C        1.4606880     0.7318840     1.7727460
  C        1.9603790     1.6404280    -0.4583390
  C       -2.9965950    -0.0375860     0.3980590
  C       -2.6480900     1.1053220    -0.2992680
  H        1.3484140    -0.2039780     2.3191610
  H        0.5624770     1.3529910     1.8963580
  H        2.3234150     1.2701900     2.1711160
  H        2.1708410     1.3362470    -1.4821670
  H        2.8360500     2.1503740    -0.0502520
  H        1.0944390     2.3121220    -0.4419640
  H       -1.7008040    -1.6902470     0.8932800
  H       -3.9262080    -0.3702980     0.8362390
  H       -3.2806590     1.9452040    -0.5535070
units angstrom
no_reorient  #important for SAPT in psi4, default
symmetry c1  #important for SAPT in psi4, default
}

set PROPERTIES_ORIGIN ["COM"]
properties('MP2/aug-cc-pvtz', properties = ['dipole'])
--------------------------------------------------------------------------

    Molecular point group: c1
  Charge       = 0
  Multiplicity = 1
  Basis Set: AUG-CC-PVTZ
    Blend: AUG-CC-PVTZ
  Basis Set: (AUG-CC-PVTZ AUX)
    Blend: AUG-CC-PVTZ-JKFIT

    Orbital Energies [Eh]
    ---------------------

    Doubly Occupied:

       1A    -92.215031     2A    -20.562648     3A    -20.548839
       4A    -15.656969     5A    -15.611331     6A    -15.588614
       7A    -11.338587     8A    -11.294796     9A    -11.275436
      10A    -11.275116    11A    -11.265662    12A     -9.179814
      13A     -6.865024    14A     -6.864682    15A     -6.864065
      16A     -1.463929    17A     -1.371362    18A     -1.339410
      19A     -1.257383    20A     -1.200430    21A     -1.053415
      22A     -0.981614    23A     -0.960752    24A     -0.879637
      25A     -0.842813    26A     -0.819742    27A     -0.753134
      28A     -0.710215    29A     -0.677218    30A     -0.667590
      31A     -0.642860    32A     -0.633965    33A     -0.626754
      34A     -0.618034    35A     -0.607772    36A     -0.577013
      37A     -0.571186    38A     -0.542005    39A     -0.512737
      40A     -0.507221    41A     -0.484758    42A     -0.475618
      43A     -0.470998    44A     -0.430592    45A     -0.418615
      46A     -0.347550

  @DF-RHF Final Energy:  -905.30361154554748

   => Energetics <=

    Nuclear Repulsion Energy =            797.7728737045305252
    One-Electron Energy =               -2826.4470957872058534
    Two-Electron Energy =                1123.3706105371279591
    Total Energy =                       -905.3036115455474828
  Basis Set: (AUG-CC-PVTZ AUX)
    Blend: AUG-CC-PVTZ-RI
    Molecular point group: c1

    Geometry (in Angstrom), charge = 0, multiplicity = 1:

       Center              X                  Y                   Z               Mass
    ------------   -----------------  -----------------  -----------------  -----------------
         S            0.760870501953    -0.678747681120    -0.259992758561    31.972071174400
         O            0.753692901953    -1.827844781120     0.624736241439    15.994914619570
         O            1.149888901953    -0.803444781120    -1.688186758561    15.994914619570
         N            1.747451901953     0.486474218880     0.389570241439    14.003074004430
         N           -1.838181098047    -0.737478781120     0.486405241439    14.003074004430
         N           -1.316225098047     1.120832218880    -0.643953758561    14.003074004430
         C           -0.870395098047    -0.039816781120    -0.171318758561    12.000000000000
         C            1.471489901953     0.778128218880     1.799708241439    12.000000000000
         C            1.971180901953     1.686672218880    -0.431376758561    12.000000000000
         C           -2.985793098047     0.008658218880     0.425021241439    12.000000000000
         C           -2.637288098047     1.151566218880    -0.272305758561    12.000000000000
         H            1.359215901953    -0.157733781120     2.346123241439     1.007825032230
         H            0.573278901953     1.399235218880     1.923320241439     1.007825032230
         H            2.334216901953     1.316434218880     2.198078241439     1.007825032230
         H            2.181642901953     1.382491218880    -1.455204758561     1.007825032230
         H            2.846851901953     2.196618218880    -0.023289758561     1.007825032230
         H            1.105240901953     2.358366218880    -0.415001758561     1.007825032230
         H           -1.690002098047    -1.644002781120     0.920242241439     1.007825032230
         H           -3.915406098047    -0.324053781120     0.863201241439     1.007825032230
         H           -3.269857098047     1.991448218880    -0.526544758561     1.007825032230

  Basis Set: AUG-CC-PVTZ
    Blend: AUG-CC-PVTZ
  Basis Set: (AUG-CC-PVTZ AUX)
    Blend: AUG-CC-PVTZ-JKFIT
	 Reference Energy          =    -905.3036115455474828 [Eh]
	 Singles Energy            =      -0.0000000000000000 [Eh]
	 Same-Spin Energy          =      -0.5977615728887891 [Eh]
	 Opposite-Spin Energy      =      -1.7758739281736293 [Eh]
	 Correlation Energy        =      -2.3736355010624184 [Eh]
	 Total Energy              =    -907.6772470466098639 [Eh]

	 ================> DF-SCS-MP2 Energies <==================
	-----------------------------------------------------------
	 SCS Same-Spin Scale       =       0.3333333333333333 [-]
	 SCS Opposite-Spin Scale   =       1.2000000000000000 [-]
	 SCS Same-Spin Energy      =      -0.1992538576295964 [Eh]
	 SCS Opposite-Spin Energy  =      -2.1310487138083549 [Eh]
	 SCS Correlation Energy    =      -2.3303025714379513 [Eh]
	 SCS Total Energy          =    -907.6339141169854656 [Eh]
	-----------------------------------------------------------

  Dipole Moment: [D]
     X:    -2.8396      Y:     1.8816      Z:     3.7906     Total:     5.0963

*** Psi4 exiting successfully. Buy a developer a beer!
