                               Psi4 1.3.2 release

  ==> Input File <==

--------------------------------------------------------------------------
#psi4
#
memory 32 gb

molecule  {
0 1
  S        0.7637890    -0.7221230    -0.3122950
  O        0.7428910    -1.8740890     0.5977740
  O        1.1390870    -0.8496890    -1.7151490
  N        1.7366500     0.4402300     0.3626080
  N       -1.8489830    -0.7837230     0.4594430
  N       -1.3270270     1.0745880    -0.6709160
  C       -0.9665178    -0.1016303    -0.1651512
  C        1.4606880     0.7318840     1.7727460
  C        1.9603790     1.6404280    -0.4583390
  C       -2.9965950    -0.0375860     0.3980590
  C       -2.6480900     1.1053220    -0.2992680
  H        1.3484140    -0.2039780     2.3191610
  H        0.5624770     1.3529910     1.8963580
  H        2.3234150     1.2701900     2.1711160
  H        2.1708410     1.3362470    -1.4821670
  H        2.8360500     2.1503740    -0.0502520
  H        1.0944390     2.3121220    -0.4419640
  H       -1.7008040    -1.6902470     0.8932800
  H       -3.9262080    -0.3702980     0.8362390
  H       -3.2806590     1.9452040    -0.5535070
units angstrom
no_reorient  #important for SAPT in psi4, default
symmetry c1  #important for SAPT in psi4, default
}

set PROPERTIES_ORIGIN ["COM"]
properties('MP2/aug-cc-pvtz', properties = ['dipole'])
--------------------------------------------------------------------------

    Molecular point group: c1
  Charge       = 0
  Multiplicity = 1
  Basis Set: AUG-CC-PVTZ
    Blend: AUG-CC-PVTZ
  Basis Set: (AUG-CC-PVTZ AUX)
    Blend: AUG-CC-PVTZ-JKFIT

    Orbital Energies [Eh]
    ---------------------

    Doubly Occupied:

       1A    -92.213721     2A    -20.556639     3A    -20.556178
       4A    -15.657605     5A    -15.612624     6A    -15.579646
       7A    -11.337186     8A    -11.285674     9A    -11.275799
      10A    -11.274562    11A    -11.265857    12A     -9.177871
      13A     -6.862941    14A     -6.862612    15A     -6.862199
      16A     -1.461868    17A     -1.395231    18A     -1.344247
      19A     -1.257815    20A     -1.209239    21A     -1.044821
      22A     -0.981882    23A     -0.955924    24A     -0.869760
      25A     -0.842765    26A     -0.837588    27A     -0.751970
      28A     -0.709478    29A     -0.673284    30A     -0.667227
      31A     -0.647056    32A     -0.639410    33A     -0.631079
      34A     -0.616405    35A     -0.607204    36A     -0.577037
      37A     -0.571225    38A     -0.542059    39A     -0.510708
      40A     -0.506919    41A     -0.485822    42A     -0.479173
      43A     -0.466791    44A     -0.431655    45A     -0.416363
      46A     -0.346688

  @DF-RHF Final Energy:  -905.29868236025266

   => Energetics <=

    Nuclear Repulsion Energy =            797.1074280853667915
    One-Electron Energy =               -2825.0926013131875152
    Two-Electron Energy =                1122.6864908675681818
    Total Energy =                       -905.2986823602525419
  Basis Set: (AUG-CC-PVTZ AUX)
    Blend: AUG-CC-PVTZ-RI
    Molecular point group: c1

    Geometry (in Angstrom), charge = 0, multiplicity = 1:

       Center              X                  Y                   Z               Mass
    ------------   -----------------  -----------------  -----------------  -----------------
         S            0.777933993934    -0.675335441974    -0.282975520015    31.972071174400
         O            0.757035993934    -1.827301441974     0.627093479985    15.994914619570
         O            1.153231993934    -0.802901441974    -1.685829520015    15.994914619570
         N            1.750794993934     0.487017558026     0.391927479985    14.003074004430
         N           -1.834838006066    -0.736935441974     0.488762479985    14.003074004430
         N           -1.312882006066     1.121375558026    -0.641596520015    14.003074004430
         C           -0.952372806066    -0.054842741974    -0.135831720015    12.000000000000
         C            1.474832993934     0.778671558026     1.802065479985    12.000000000000
         C            1.974523993934     1.687215558026    -0.429019520015    12.000000000000
         C           -2.982450006066     0.009201558026     0.427378479985    12.000000000000
         C           -2.633945006066     1.152109558026    -0.269948520015    12.000000000000
         H            1.362558993934    -0.157190441974     2.348480479985     1.007825032230
         H            0.576621993934     1.399778558026     1.925677479985     1.007825032230
         H            2.337559993934     1.316977558026     2.200435479985     1.007825032230
         H            2.184985993934     1.383034558026    -1.452847520015     1.007825032230
         H            2.850194993934     2.197161558026    -0.020932520015     1.007825032230
         H            1.108583993934     2.358909558026    -0.412644520015     1.007825032230
         H           -1.686659006066    -1.643459441974     0.922599479985     1.007825032230
         H           -3.912063006066    -0.323510441974     0.865558479985     1.007825032230
         H           -3.266514006066     1.991991558026    -0.524187520015     1.007825032230

  Basis Set: AUG-CC-PVTZ
    Blend: AUG-CC-PVTZ
  Basis Set: (AUG-CC-PVTZ AUX)
    Blend: AUG-CC-PVTZ-JKFIT
	 Reference Energy          =    -905.2986823602526556 [Eh]
	 Singles Energy            =      -0.0000000000000000 [Eh]
	 Same-Spin Energy          =      -0.5964735385870847 [Eh]
	 Opposite-Spin Energy      =      -1.7736025147566994 [Eh]
	 Correlation Energy        =      -2.3700760533437841 [Eh]
	 Total Energy              =    -907.6687584135964926 [Eh]

	 ================> DF-SCS-MP2 Energies <==================
	-----------------------------------------------------------
	 SCS Same-Spin Scale       =       0.3333333333333333 [-]
	 SCS Opposite-Spin Scale   =       1.2000000000000000 [-]
	 SCS Same-Spin Energy      =      -0.1988245128623616 [Eh]
	 SCS Opposite-Spin Energy  =      -2.1283230177080390 [Eh]
	 SCS Correlation Energy    =      -2.3271475305704006 [Eh]
	 SCS Total Energy          =    -907.6258298908230699 [Eh]
	-----------------------------------------------------------

  Dipole Moment: [D]
     X:    -2.5853      Y:     1.8054      Z:     3.5958     Total:     4.7826

*** Psi4 exiting successfully. Buy a developer a beer!
