                               Psi4 1.3.2 release

  ==> Input File <==

--------------------------------------------------------------------------
#psi4
#
memory 32 gb

molecule  {
0 1
  S        0.7921146    -0.7153240    -0.3623506
  O        0.7428910    -1.8740890     0.5977740
  O        1.1390870    -0.8496890    -1.7151490
  N        1.7366500     0.4402300     0.3626080
  N       -1.8489830    -0.7837230     0.4594430
  N       -1.3270270     1.0745880    -0.6709160
  C       -0.8811970    -0.0860610    -0.1982810
  C        1.4606880     0.7318840     1.7727460
  C        1.9603790     1.6404280    -0.4583390
  C       -2.9965950    -0.0375860     0.3980590
  C       -2.6480900     1.1053220    -0.2992680
  H        1.3484140    -0.2039780     2.3191610
  H        0.5624770     1.3529910     1.8963580
  H        2.3234150     1.2701900     2.1711160
  H        2.1708410     1.3362470    -1.4821670
  H        2.8360500     2.1503740    -0.0502520
  H        1.0944390     2.3121220    -0.4419640
  H       -1.7008040    -1.6902470     0.8932800
  H       -3.9262080    -0.3702980     0.8362390
  H       -3.2806590     1.9452040    -0.5535070
units angstrom
no_reorient  #important for SAPT in psi4, default
symmetry c1  #important for SAPT in psi4, default
}

set PROPERTIES_ORIGIN ["COM"]
properties('MP2/aug-cc-pvtz', properties = ['dipole'])
--------------------------------------------------------------------------

    Molecular point group: c1
  Charge       = 0
  Multiplicity = 1
  Basis Set: AUG-CC-PVTZ
    Blend: AUG-CC-PVTZ
  Basis Set: (AUG-CC-PVTZ AUX)
    Blend: AUG-CC-PVTZ-JKFIT

    Orbital Energies [Eh]
    ---------------------

    Doubly Occupied:

       1A    -92.215982     2A    -20.569861     3A    -20.550060
       4A    -15.651352     5A    -15.611450     6A    -15.582578
       7A    -11.335129     8A    -11.289669     9A    -11.275130
      10A    -11.270243    11A    -11.267165    12A     -9.180820
      13A     -6.865933    14A     -6.865741    15A     -6.865247
      16A     -1.480863    17A     -1.368801    18A     -1.343713
      19A     -1.257784    20A     -1.195086    21A     -1.043143
      22A     -0.982253    23A     -0.958515    24A     -0.872016
      25A     -0.835949    26A     -0.815604    27A     -0.753625
      28A     -0.714344    29A     -0.677448    30A     -0.670966
      31A     -0.644023    32A     -0.629896    33A     -0.621925
      34A     -0.617459    35A     -0.608773    36A     -0.579958
      37A     -0.571062    38A     -0.543093    39A     -0.519012
      40A     -0.515441    41A     -0.482151    42A     -0.479666
      43A     -0.467924    44A     -0.426555    45A     -0.416690
      46A     -0.342864

  @DF-RHF Final Energy:  -905.30164235994289

   => Energetics <=

    Nuclear Repulsion Energy =            796.9435242450535952
    One-Electron Energy =               -2824.8244062593003036
    Two-Electron Energy =                1122.5792396543038194
    Total Energy =                       -905.3016423599428890
  Basis Set: (AUG-CC-PVTZ AUX)
    Blend: AUG-CC-PVTZ-RI
    Molecular point group: c1

    Geometry (in Angstrom), charge = 0, multiplicity = 1:

       Center              X                  Y                   Z               Mass
    ------------   -----------------  -----------------  -----------------  -----------------
         S            0.795236624106    -0.670845663511    -0.321617036719    31.972071174400
         O            0.746013024106    -1.829610663511     0.638507563281    15.994914619570
         O            1.142209024106    -0.805210663511    -1.674415436719    15.994914619570
         N            1.739772024106     0.484708336489     0.403341563281    14.003074004430
         N           -1.845860975894    -0.739244663511     0.500176563281    14.003074004430
         N           -1.323904975894     1.119066336489    -0.630182436719    14.003074004430
         C           -0.878074975894    -0.041582663511    -0.157547436719    12.000000000000
         C            1.463810024106     0.776362336489     1.813479563281    12.000000000000
         C            1.963501024106     1.684906336489    -0.417605436719    12.000000000000
         C           -2.993472975894     0.006892336489     0.438792563281    12.000000000000
         C           -2.644967975894     1.149800336489    -0.258534436719    12.000000000000
         H            1.351536024106    -0.159499663511     2.359894563281     1.007825032230
         H            0.565599024106     1.397469336489     1.937091563281     1.007825032230
         H            2.326537024106     1.314668336489     2.211849563281     1.007825032230
         H            2.173963024106     1.380725336489    -1.441433436719     1.007825032230
         H            2.839172024106     2.194852336489    -0.009518436719     1.007825032230
         H            1.097561024106     2.356600336489    -0.401230436719     1.007825032230
         H           -1.697681975894    -1.645768663511     0.934013563281     1.007825032230
         H           -3.923085975894    -0.325819663511     0.876972563281     1.007825032230
         H           -3.277536975894     1.989682336489    -0.512773436719     1.007825032230

  Basis Set: AUG-CC-PVTZ
    Blend: AUG-CC-PVTZ
  Basis Set: (AUG-CC-PVTZ AUX)
    Blend: AUG-CC-PVTZ-JKFIT
	 Reference Energy          =    -905.3016423599428890 [Eh]
	 Singles Energy            =      -0.0000000000000000 [Eh]
	 Same-Spin Energy          =      -0.5968016826227285 [Eh]
	 Opposite-Spin Energy      =      -1.7745884286070015 [Eh]
	 Correlation Energy        =      -2.3713901112297302 [Eh]
	 Total Energy              =    -907.6730324711726325 [Eh]

	 ================> DF-SCS-MP2 Energies <==================
	-----------------------------------------------------------
	 SCS Same-Spin Scale       =       0.3333333333333333 [-]
	 SCS Opposite-Spin Scale   =       1.2000000000000000 [-]
	 SCS Same-Spin Energy      =      -0.1989338942075762 [Eh]
	 SCS Opposite-Spin Energy  =      -2.1295061143284015 [Eh]
	 SCS Correlation Energy    =      -2.3284400085359778 [Eh]
	 SCS Total Energy          =    -907.6300823684788384 [Eh]
	-----------------------------------------------------------

  Dipole Moment: [D]
     X:    -2.3559      Y:     1.9258      Z:     3.1387     Total:     4.3715

*** Psi4 exiting successfully. Buy a developer a beer!
