                               Psi4 1.4a3.dev225

  ==> Input File <==

--------------------------------------------------------------------------
#psi4
#
memory 32 gb

molecule  {
0 1
  S        0.7637890    -0.7221230    -0.3122950
  O        0.7428910    -1.8740890     0.5977740
  O        1.1390870    -0.8496890    -1.7151490
  N        1.7366500     0.4402300     0.3626080
  N       -1.8489830    -0.7837230     0.4594430
  N       -1.3270270     1.0745880    -0.6709160
  C       -0.8811970    -0.0860610    -0.1982810
  C        1.4606880     0.7318840     1.7727460
  C        1.9603790     1.6404280    -0.4583390
  C       -2.9965950    -0.0375860     0.3980590
  C       -2.6531282     1.0887995    -0.2891871
  H        1.3484140    -0.2039780     2.3191610
  H        0.5624770     1.3529910     1.8963580
  H        2.3234150     1.2701900     2.1711160
  H        2.1708410     1.3362470    -1.4821670
  H        2.8360500     2.1503740    -0.0502520
  H        1.0944390     2.3121220    -0.4419640
  H       -1.7008040    -1.6902470     0.8932800
  H       -3.9262080    -0.3702980     0.8362390
  H       -3.2806590     1.9452040    -0.5535070
units angstrom
no_reorient  #important for SAPT in psi4, default
symmetry c1  #important for SAPT in psi4, default
}

set PROPERTIES_ORIGIN ["COM"]
properties('MP2/aug-cc-pvtz', properties = ['dipole'])
--------------------------------------------------------------------------

    Molecular point group: c1
  Charge       = 0
  Multiplicity = 1
  Basis Set: AUG-CC-PVTZ
    Blend: AUG-CC-PVTZ
  Basis Set: (AUG-CC-PVTZ AUX)
    Blend: AUG-CC-PVTZ-JKFIT

    Orbital Energies [Eh]
    ---------------------

    Doubly Occupied:

       1A    -92.216066     2A    -20.558690     3A    -20.556253
       4A    -15.653499     5A    -15.611637     6A    -15.586582
       7A    -11.338463     8A    -11.290701     9A    -11.275470
      10A    -11.272071    11A    -11.266293    12A     -9.180617
      13A     -6.865834    14A     -6.865428    15A     -6.865006
      16A     -1.464628    17A     -1.370535    18A     -1.345673
      19A     -1.258290    20A     -1.196850    21A     -1.052545
      22A     -0.981926    23A     -0.961095    24A     -0.878212
      25A     -0.837325    26A     -0.818518    27A     -0.753178
      28A     -0.710875    29A     -0.676885    30A     -0.668403
      31A     -0.642904    32A     -0.634488    33A     -0.625661
      34A     -0.615259    35A     -0.604604    36A     -0.577284
      37A     -0.571318    38A     -0.542150    39A     -0.514159
      40A     -0.508072    41A     -0.486439    42A     -0.480263
      43A     -0.472290    44A     -0.427721    45A     -0.418306
      46A     -0.349743

  @DF-RHF Final Energy:  -905.30591091331826

   => Energetics <=

    Nuclear Repulsion Energy =            797.6821384302007800
    One-Electron Energy =               -2826.2796870808451786
    Two-Electron Energy =                1123.2916377373262549
    Total Energy =                       -905.3059109133182574
  Basis Set: (AUG-CC-PVTZ AUX)
    Blend: AUG-CC-PVTZ-RI
    Molecular point group: c1

    Geometry (in Angstrom), charge = 0, multiplicity = 1:

       Center              X                  Y                   Z               Mass
    ------------   -----------------  -----------------  -----------------  -----------------
         S            0.772430208047    -0.675270095202    -0.281395399160    31.972071174400
         O            0.751532208047    -1.827236095202     0.628673600840    15.994914619570
         O            1.147728208047    -0.802836095202    -1.684249399160    15.994914619570
         N            1.745291208047     0.487082904798     0.393507600840    14.003074004430
         N           -1.840341791953    -0.736870095202     0.490342600840    14.003074004430
         N           -1.318385791953     1.121440904798    -0.640016399160    14.003074004430
         C           -0.872555791953    -0.039208095202    -0.167381399160    12.000000000000
         C            1.469329208047     0.778736904798     1.803645600840    12.000000000000
         C            1.969020208047     1.687280904798    -0.427439399160    12.000000000000
         C           -2.987953791953     0.009266904798     0.428958600840    12.000000000000
         C           -2.644486991953     1.135652404798    -0.258287499160    12.000000000000
         H            1.357055208047    -0.157125095202     2.350060600840     1.007825032230
         H            0.571118208047     1.399843904798     1.927257600840     1.007825032230
         H            2.332056208047     1.317042904798     2.202015600840     1.007825032230
         H            2.179482208047     1.383099904798    -1.451267399160     1.007825032230
         H            2.844691208047     2.197226904798    -0.019352399160     1.007825032230
         H            1.103080208047     2.358974904798    -0.411064399160     1.007825032230
         H           -1.692162791953    -1.643394095202     0.924179600840     1.007825032230
         H           -3.917566791953    -0.323445095202     0.867138600840     1.007825032230
         H           -3.272017791953     1.992056904798    -0.522607399160     1.007825032230

  Basis Set: AUG-CC-PVTZ
    Blend: AUG-CC-PVTZ
  Basis Set: (AUG-CC-PVTZ AUX)
    Blend: AUG-CC-PVTZ-JKFIT
	 Reference Energy          =    -905.3059109133182574 [Eh]
	 Singles Energy            =      -0.0000000000000000 [Eh]
	 Same-Spin Energy          =      -0.5972089638728049 [Eh]
	 Opposite-Spin Energy      =      -1.7751454600039933 [Eh]
	 Correlation Energy        =      -2.3723544238767982 [Eh]
	 Total Energy              =    -907.6782653371950573 [Eh]

	 ================> DF-SCS-MP2 Energies <==================
	-----------------------------------------------------------
	 SCS Same-Spin Scale       =       0.3333333333333333 [-]
	 SCS Opposite-Spin Scale   =       1.2000000000000000 [-]
	 SCS Same-Spin Energy      =      -0.1990696546242683 [Eh]
	 SCS Opposite-Spin Energy  =      -2.1301745520047919 [Eh]
	 SCS Correlation Energy    =      -2.3292442066290602 [Eh]
	 SCS Total Energy          =    -907.6351551199472851 [Eh]
	-----------------------------------------------------------

  Dipole Moment: [D]
     X:    -2.6707      Y:     1.8768      Z:     3.5767     Total:     4.8423

*** Psi4 exiting successfully. Buy a developer a beer!
