                               Psi4 1.4a3.dev225

  ==> Input File <==

--------------------------------------------------------------------------
#psi4
#
memory 32 gb

molecule  {
0 1
  S        0.7637890    -0.7221230    -0.3122950
  O        0.7428910    -1.8740890     0.5977740
  O        1.1390870    -0.8496890    -1.7151490
  N        1.7249233     0.4262192     0.3544728
  N       -1.8489830    -0.7837230     0.4594430
  N       -1.3270270     1.0745880    -0.6709160
  C       -0.8811970    -0.0860610    -0.1982810
  C        1.4606880     0.7318840     1.7727460
  C        1.9603790     1.6404280    -0.4583390
  C       -2.9965950    -0.0375860     0.3980590
  C       -2.6480900     1.1053220    -0.2992680
  H        1.3484140    -0.2039780     2.3191610
  H        0.5624770     1.3529910     1.8963580
  H        2.3234150     1.2701900     2.1711160
  H        2.1708410     1.3362470    -1.4821670
  H        2.8360500     2.1503740    -0.0502520
  H        1.0944390     2.3121220    -0.4419640
  H       -1.7008040    -1.6902470     0.8932800
  H       -3.9262080    -0.3702980     0.8362390
  H       -3.2806590     1.9452040    -0.5535070
units angstrom
no_reorient  #important for SAPT in psi4, default
symmetry c1  #important for SAPT in psi4, default
}

set PROPERTIES_ORIGIN ["COM"]
properties('MP2/aug-cc-pvtz', properties = ['dipole'])
--------------------------------------------------------------------------

    Molecular point group: c1
  Charge       = 0
  Multiplicity = 1
  Basis Set: AUG-CC-PVTZ
    Blend: AUG-CC-PVTZ
  Basis Set: (AUG-CC-PVTZ AUX)
    Blend: AUG-CC-PVTZ-JKFIT

    Orbital Energies [Eh]
    ---------------------

    Doubly Occupied:

       1A    -92.215148     2A    -20.557372     3A    -20.554735
       4A    -15.654501     5A    -15.611290     6A    -15.586024
       7A    -11.336669     8A    -11.292524     9A    -11.276866
      10A    -11.273049    11A    -11.267764    12A     -9.179720
      13A     -6.865001    14A     -6.864564    15A     -6.864137
      16A     -1.464767    17A     -1.369442    18A     -1.344663
      19A     -1.258289    20A     -1.198112    21A     -1.049380
      22A     -0.980601    23A     -0.962939    24A     -0.878204
      25A     -0.840070    26A     -0.817814    27A     -0.752469
      28A     -0.709939    29A     -0.677101    30A     -0.668793
      31A     -0.641877    32A     -0.632097    33A     -0.624410
      34A     -0.616252    35A     -0.608177    36A     -0.578490
      37A     -0.571760    38A     -0.539691    39A     -0.514583
      40A     -0.507075    41A     -0.485857    42A     -0.479251
      43A     -0.471462    44A     -0.428963    45A     -0.420422
      46A     -0.345493

  @DF-RHF Final Energy:  -905.30628482666884

   => Energetics <=

    Nuclear Repulsion Energy =            797.9800269100998094
    One-Electron Energy =               -2826.8970071405265116
    Two-Electron Energy =                1123.6106954037579726
    Total Energy =                       -905.3062848266688434
  Basis Set: (AUG-CC-PVTZ AUX)
    Blend: AUG-CC-PVTZ-RI
    Molecular point group: c1

    Geometry (in Angstrom), charge = 0, multiplicity = 1:

       Center              X                  Y                   Z               Mass
    ------------   -----------------  -----------------  -----------------  -----------------
         S            0.773022932742    -0.675281953706    -0.280053497133    31.972071174400
         O            0.752124932742    -1.827247953706     0.630015502867    15.994914619570
         O            1.148320932742    -0.802847953706    -1.682907497133    15.994914619570
         N            1.734157232742     0.473060246294     0.386714302867    14.003074004430
         N           -1.839749067258    -0.736881953706     0.491684502867    14.003074004430
         N           -1.317793067258     1.121429046294    -0.638674497133    14.003074004430
         C           -0.871963067258    -0.039219953706    -0.166039497133    12.000000000000
         C            1.469921932742     0.778725046294     1.804987502867    12.000000000000
         C            1.969612932742     1.687269046294    -0.426097497133    12.000000000000
         C           -2.987361067258     0.009255046294     0.430300502867    12.000000000000
         C           -2.638856067258     1.152163046294    -0.267026497133    12.000000000000
         H            1.357647932742    -0.157136953706     2.351402502867     1.007825032230
         H            0.571710932742     1.399832046294     1.928599502867     1.007825032230
         H            2.332648932742     1.317031046294     2.203357502867     1.007825032230
         H            2.180074932742     1.383088046294    -1.449925497133     1.007825032230
         H            2.845283932742     2.197215046294    -0.018010497133     1.007825032230
         H            1.103672932742     2.358963046294    -0.409722497133     1.007825032230
         H           -1.691570067258    -1.643405953706     0.925521502867     1.007825032230
         H           -3.916974067258    -0.323456953706     0.868480502867     1.007825032230
         H           -3.271425067258     1.992045046294    -0.521265497133     1.007825032230

  Basis Set: AUG-CC-PVTZ
    Blend: AUG-CC-PVTZ
  Basis Set: (AUG-CC-PVTZ AUX)
    Blend: AUG-CC-PVTZ-JKFIT
	 Reference Energy          =    -905.3062848266688434 [Eh]
	 Singles Energy            =      -0.0000000000000000 [Eh]
	 Same-Spin Energy          =      -0.5972935222166373 [Eh]
	 Opposite-Spin Energy      =      -1.7750973593993957 [Eh]
	 Correlation Energy        =      -2.3723908816160328 [Eh]
	 Total Energy              =    -907.6786757082849135 [Eh]

	 ================> DF-SCS-MP2 Energies <==================
	-----------------------------------------------------------
	 SCS Same-Spin Scale       =       0.3333333333333333 [-]
	 SCS Opposite-Spin Scale   =       1.2000000000000000 [-]
	 SCS Same-Spin Energy      =      -0.1990978407388791 [Eh]
	 SCS Opposite-Spin Energy  =      -2.1301168312792749 [Eh]
	 SCS Correlation Energy    =      -2.3292146720181539 [Eh]
	 SCS Total Energy          =    -907.6354994986869542 [Eh]
	-----------------------------------------------------------

  Dipole Moment: [D]
     X:    -2.6046      Y:     1.9647      Z:     3.6120     Total:     4.8673

*** Psi4 exiting successfully. Buy a developer a beer!
