                               Psi4 1.3.2 release

  ==> Input File <==

--------------------------------------------------------------------------
#psi4
#
memory 32 gb

molecule  {
0 1
  S        0.7637890    -0.7221230    -0.3122950
  O        0.7428910    -1.8740890     0.5977740
  O        1.1390870    -0.8496890    -1.7151490
  N        1.7366500     0.4402300     0.3626080
  N       -1.8489830    -0.7837230     0.4594430
  N       -1.3270270     1.0745880    -0.6709160
  C       -0.8811970    -0.0860610    -0.1982810
  C        1.4606880     0.7318840     1.7727460
  C        1.9603790     1.6404280    -0.4583390
  C       -2.8290873    -0.1464937     0.4070187
  C       -2.6480900     1.1053220    -0.2992680
  H        1.3484140    -0.2039780     2.3191610
  H        0.5624770     1.3529910     1.8963580
  H        2.3234150     1.2701900     2.1711160
  H        2.1708410     1.3362470    -1.4821670
  H        2.8360500     2.1503740    -0.0502520
  H        1.0944390     2.3121220    -0.4419640
  H       -1.7008040    -1.6902470     0.8932800
  H       -3.9262080    -0.3702980     0.8362390
  H       -3.2806590     1.9452040    -0.5535070
units angstrom
no_reorient  #important for SAPT in psi4, default
symmetry c1  #important for SAPT in psi4, default
}

set PROPERTIES_ORIGIN ["COM"]
properties('MP2/aug-cc-pvtz', properties = ['dipole'])
--------------------------------------------------------------------------

    Molecular point group: c1
  Charge       = 0
  Multiplicity = 1
  Basis Set: AUG-CC-PVTZ
    Blend: AUG-CC-PVTZ
  Basis Set: (AUG-CC-PVTZ AUX)
    Blend: AUG-CC-PVTZ-JKFIT

    Orbital Energies [Eh]
    ---------------------

    Doubly Occupied:

       1A    -92.210332     2A    -20.554946     3A    -20.549676
       4A    -15.666753     5A    -15.605987     6A    -15.594478
       7A    -11.318014     8A    -11.300646     9A    -11.272662
      10A    -11.269004    11A    -11.263226    12A     -9.174570
      13A     -6.859765    14A     -6.859438    15A     -6.859021
      16A     -1.461967    17A     -1.429795    18A     -1.341265
      19A     -1.254097    20A     -1.228120    21A     -1.044552
      22A     -0.978627    23A     -0.951691    24A     -0.877791
      25A     -0.863087    26A     -0.837183    27A     -0.750814
      28A     -0.712277    29A     -0.693123    30A     -0.671239
      31A     -0.659730    32A     -0.641750    33A     -0.623049
      34A     -0.612209    35A     -0.579262    36A     -0.574243
      37A     -0.568490    38A     -0.538985    39A     -0.509574
      40A     -0.505538    41A     -0.477004    42A     -0.476287
      43A     -0.469028    44A     -0.450178    45A     -0.414486
      46A     -0.324503

  @DF-RHF Final Energy:  -905.24533935550357

   => Energetics <=

    Nuclear Repulsion Energy =            801.8918666304683711
    One-Electron Energy =               -2834.5174846196114231
    Two-Electron Energy =                1127.3802786336393638
    Total Energy =                       -905.2453393555035746
  Basis Set: (AUG-CC-PVTZ AUX)
    Blend: AUG-CC-PVTZ-RI
    Molecular point group: c1

    Geometry (in Angstrom), charge = 0, multiplicity = 1:

       Center              X                  Y                   Z               Mass
    ------------   -----------------  -----------------  -----------------  -----------------
         S            0.760601297557    -0.668936613726    -0.281318535123    31.972071174400
         O            0.739703297557    -1.820902613726     0.628750464877    15.994914619570
         O            1.135899297557    -0.796502613726    -1.684172535123    15.994914619570
         N            1.733462297557     0.493416386274     0.393584464877    14.003074004430
         N           -1.852170702443    -0.730536613726     0.490419464877    14.003074004430
         N           -1.330214702443     1.127774386274    -0.639939535123    14.003074004430
         C           -0.884384702443    -0.032874613726    -0.167304535123    12.000000000000
         C            1.457500297557     0.785070386274     1.803722464877    12.000000000000
         C            1.957191297557     1.693614386274    -0.427362535123    12.000000000000
         C           -2.832275002443    -0.093307313726     0.437995164877    12.000000000000
         C           -2.651277702443     1.158508386274    -0.268291535123    12.000000000000
         H            1.345226297557    -0.150791613726     2.350137464877     1.007825032230
         H            0.559289297557     1.406177386274     1.927334464877     1.007825032230
         H            2.320227297557     1.323376386274     2.202092464877     1.007825032230
         H            2.167653297557     1.389433386274    -1.451190535123     1.007825032230
         H            2.832862297557     2.203560386274    -0.019275535123     1.007825032230
         H            1.091251297557     2.365308386274    -0.410987535123     1.007825032230
         H           -1.703991702443    -1.637060613726     0.924256464877     1.007825032230
         H           -3.929395702443    -0.317111613726     0.867215464877     1.007825032230
         H           -3.283846702443     1.998390386274    -0.522530535123     1.007825032230

  Basis Set: AUG-CC-PVTZ
    Blend: AUG-CC-PVTZ
  Basis Set: (AUG-CC-PVTZ AUX)
    Blend: AUG-CC-PVTZ-JKFIT
	 Reference Energy          =    -905.2453393555035746 [Eh]
	 Singles Energy            =      -0.0000000000000000 [Eh]
	 Same-Spin Energy          =      -0.5988707698773675 [Eh]
	 Opposite-Spin Energy      =      -1.7747662834358522 [Eh]
	 Correlation Energy        =      -2.3736370533132196 [Eh]
	 Total Energy              =    -907.6189764088168204 [Eh]

	 ================> DF-SCS-MP2 Energies <==================
	-----------------------------------------------------------
	 SCS Same-Spin Scale       =       0.3333333333333333 [-]
	 SCS Opposite-Spin Scale   =       1.2000000000000000 [-]
	 SCS Same-Spin Energy      =      -0.1996235899591225 [Eh]
	 SCS Opposite-Spin Energy  =      -2.1297195401230224 [Eh]
	 SCS Correlation Energy    =      -2.3293431300821448 [Eh]
	 SCS Total Energy          =    -907.5746824855857540 [Eh]
	-----------------------------------------------------------

  Dipole Moment: [D]
     X:    -2.8382      Y:     1.6869      Z:     3.6748     Total:     4.9402

*** Psi4 exiting successfully. Buy a developer a beer!
