                               Psi4 1.4a3.dev225

  ==> Input File <==

--------------------------------------------------------------------------
#psi4
#
memory 32 gb

molecule  {
0 1
  S        0.7637890    -0.7221230    -0.3122950
  O        0.7428910    -1.8740890     0.5977740
  O        1.1390870    -0.8496890    -1.7151490
  N        1.7366500     0.4402300     0.3626080
  N       -1.8489830    -0.7837230     0.4594430
  N       -1.3270270     1.0745880    -0.6709160
  C       -0.8625818    -0.0932589    -0.1995712
  C        1.4606880     0.7318840     1.7727460
  C        1.9603790     1.6404280    -0.4583390
  C       -2.9965950    -0.0375860     0.3980590
  C       -2.6480900     1.1053220    -0.2992680
  H        1.3484140    -0.2039780     2.3191610
  H        0.5624770     1.3529910     1.8963580
  H        2.3234150     1.2701900     2.1711160
  H        2.1708410     1.3362470    -1.4821670
  H        2.8360500     2.1503740    -0.0502520
  H        1.0944390     2.3121220    -0.4419640
  H       -1.7008040    -1.6902470     0.8932800
  H       -3.9262080    -0.3702980     0.8362390
  H       -3.2806590     1.9452040    -0.5535070
units angstrom
no_reorient  #important for SAPT in psi4, default
symmetry c1  #important for SAPT in psi4, default
}

set PROPERTIES_ORIGIN ["COM"]
properties('MP2/aug-cc-pvtz', properties = ['dipole'])
--------------------------------------------------------------------------

    Molecular point group: c1
  Charge       = 0
  Multiplicity = 1
  Basis Set: AUG-CC-PVTZ
    Blend: AUG-CC-PVTZ
  Basis Set: (AUG-CC-PVTZ AUX)
    Blend: AUG-CC-PVTZ-JKFIT

    Orbital Energies [Eh]
    ---------------------

    Doubly Occupied:

       1A    -92.215954     2A    -20.558355     3A    -20.555717
       4A    -15.656143     5A    -15.611107     6A    -15.588549
       7A    -11.337587     8A    -11.294520     9A    -11.275104
      10A    -11.273979    11A    -11.266015    12A     -9.180629
      13A     -6.865885    14A     -6.865471    15A     -6.865021
      16A     -1.464932    17A     -1.365830    18A     -1.345391
      19A     -1.258008    20A     -1.195012    21A     -1.052100
      22A     -0.981595    23A     -0.961037    24A     -0.879836
      25A     -0.839837    26A     -0.815381    27A     -0.752981
      28A     -0.711009    29A     -0.677745    30A     -0.668364
      31A     -0.643024    32A     -0.631317    33A     -0.623584
      34A     -0.616969    35A     -0.608610    36A     -0.577108
      37A     -0.570962    38A     -0.541828    39A     -0.514501
      40A     -0.507980    41A     -0.484517    42A     -0.479944
      43A     -0.471856    44A     -0.427927    45A     -0.418580
      46A     -0.345731

  @DF-RHF Final Energy:  -905.30379848123084

   => Energetics <=

    Nuclear Repulsion Energy =            797.5962772487388293
    One-Electron Energy =               -2826.1130895207861613
    Two-Electron Energy =                1123.2130137908166034
    Total Energy =                       -905.3037984812308423
  Basis Set: (AUG-CC-PVTZ AUX)
    Blend: AUG-CC-PVTZ-RI
    Molecular point group: c1

    Geometry (in Angstrom), charge = 0, multiplicity = 1:

       Center              X                  Y                   Z               Mass
    ------------   -----------------  -----------------  -----------------  -----------------
         S            0.770808645603    -0.675909344578    -0.280615851665    31.972071174400
         O            0.749910645603    -1.827875344578     0.629453148335    15.994914619570
         O            1.146106645603    -0.803475344578    -1.683469851665    15.994914619570
         N            1.743669645603     0.486443655422     0.394287148335    14.003074004430
         N           -1.841963354397    -0.737509344578     0.491122148335    14.003074004430
         N           -1.320007354397     1.120801655422    -0.639236851665    14.003074004430
         C           -0.855562154397    -0.047045244578    -0.167892051665    12.000000000000
         C            1.467707645603     0.778097655422     1.804425148335    12.000000000000
         C            1.967398645603     1.686641655422    -0.426659851665    12.000000000000
         C           -2.989575354397     0.008627655422     0.429738148335    12.000000000000
         C           -2.641070354397     1.151535655422    -0.267588851665    12.000000000000
         H            1.355433645603    -0.157764344578     2.350840148335     1.007825032230
         H            0.569496645603     1.399204655422     1.928037148335     1.007825032230
         H            2.330434645603     1.316403655422     2.202795148335     1.007825032230
         H            2.177860645603     1.382460655422    -1.450487851665     1.007825032230
         H            2.843069645603     2.196587655422    -0.018572851665     1.007825032230
         H            1.101458645603     2.358335655422    -0.410284851665     1.007825032230
         H           -1.693784354397    -1.644033344578     0.924959148335     1.007825032230
         H           -3.919188354397    -0.324084344578     0.867918148335     1.007825032230
         H           -3.273639354397     1.991417655422    -0.521827851665     1.007825032230

  Basis Set: AUG-CC-PVTZ
    Blend: AUG-CC-PVTZ
  Basis Set: (AUG-CC-PVTZ AUX)
    Blend: AUG-CC-PVTZ-JKFIT
	 Reference Energy          =    -905.3037984812308423 [Eh]
	 Singles Energy            =      -0.0000000000000000 [Eh]
	 Same-Spin Energy          =      -0.5980285466252822 [Eh]
	 Opposite-Spin Energy      =      -1.7763744886070822 [Eh]
	 Correlation Energy        =      -2.3744030352323646 [Eh]
	 Total Energy              =    -907.6782015164632185 [Eh]

	 ================> DF-SCS-MP2 Energies <==================
	-----------------------------------------------------------
	 SCS Same-Spin Scale       =       0.3333333333333333 [-]
	 SCS Opposite-Spin Scale   =       1.2000000000000000 [-]
	 SCS Same-Spin Energy      =      -0.1993428488750940 [Eh]
	 SCS Opposite-Spin Energy  =      -2.1316493863284984 [Eh]
	 SCS Correlation Energy    =      -2.3309922352035923 [Eh]
	 SCS Total Energy          =    -907.6347907164343951 [Eh]
	-----------------------------------------------------------

  Dipole Moment: [D]
     X:    -2.7244      Y:     1.9015      Z:     3.5743     Total:     4.8799

*** Psi4 exiting successfully. Buy a developer a beer!
