                               Psi4 1.3.2 release

  ==> Input File <==

--------------------------------------------------------------------------
#psi4
#
memory 32 gb

molecule  {
0 1
  S        0.7637890    -0.7221230    -0.3122950
  O        0.7428910    -1.8740890     0.5977740
  O        1.1390870    -0.8496890    -1.7151490
  N        1.7366500     0.4402300     0.3626080
  N       -1.8489830    -0.7837230     0.4594430
  N       -1.3270270     1.0745880    -0.6709160
  C       -0.9458588    -0.0182953    -0.2146712
  C        1.4606880     0.7318840     1.7727460
  C        1.9603790     1.6404280    -0.4583390
  C       -2.9965950    -0.0375860     0.3980590
  C       -2.6480900     1.1053220    -0.2992680
  H        1.3484140    -0.2039780     2.3191610
  H        0.5624770     1.3529910     1.8963580
  H        2.3234150     1.2701900     2.1711160
  H        2.1708410     1.3362470    -1.4821670
  H        2.8360500     2.1503740    -0.0502520
  H        1.0944390     2.3121220    -0.4419640
  H       -1.7008040    -1.6902470     0.8932800
  H       -3.9262080    -0.3702980     0.8362390
  H       -3.2806590     1.9452040    -0.5535070
units angstrom
no_reorient  #important for SAPT in psi4, default
symmetry c1  #important for SAPT in psi4, default
}

set PROPERTIES_ORIGIN ["COM"]
properties('MP2/aug-cc-pvtz', properties = ['dipole'])
--------------------------------------------------------------------------

    Molecular point group: c1
  Charge       = 0
  Multiplicity = 1
  Basis Set: AUG-CC-PVTZ
    Blend: AUG-CC-PVTZ
  Basis Set: (AUG-CC-PVTZ AUX)
    Blend: AUG-CC-PVTZ-JKFIT

    Orbital Energies [Eh]
    ---------------------

    Doubly Occupied:

       1A    -92.212515     2A    -20.559669     3A    -20.554492
       4A    -15.646969     5A    -15.609902     6A    -15.580662
       7A    -11.337573     8A    -11.291982     9A    -11.275285
      10A    -11.271906    11A    -11.266295    12A     -9.176847
      13A     -6.861967    14A     -6.861413    15A     -6.861228
      16A     -1.461134    17A     -1.386047    18A     -1.344446
      19A     -1.256917    20A     -1.220652    21A     -1.041741
      22A     -0.981562    23A     -0.956053    24A     -0.866984
      25A     -0.844884    26A     -0.822544    27A     -0.752165
      28A     -0.708881    29A     -0.675274    30A     -0.666675
      31A     -0.645317    32A     -0.637095    33A     -0.626532
      34A     -0.616284    35A     -0.609969    36A     -0.577068
      37A     -0.571389    38A     -0.541834    39A     -0.513333
      40A     -0.506810    41A     -0.497242    42A     -0.479310
      43A     -0.463608    44A     -0.441592    45A     -0.412128
      46A     -0.348013

  @DF-RHF Final Energy:  -905.30052651115807

   => Energetics <=

    Nuclear Repulsion Energy =            797.1061673796165223
    One-Electron Energy =               -2825.1290149841656785
    Two-Electron Energy =                1122.7223210933909741
    Total Energy =                       -905.3005265111580684
  Basis Set: (AUG-CC-PVTZ AUX)
    Blend: AUG-CC-PVTZ-RI
    Molecular point group: c1

    Geometry (in Angstrom), charge = 0, multiplicity = 1:

       Center              X                  Y                   Z               Mass
    ------------   -----------------  -----------------  -----------------  -----------------
         S            0.776517713039    -0.681048485609    -0.279580668862    31.972071174400
         O            0.755619713039    -1.833014485609     0.630488331138    15.994914619570
         O            1.151815713039    -0.808614485609    -1.682434668862    15.994914619570
         N            1.749378713039     0.481304514391     0.395322331138    14.003074004430
         N           -1.836254286961    -0.742648485609     0.492157331138    14.003074004430
         N           -1.314298286961     1.115662514391    -0.638201668862    14.003074004430
         C           -0.933130086961     0.022779214391    -0.181956868862    12.000000000000
         C            1.473416713039     0.772958514391     1.805460331138    12.000000000000
         C            1.973107713039     1.681502514391    -0.425624668862    12.000000000000
         C           -2.983866286961     0.003488514391     0.430773331138    12.000000000000
         C           -2.635361286961     1.146396514391    -0.266553668862    12.000000000000
         H            1.361142713039    -0.162903485609     2.351875331138     1.007825032230
         H            0.575205713039     1.394065514391     1.929072331138     1.007825032230
         H            2.336143713039     1.311264514391     2.203830331138     1.007825032230
         H            2.183569713039     1.377321514391    -1.449452668862     1.007825032230
         H            2.848778713039     2.191448514391    -0.017537668862     1.007825032230
         H            1.107167713039     2.353196514391    -0.409249668862     1.007825032230
         H           -1.688075286961    -1.649172485609     0.925994331138     1.007825032230
         H           -3.913479286961    -0.329223485609     0.868953331138     1.007825032230
         H           -3.267930286961     1.986278514391    -0.520792668862     1.007825032230

  Basis Set: AUG-CC-PVTZ
    Blend: AUG-CC-PVTZ
  Basis Set: (AUG-CC-PVTZ AUX)
    Blend: AUG-CC-PVTZ-JKFIT
	 Reference Energy          =    -905.3005265111580684 [Eh]
	 Singles Energy            =      -0.0000000000000000 [Eh]
	 Same-Spin Energy          =      -0.5951870720575146 [Eh]
	 Opposite-Spin Energy      =      -1.7721075548469085 [Eh]
	 Correlation Energy        =      -2.3672946269044233 [Eh]
	 Total Energy              =    -907.6678211380624361 [Eh]

	 ================> DF-SCS-MP2 Energies <==================
	-----------------------------------------------------------
	 SCS Same-Spin Scale       =       0.3333333333333333 [-]
	 SCS Opposite-Spin Scale   =       1.2000000000000000 [-]
	 SCS Same-Spin Energy      =      -0.1983956906858382 [Eh]
	 SCS Opposite-Spin Energy  =      -2.1265290658162903 [Eh]
	 SCS Correlation Energy    =      -2.3249247565021287 [Eh]
	 SCS Total Energy          =    -907.6254512676601962 [Eh]
	-----------------------------------------------------------

  Dipole Moment: [D]
     X:    -2.5459      Y:     1.9227      Z:     3.5068     Total:     4.7409

*** Psi4 exiting successfully. Buy a developer a beer!
