                               Psi4 1.3.2 release

  ==> Input File <==

--------------------------------------------------------------------------
#psi4
#
memory 32 gb

molecule  {
0 1
  S        0.7637890    -0.7221230    -0.3122950
  O        0.8412175    -1.8902340     0.5738254
  O        1.1390870    -0.8496890    -1.7151490
  N        1.7366500     0.4402300     0.3626080
  N       -1.8489830    -0.7837230     0.4594430
  N       -1.3270270     1.0745880    -0.6709160
  C       -0.8811970    -0.0860610    -0.1982810
  C        1.4606880     0.7318840     1.7727460
  C        1.9603790     1.6404280    -0.4583390
  C       -2.9965950    -0.0375860     0.3980590
  C       -2.6480900     1.1053220    -0.2992680
  H        1.3484140    -0.2039780     2.3191610
  H        0.5624770     1.3529910     1.8963580
  H        2.3234150     1.2701900     2.1711160
  H        2.1708410     1.3362470    -1.4821670
  H        2.8360500     2.1503740    -0.0502520
  H        1.0944390     2.3121220    -0.4419640
  H       -1.7008040    -1.6902470     0.8932800
  H       -3.9262080    -0.3702980     0.8362390
  H       -3.2806590     1.9452040    -0.5535070
units angstrom
no_reorient  #important for SAPT in psi4, default
symmetry c1  #important for SAPT in psi4, default
}

set PROPERTIES_ORIGIN ["COM"]
properties('MP2/aug-cc-pvtz', properties = ['dipole'])
--------------------------------------------------------------------------

    Molecular point group: c1
  Charge       = 0
  Multiplicity = 1
  Basis Set: AUG-CC-PVTZ
    Blend: AUG-CC-PVTZ
  Basis Set: (AUG-CC-PVTZ AUX)
    Blend: AUG-CC-PVTZ-JKFIT

    Orbital Energies [Eh]
    ---------------------

    Doubly Occupied:

       1A    -92.214282     2A    -20.556879     3A    -20.551993
       4A    -15.659022     5A    -15.608750     6A    -15.590232
       7A    -11.342229     8A    -11.296138     9A    -11.276565
      10A    -11.274573    11A    -11.264543    12A     -9.178996
      13A     -6.864226    14A     -6.863724    15A     -6.863413
      16A     -1.462608    17A     -1.373442    18A     -1.341125
      19A     -1.256101    20A     -1.202154    21A     -1.053884
      22A     -0.980587    23A     -0.959741    24A     -0.878813
      25A     -0.843935    26A     -0.821392    27A     -0.751607
      28A     -0.709117    29A     -0.678002    30A     -0.666128
      31A     -0.644120    32A     -0.635227    33A     -0.626662
      34A     -0.617798    35A     -0.608326    36A     -0.576488
      37A     -0.570125    38A     -0.540606    39A     -0.512760
      40A     -0.504271    41A     -0.487098    42A     -0.475974
      43A     -0.472400    44A     -0.432368    45A     -0.417080
      46A     -0.348958

  @DF-RHF Final Energy:  -905.30506322787153

   => Energetics <=

    Nuclear Repulsion Energy =            796.7258154691080563
    One-Electron Energy =               -2824.3528373328827001
    Two-Electron Energy =                1122.3219586359032292
    Total Energy =                       -905.3050632278714147
  Basis Set: (AUG-CC-PVTZ AUX)
    Blend: AUG-CC-PVTZ-RI
    Molecular point group: c1

    Geometry (in Angstrom), charge = 0, multiplicity = 1:

       Center              X                  Y                   Z               Mass
    ------------   -----------------  -----------------  -----------------  -----------------
         S            0.763099952496    -0.674927502845    -0.278515930720    31.972071174400
         O            0.840528452496    -1.843038502845     0.607604469280    15.994914619570
         O            1.138397952496    -0.802493502845    -1.681369930720    15.994914619570
         N            1.735960952496     0.487425497155     0.396387069280    14.003074004430
         N           -1.849672047504    -0.736527502845     0.493222069280    14.003074004430
         N           -1.327716047504     1.121783497155    -0.637136930720    14.003074004430
         C           -0.881886047504    -0.038865502845    -0.164501930720    12.000000000000
         C            1.459998952496     0.779079497155     1.806525069280    12.000000000000
         C            1.959689952496     1.687623497155    -0.424559930720    12.000000000000
         C           -2.997284047504     0.009609497155     0.431838069280    12.000000000000
         C           -2.648779047504     1.152517497155    -0.265488930720    12.000000000000
         H            1.347724952496    -0.156782502845     2.352940069280     1.007825032230
         H            0.561787952496     1.400186497155     1.930137069280     1.007825032230
         H            2.322725952496     1.317385497155     2.204895069280     1.007825032230
         H            2.170151952496     1.383442497155    -1.448387930720     1.007825032230
         H            2.835360952496     2.197569497155    -0.016472930720     1.007825032230
         H            1.093749952496     2.359317497155    -0.408184930720     1.007825032230
         H           -1.701493047504    -1.643051502845     0.927059069280     1.007825032230
         H           -3.926897047504    -0.323102502845     0.870018069280     1.007825032230
         H           -3.281348047504     1.992399497155    -0.519727930720     1.007825032230

  Basis Set: AUG-CC-PVTZ
    Blend: AUG-CC-PVTZ
  Basis Set: (AUG-CC-PVTZ AUX)
    Blend: AUG-CC-PVTZ-JKFIT
	 Reference Energy          =    -905.3050632278715284 [Eh]
	 Singles Energy            =      -0.0000000000000000 [Eh]
	 Same-Spin Energy          =      -0.5973689438676850 [Eh]
	 Opposite-Spin Energy      =      -1.7753206703060016 [Eh]
	 Correlation Energy        =      -2.3726896141736864 [Eh]
	 Total Energy              =    -907.6777528420452654 [Eh]

	 ================> DF-SCS-MP2 Energies <==================
	-----------------------------------------------------------
	 SCS Same-Spin Scale       =       0.3333333333333333 [-]
	 SCS Opposite-Spin Scale   =       1.2000000000000000 [-]
	 SCS Same-Spin Energy      =      -0.1991229812892283 [Eh]
	 SCS Opposite-Spin Energy  =      -2.1303848043672020 [Eh]
	 SCS Correlation Energy    =      -2.3295077856564301 [Eh]
	 SCS Total Energy          =    -907.6345710135279887 [Eh]
	-----------------------------------------------------------

  Dipole Moment: [D]
     X:    -3.0081      Y:     1.9389      Z:     3.6289     Total:     5.0968

*** Psi4 exiting successfully. Buy a developer a beer!
