                               Psi4 1.3.2 release

  ==> Input File <==

--------------------------------------------------------------------------
#psi4
#
memory 32 gb

molecule  {
0 1
  S        0.7637890    -0.7221230    -0.3122950
  O        0.7428910    -1.8740890     0.5977740
  O        1.1390870    -0.8496890    -1.7151490
  N        1.7366500     0.4402300     0.3626080
  N       -1.8489830    -0.7837230     0.4594430
  N       -1.3270270     1.0745880    -0.6709160
  C       -0.8811970    -0.0860610    -0.1982810
  C        1.4606880     0.7318840     1.7727460
  C        1.9603790     1.6404280    -0.4583390
  C       -2.9965950    -0.0375860     0.3980590
  C       -2.7443291     1.1075610    -0.2721935
  H        1.3484140    -0.2039780     2.3191610
  H        0.5624770     1.3529910     1.8963580
  H        2.3234150     1.2701900     2.1711160
  H        2.1708410     1.3362470    -1.4821670
  H        2.8360500     2.1503740    -0.0502520
  H        1.0944390     2.3121220    -0.4419640
  H       -1.7008040    -1.6902470     0.8932800
  H       -3.9262080    -0.3702980     0.8362390
  H       -3.2806590     1.9452040    -0.5535070
units angstrom
no_reorient  #important for SAPT in psi4, default
symmetry c1  #important for SAPT in psi4, default
}

set PROPERTIES_ORIGIN ["COM"]
properties('MP2/aug-cc-pvtz', properties = ['dipole'])
--------------------------------------------------------------------------

    Molecular point group: c1
  Charge       = 0
  Multiplicity = 1
  Basis Set: AUG-CC-PVTZ
    Blend: AUG-CC-PVTZ
  Basis Set: (AUG-CC-PVTZ AUX)
    Blend: AUG-CC-PVTZ-JKFIT

    Orbital Energies [Eh]
    ---------------------

    Doubly Occupied:

       1A    -92.217001     2A    -20.559670     3A    -20.557022
       4A    -15.648969     5A    -15.612190     6A    -15.588471
       7A    -11.340292     8A    -11.294352     9A    -11.275536
      10A    -11.272501    11A    -11.266081    12A     -9.181599
      13A     -6.866820    14A     -6.866399    15A     -6.865970
      16A     -1.465311    17A     -1.360624    18A     -1.345985
      19A     -1.258625    20A     -1.178232    21A     -1.055881
      22A     -0.981955    23A     -0.962775    24A     -0.877117
      25A     -0.840350    26A     -0.815222    27A     -0.752664
      28A     -0.710684    29A     -0.676463    30A     -0.668372
      31A     -0.645373    32A     -0.639741    33A     -0.622871
      34A     -0.616051    35A     -0.602228    36A     -0.577319
      37A     -0.571122    38A     -0.542167    39A     -0.515087
      40A     -0.508646    41A     -0.486803    42A     -0.480863
      43A     -0.464546    44A     -0.419731    45A     -0.413005
      46A     -0.358509

  @DF-RHF Final Energy:  -905.29657031708552

   => Energetics <=

    Nuclear Repulsion Energy =            795.6239877154270062
    One-Electron Energy =               -2822.1867253891987275
    Two-Electron Energy =                1121.2661673566860827
    Total Energy =                       -905.2965703170855249
  Basis Set: (AUG-CC-PVTZ AUX)
    Blend: AUG-CC-PVTZ-RI
    Molecular point group: c1

    Geometry (in Angstrom), charge = 0, multiplicity = 1:

       Center              X                  Y                   Z               Mass
    ------------   -----------------  -----------------  -----------------  -----------------
         S            0.778682499656    -0.676556292696    -0.282560398000    31.972071174400
         O            0.757784499656    -1.828522292696     0.627508602000    15.994914619570
         O            1.153980499656    -0.804122292696    -1.685414398000    15.994914619570
         N            1.751543499656     0.485796707304     0.392342602000    14.003074004430
         N           -1.834089500344    -0.738156292696     0.489177602000    14.003074004430
         N           -1.312133500344     1.120154707304    -0.641181398000    14.003074004430
         C           -0.866303500344    -0.040494292696    -0.168546398000    12.000000000000
         C            1.475581499656     0.777450707304     1.802480602000    12.000000000000
         C            1.975272499656     1.685994707304    -0.428604398000    12.000000000000
         C           -2.981701500344     0.007980707304     0.427793602000    12.000000000000
         C           -2.729435600344     1.153127707304    -0.242458898000    12.000000000000
         H            1.363307499656    -0.158411292696     2.348895602000     1.007825032230
         H            0.577370499656     1.398557707304     1.926092602000     1.007825032230
         H            2.338308499656     1.315756707304     2.200850602000     1.007825032230
         H            2.185734499656     1.381813707304    -1.452432398000     1.007825032230
         H            2.850943499656     2.195940707304    -0.020517398000     1.007825032230
         H            1.109332499656     2.357688707304    -0.412229398000     1.007825032230
         H           -1.685910500344    -1.644680292696     0.923014602000     1.007825032230
         H           -3.911314500344    -0.324731292696     0.865973602000     1.007825032230
         H           -3.265765500344     1.990770707304    -0.523772398000     1.007825032230

  Basis Set: AUG-CC-PVTZ
    Blend: AUG-CC-PVTZ
  Basis Set: (AUG-CC-PVTZ AUX)
    Blend: AUG-CC-PVTZ-JKFIT
	 Reference Energy          =    -905.2965703170855249 [Eh]
	 Singles Energy            =      -0.0000000000000000 [Eh]
	 Same-Spin Energy          =      -0.5964626241042013 [Eh]
	 Opposite-Spin Energy      =      -1.7760397795979816 [Eh]
	 Correlation Energy        =      -2.3725024037021827 [Eh]
	 Total Energy              =    -907.6690727207876535 [Eh]

	 ================> DF-SCS-MP2 Energies <==================
	-----------------------------------------------------------
	 SCS Same-Spin Scale       =       0.3333333333333333 [-]
	 SCS Opposite-Spin Scale   =       1.2000000000000000 [-]
	 SCS Same-Spin Energy      =      -0.1988208747014004 [Eh]
	 SCS Opposite-Spin Energy  =      -2.1312477355175781 [Eh]
	 SCS Correlation Energy    =      -2.3300686102189783 [Eh]
	 SCS Total Energy          =    -907.6266389273044979 [Eh]
	-----------------------------------------------------------

  Dipole Moment: [D]
     X:    -2.6475      Y:     1.9015      Z:     3.5682     Total:     4.8329

*** Psi4 exiting successfully. Buy a developer a beer!
