                               Psi4 1.3.2 release

  ==> Input File <==

--------------------------------------------------------------------------
#psi4
#
memory 32 gb

molecule  {
0 1
  S        0.7637890    -0.7221230    -0.3122950
  O        0.7353352    -1.8586516     0.6167803
  O        1.1390870    -0.8496890    -1.7151490
  N        1.7366500     0.4402300     0.3626080
  N       -1.8489830    -0.7837230     0.4594430
  N       -1.3270270     1.0745880    -0.6709160
  C       -0.8811970    -0.0860610    -0.1982810
  C        1.4606880     0.7318840     1.7727460
  C        1.9603790     1.6404280    -0.4583390
  C       -2.9965950    -0.0375860     0.3980590
  C       -2.6480900     1.1053220    -0.2992680
  H        1.3484140    -0.2039780     2.3191610
  H        0.5624770     1.3529910     1.8963580
  H        2.3234150     1.2701900     2.1711160
  H        2.1708410     1.3362470    -1.4821670
  H        2.8360500     2.1503740    -0.0502520
  H        1.0944390     2.3121220    -0.4419640
  H       -1.7008040    -1.6902470     0.8932800
  H       -3.9262080    -0.3702980     0.8362390
  H       -3.2806590     1.9452040    -0.5535070
units angstrom
no_reorient  #important for SAPT in psi4, default
symmetry c1  #important for SAPT in psi4, default
}

set PROPERTIES_ORIGIN ["COM"]
properties('MP2/aug-cc-pvtz', properties = ['dipole'])
--------------------------------------------------------------------------

    Molecular point group: c1
  Charge       = 0
  Multiplicity = 1
  Basis Set: AUG-CC-PVTZ
    Blend: AUG-CC-PVTZ
  Basis Set: (AUG-CC-PVTZ AUX)
    Blend: AUG-CC-PVTZ-JKFIT

    Orbital Energies [Eh]
    ---------------------

    Doubly Occupied:

       1A    -92.216177     2A    -20.558684     3A    -20.557566
       4A    -15.654680     5A    -15.610873     6A    -15.586226
       7A    -11.336973     8A    -11.292765     9A    -11.274669
      10A    -11.273143    11A    -11.265819    12A     -9.180658
      13A     -6.865875    14A     -6.865504    15A     -6.865035
      16A     -1.464868    17A     -1.369665    18A     -1.346932
      19A     -1.257436    20A     -1.198276    21A     -1.049480
      22A     -0.981292    23A     -0.959588    24A     -0.876869
      25A     -0.840186    26A     -0.818010    27A     -0.752950
      28A     -0.711047    29A     -0.676637    30A     -0.668558
      31A     -0.642322    32A     -0.632272    33A     -0.624840
      34A     -0.616938    35A     -0.609059    36A     -0.576655
      37A     -0.570771    38A     -0.541676    39A     -0.514220
      40A     -0.509179    41A     -0.485146    42A     -0.481215
      43A     -0.471189    44A     -0.428950    45A     -0.417680
      46A     -0.345719

  @DF-RHF Final Energy:  -905.30554038632511

   => Energetics <=

    Nuclear Repulsion Energy =            797.6986096752127651
    One-Electron Energy =               -2826.3197546595797576
    Two-Electron Energy =                1123.3156045980420004
    Total Energy =                       -905.3055403863249921
  Basis Set: (AUG-CC-PVTZ AUX)
    Blend: AUG-CC-PVTZ-RI
    Molecular point group: c1

    Geometry (in Angstrom), charge = 0, multiplicity = 1:

       Center              X                  Y                   Z               Mass
    ------------   -----------------  -----------------  -----------------  -----------------
         S            0.772775245992    -0.677813433631    -0.282441055738    31.972071174400
         O            0.744321445992    -1.814342033631     0.646634244262    15.994914619570
         O            1.148073245992    -0.805379433631    -1.685295055738    15.994914619570
         N            1.745636245992     0.484539566369     0.392461944262    14.003074004430
         N           -1.839996754008    -0.739413433631     0.489296944262    14.003074004430
         N           -1.318040754008     1.118897566369    -0.641062055738    14.003074004430
         C           -0.872210754008    -0.041751433631    -0.168427055738    12.000000000000
         C            1.469674245992     0.776193566369     1.802599944262    12.000000000000
         C            1.969365245992     1.684737566369    -0.428485055738    12.000000000000
         C           -2.987608754008     0.006723566369     0.427912944262    12.000000000000
         C           -2.639103754008     1.149631566369    -0.269414055738    12.000000000000
         H            1.357400245992    -0.159668433631     2.349014944262     1.007825032230
         H            0.571463245992     1.397300566369     1.926211944262     1.007825032230
         H            2.332401245992     1.314499566369     2.200969944262     1.007825032230
         H            2.179827245992     1.380556566369    -1.452313055738     1.007825032230
         H            2.845036245992     2.194683566369    -0.020398055738     1.007825032230
         H            1.103425245992     2.356431566369    -0.412110055738     1.007825032230
         H           -1.691817754008    -1.645937433631     0.923133944262     1.007825032230
         H           -3.917221754008    -0.325988433631     0.866092944262     1.007825032230
         H           -3.271672754008     1.989513566369    -0.523653055738     1.007825032230

  Basis Set: AUG-CC-PVTZ
    Blend: AUG-CC-PVTZ
  Basis Set: (AUG-CC-PVTZ AUX)
    Blend: AUG-CC-PVTZ-JKFIT
	 Reference Energy          =    -905.3055403863251058 [Eh]
	 Singles Energy            =      -0.0000000000000000 [Eh]
	 Same-Spin Energy          =      -0.5975733014749174 [Eh]
	 Opposite-Spin Energy      =      -1.7756220138632257 [Eh]
	 Correlation Energy        =      -2.3731953153381431 [Eh]
	 Total Energy              =    -907.6787357016632996 [Eh]

	 ================> DF-SCS-MP2 Energies <==================
	-----------------------------------------------------------
	 SCS Same-Spin Scale       =       0.3333333333333333 [-]
	 SCS Opposite-Spin Scale   =       1.2000000000000000 [-]
	 SCS Same-Spin Energy      =      -0.1991911004916391 [Eh]
	 SCS Opposite-Spin Energy  =      -2.1307464166358709 [Eh]
	 SCS Correlation Energy    =      -2.3299375171275098 [Eh]
	 SCS Total Energy          =    -907.6354779034526246 [Eh]
	-----------------------------------------------------------

  Dipole Moment: [D]
     X:    -2.6531      Y:     1.8458      Z:     3.5211     Total:     4.7796

*** Psi4 exiting successfully. Buy a developer a beer!
