                               Psi4 1.3.2 release

  ==> Input File <==

--------------------------------------------------------------------------
#psi4
#
memory 32 gb

molecule  {
0 1
  S        0.7637890    -0.7221230    -0.3122950
  O        0.7428910    -1.8740890     0.5977740
  O        1.1390870    -0.8496890    -1.7151490
  N        1.7366500     0.4402300     0.3626080
  N       -1.8489830    -0.7837230     0.4594430
  N       -1.3327078     1.1174489    -0.6915648
  C       -0.8811970    -0.0860610    -0.1982810
  C        1.4606880     0.7318840     1.7727460
  C        1.9603790     1.6404280    -0.4583390
  C       -2.9965950    -0.0375860     0.3980590
  C       -2.6480900     1.1053220    -0.2992680
  H        1.3484140    -0.2039780     2.3191610
  H        0.5624770     1.3529910     1.8963580
  H        2.3234150     1.2701900     2.1711160
  H        2.1708410     1.3362470    -1.4821670
  H        2.8360500     2.1503740    -0.0502520
  H        1.0944390     2.3121220    -0.4419640
  H       -1.7008040    -1.6902470     0.8932800
  H       -3.9262080    -0.3702980     0.8362390
  H       -3.2806590     1.9452040    -0.5535070
units angstrom
no_reorient  #important for SAPT in psi4, default
symmetry c1  #important for SAPT in psi4, default
}

set PROPERTIES_ORIGIN ["COM"]
properties('MP2/aug-cc-pvtz', properties = ['dipole'])
--------------------------------------------------------------------------

    Molecular point group: c1
  Charge       = 0
  Multiplicity = 1
  Basis Set: AUG-CC-PVTZ
    Blend: AUG-CC-PVTZ
  Basis Set: (AUG-CC-PVTZ AUX)
    Blend: AUG-CC-PVTZ-JKFIT

    Orbital Energies [Eh]
    ---------------------

    Doubly Occupied:

       1A    -92.216319     2A    -20.558832     3A    -20.556002
       4A    -15.661119     5A    -15.611392     6A    -15.593477
       7A    -11.342761     8A    -11.292622     9A    -11.275242
      10A    -11.274770    11A    -11.265999    12A     -9.180738
      13A     -6.865963    14A     -6.865566    15A     -6.865139
      16A     -1.464406    17A     -1.365346    18A     -1.345422
      19A     -1.258027    20A     -1.195194    21A     -1.047616
      22A     -0.981680    23A     -0.959823    24A     -0.879597
      25A     -0.837534    26A     -0.819389    27A     -0.752107
      28A     -0.710602    29A     -0.675190    30A     -0.668278
      31A     -0.641828    32A     -0.633851    33A     -0.623800
      34A     -0.615200    35A     -0.604496    36A     -0.576995
      37A     -0.571068    38A     -0.541935    39A     -0.513654
      40A     -0.508111    41A     -0.483785    42A     -0.480285
      43A     -0.476560    44A     -0.428045    45A     -0.418946
      46A     -0.343299

  @DF-RHF Final Energy:  -905.29920090201767

   => Energetics <=

    Nuclear Repulsion Energy =            796.0537514654026836
    One-Electron Energy =               -2823.0098855837295559
    Two-Electron Energy =                1121.6569332163091985
    Total Energy =                       -905.2992009020176738
  Basis Set: (AUG-CC-PVTZ AUX)
    Blend: AUG-CC-PVTZ-RI
    Molecular point group: c1

    Geometry (in Angstrom), charge = 0, multiplicity = 1:

       Center              X                  Y                   Z               Mass
    ------------   -----------------  -----------------  -----------------  -----------------
         S            0.772539269370    -0.679831608540    -0.279052426992    31.972071174400
         O            0.751641269370    -1.831797608540     0.631016573008    15.994914619570
         O            1.147837269370    -0.807397608540    -1.681906426992    15.994914619570
         N            1.745400269370     0.482521391460     0.395850573008    14.003074004430
         N           -1.840232730630    -0.741431608540     0.492685573008    14.003074004430
         N           -1.323957530630     1.159740291460    -0.658322226992    14.003074004430
         C           -0.872446730630    -0.043769608540    -0.165038426992    12.000000000000
         C            1.469438269370     0.774175391460     1.805988573008    12.000000000000
         C            1.969129269370     1.682719391460    -0.425096426992    12.000000000000
         C           -2.987844730630     0.004705391460     0.431301573008    12.000000000000
         C           -2.639339730630     1.147613391460    -0.266025426992    12.000000000000
         H            1.357164269370    -0.161686608540     2.352403573008     1.007825032230
         H            0.571227269370     1.395282391460     1.929600573008     1.007825032230
         H            2.332165269370     1.312481391460     2.204358573008     1.007825032230
         H            2.179591269370     1.378538391460    -1.448924426992     1.007825032230
         H            2.844800269370     2.192665391460    -0.017009426992     1.007825032230
         H            1.103189269370     2.354413391460    -0.408721426992     1.007825032230
         H           -1.692053730630    -1.647955608540     0.926522573008     1.007825032230
         H           -3.917457730630    -0.328006608540     0.869481573008     1.007825032230
         H           -3.271908730630     1.987495391460    -0.520264426992     1.007825032230

  Basis Set: AUG-CC-PVTZ
    Blend: AUG-CC-PVTZ
  Basis Set: (AUG-CC-PVTZ AUX)
    Blend: AUG-CC-PVTZ-JKFIT
	 Reference Energy          =    -905.2992009020176738 [Eh]
	 Singles Energy            =      -0.0000000000000000 [Eh]
	 Same-Spin Energy          =      -0.5986930310903948 [Eh]
	 Opposite-Spin Energy      =      -1.7780220516484624 [Eh]
	 Correlation Energy        =      -2.3767150827388575 [Eh]
	 Total Energy              =    -907.6759159847565570 [Eh]

	 ================> DF-SCS-MP2 Energies <==================
	-----------------------------------------------------------
	 SCS Same-Spin Scale       =       0.3333333333333333 [-]
	 SCS Opposite-Spin Scale   =       1.2000000000000000 [-]
	 SCS Same-Spin Energy      =      -0.1995643436967983 [Eh]
	 SCS Opposite-Spin Energy  =      -2.1336264619781549 [Eh]
	 SCS Correlation Energy    =      -2.3331908056749531 [Eh]
	 SCS Total Energy          =    -907.6323917076925909 [Eh]
	-----------------------------------------------------------

  Dipole Moment: [D]
     X:    -2.7128      Y:     1.8094      Z:     3.6167     Total:     4.8697

*** Psi4 exiting successfully. Buy a developer a beer!
