                               Psi4 1.3.2 release

  ==> Input File <==

--------------------------------------------------------------------------
#psi4
#
memory 32 gb

molecule  {
0 1
  S        0.7637890    -0.7221230    -0.3122950
  O        0.7428910    -1.8740890     0.5977740
  O        1.1390870    -0.8496890    -1.7151490
  N        1.7366500     0.4402300     0.3626080
  N       -1.9252105    -0.8812184     0.5319296
  N       -1.3270270     1.0745880    -0.6709160
  C       -0.8811970    -0.0860610    -0.1982810
  C        1.4606880     0.7318840     1.7727460
  C        1.9603790     1.6404280    -0.4583390
  C       -2.9965950    -0.0375860     0.3980590
  C       -2.6480900     1.1053220    -0.2992680
  H        1.3484140    -0.2039780     2.3191610
  H        0.5624770     1.3529910     1.8963580
  H        2.3234150     1.2701900     2.1711160
  H        2.1708410     1.3362470    -1.4821670
  H        2.8360500     2.1503740    -0.0502520
  H        1.0944390     2.3121220    -0.4419640
  H       -1.7008040    -1.6902470     0.8932800
  H       -3.9262080    -0.3702980     0.8362390
  H       -3.2806590     1.9452040    -0.5535070
units angstrom
no_reorient  #important for SAPT in psi4, default
symmetry c1  #important for SAPT in psi4, default
}

set PROPERTIES_ORIGIN ["COM"]
properties('MP2/aug-cc-pvtz', properties = ['dipole'])
--------------------------------------------------------------------------

    Molecular point group: c1
  Charge       = 0
  Multiplicity = 1
  Basis Set: AUG-CC-PVTZ
    Blend: AUG-CC-PVTZ
  Basis Set: (AUG-CC-PVTZ AUX)
    Blend: AUG-CC-PVTZ-JKFIT

    Orbital Energies [Eh]
    ---------------------

    Doubly Occupied:

       1A    -92.215303     2A    -20.557167     3A    -20.555283
       4A    -15.646869     5A    -15.611117     6A    -15.604738
       7A    -11.348170     8A    -11.305449     9A    -11.275426
      10A    -11.274943    11A    -11.267012    12A     -9.179683
      13A     -6.864910    14A     -6.864496    15A     -6.864075
      16A     -1.462739    17A     -1.348431    18A     -1.343120
      19A     -1.257870    20A     -1.213327    21A     -1.042393
      22A     -0.981857    23A     -0.963091    24A     -0.893064
      25A     -0.851233    26A     -0.795935    27A     -0.753070
      28A     -0.711083    29A     -0.686063    30A     -0.666736
      31A     -0.649545    32A     -0.624475    33A     -0.620969
      34A     -0.608284    35A     -0.600245    36A     -0.576676
      37A     -0.571412    38A     -0.542093    39A     -0.513041
      40A     -0.507068    41A     -0.491739    42A     -0.479018
      43A     -0.474473    44A     -0.441360    45A     -0.417507
      46A     -0.340940

  @DF-RHF Final Energy:  -905.27449111885812

   => Energetics <=

    Nuclear Repulsion Energy =            793.7126652102765547
    One-Electron Energy =               -2818.2473239145483603
    Two-Electron Energy =                1119.2601675854136829
    Total Energy =                       -905.2744911188581227
  Basis Set: (AUG-CC-PVTZ AUX)
    Blend: AUG-CC-PVTZ-RI
    Molecular point group: c1

    Geometry (in Angstrom), charge = 0, multiplicity = 1:

       Center              X                  Y                   Z               Mass
    ------------   -----------------  -----------------  -----------------  -----------------
         S            0.778182904689    -0.668603304852    -0.286503126073    31.972071174400
         O            0.757284904689    -1.820569304852     0.623565873927    15.994914619570
         O            1.153480904689    -0.796169304852    -1.689357126073    15.994914619570
         N            1.751043904689     0.493749695148     0.388399873927    14.003074004430
         N           -1.910816595311    -0.827698704852     0.557721473927    14.003074004430
         N           -1.312633095311     1.128107695148    -0.645124126073    14.003074004430
         C           -0.866803095311    -0.032541304852    -0.172489126073    12.000000000000
         C            1.475081904689     0.785403695148     1.798537873927    12.000000000000
         C            1.974772904689     1.693947695148    -0.432547126073    12.000000000000
         C           -2.982201095311     0.015933695148     0.423850873927    12.000000000000
         C           -2.633696095311     1.158841695148    -0.273476126073    12.000000000000
         H            1.362807904689    -0.150458304852     2.344952873927     1.007825032230
         H            0.576870904689     1.406510695148     1.922149873927     1.007825032230
         H            2.337808904689     1.323709695148     2.196907873927     1.007825032230
         H            2.185234904689     1.389766695148    -1.456375126073     1.007825032230
         H            2.850443904689     2.203893695148    -0.024460126073     1.007825032230
         H            1.108832904689     2.365641695148    -0.416172126073     1.007825032230
         H           -1.686410095311    -1.636727304852     0.919071873927     1.007825032230
         H           -3.911814095311    -0.316778304852     0.862030873927     1.007825032230
         H           -3.266265095311     1.998723695148    -0.527715126073     1.007825032230

  Basis Set: AUG-CC-PVTZ
    Blend: AUG-CC-PVTZ
  Basis Set: (AUG-CC-PVTZ AUX)
    Blend: AUG-CC-PVTZ-JKFIT
	 Reference Energy          =    -905.2744911188581227 [Eh]
	 Singles Energy            =      -0.0000000000000000 [Eh]
	 Same-Spin Energy          =      -0.5978071297197937 [Eh]
	 Opposite-Spin Energy      =      -1.7785834532705531 [Eh]
	 Correlation Energy        =      -2.3763905829903469 [Eh]
	 Total Energy              =    -907.6508817018484478 [Eh]

	 ================> DF-SCS-MP2 Energies <==================
	-----------------------------------------------------------
	 SCS Same-Spin Scale       =       0.3333333333333333 [-]
	 SCS Opposite-Spin Scale   =       1.2000000000000000 [-]
	 SCS Same-Spin Energy      =      -0.1992690432399312 [Eh]
	 SCS Opposite-Spin Energy  =      -2.1343001439246638 [Eh]
	 SCS Correlation Energy    =      -2.3335691871645952 [Eh]
	 SCS Total Energy          =    -907.6080603060227077 [Eh]
	-----------------------------------------------------------

  Dipole Moment: [D]
     X:    -2.6054      Y:     2.2012      Z:     3.3937     Total:     4.8115

*** Psi4 exiting successfully. Buy a developer a beer!
