                               Psi4 1.3.2 release

  ==> Input File <==

--------------------------------------------------------------------------
#psi4
#
memory 32 gb

molecule  {
0 1
  S        0.8521823    -0.6975125    -0.4597520
  O        0.7428910    -1.8740890     0.5977740
  O        1.1390870    -0.8496890    -1.7151490
  N        1.7366500     0.4402300     0.3626080
  N       -1.8489830    -0.7837230     0.4594430
  N       -1.3270270     1.0745880    -0.6709160
  C       -0.8811970    -0.0860610    -0.1982810
  C        1.4606880     0.7318840     1.7727460
  C        1.9603790     1.6404280    -0.4583390
  C       -2.9965950    -0.0375860     0.3980590
  C       -2.6480900     1.1053220    -0.2992680
  H        1.3484140    -0.2039780     2.3191610
  H        0.5624770     1.3529910     1.8963580
  H        2.3234150     1.2701900     2.1711160
  H        2.1708410     1.3362470    -1.4821670
  H        2.8360500     2.1503740    -0.0502520
  H        1.0944390     2.3121220    -0.4419640
  H       -1.7008040    -1.6902470     0.8932800
  H       -3.9262080    -0.3702980     0.8362390
  H       -3.2806590     1.9452040    -0.5535070
units angstrom
no_reorient  #important for SAPT in psi4, default
symmetry c1  #important for SAPT in psi4, default
}

set PROPERTIES_ORIGIN ["COM"]
properties('MP2/aug-cc-pvtz', properties = ['dipole'])
--------------------------------------------------------------------------

    Molecular point group: c1
  Charge       = 0
  Multiplicity = 1
  Basis Set: AUG-CC-PVTZ
    Blend: AUG-CC-PVTZ
  Basis Set: (AUG-CC-PVTZ AUX)
    Blend: AUG-CC-PVTZ-JKFIT

    Orbital Energies [Eh]
    ---------------------

    Doubly Occupied:

       1A    -92.210397     2A    -20.596028     3A    -20.533034
       4A    -15.643223     5A    -15.612466     6A    -15.573732
       7A    -11.329399     8A    -11.282300     9A    -11.275471
      10A    -11.269834    11A    -11.263316    12A     -9.179846
      13A     -6.866059    14A     -6.863895    15A     -6.863248
      16A     -1.555423    17A     -1.361283    18A     -1.316284
      19A     -1.251455    20A     -1.187330    21A     -1.029736
      22A     -0.984514    23A     -0.956181    24A     -0.862097
      25A     -0.826648    26A     -0.810031    27A     -0.761437
      28A     -0.732752    29A     -0.688544    30A     -0.683839
      31A     -0.651173    32A     -0.627695    33A     -0.620314
      34A     -0.614565    35A     -0.603844    36A     -0.595156
      37A     -0.571663    38A     -0.548142    39A     -0.536855
      40A     -0.509864    41A     -0.470207    42A     -0.464469
      43A     -0.449596    44A     -0.420378    45A     -0.412381
      46A     -0.335476

  @DF-RHF Final Energy:  -905.24964171380475

   => Energetics <=

    Nuclear Repulsion Energy =            796.2300672529169105
    One-Electron Energy =               -2823.3562580164602878
    Two-Electron Energy =                1121.8765490497387418
    Total Energy =                       -905.2496417138047491
  Basis Set: (AUG-CC-PVTZ AUX)
    Blend: AUG-CC-PVTZ-RI
    Molecular point group: c1

    Geometry (in Angstrom), charge = 0, multiplicity = 1:

       Center              X                  Y                   Z               Mass
    ------------   -----------------  -----------------  -----------------  -----------------
         S            0.844332707340    -0.656287508521    -0.401227663420    31.972071174400
         O            0.735041407340    -1.832864008521     0.656298336580    15.994914619570
         O            1.131237407340    -0.808464008521    -1.656624663420    15.994914619570
         N            1.728800407340     0.481454991479     0.421132336580    14.003074004430
         N           -1.856832592660    -0.742498008521     0.517967336580    14.003074004430
         N           -1.334876592660     1.115812991479    -0.612391663420    14.003074004430
         C           -0.889046592660    -0.044836008521    -0.139756663420    12.000000000000
         C            1.452838407340     0.773108991479     1.831270336580    12.000000000000
         C            1.952529407340     1.681652991479    -0.399814663420    12.000000000000
         C           -3.004444592660     0.003638991479     0.456583336580    12.000000000000
         C           -2.655939592660     1.146546991479    -0.240743663420    12.000000000000
         H            1.340564407340    -0.162753008521     2.377685336580     1.007825032230
         H            0.554627407340     1.394215991479     1.954882336580     1.007825032230
         H            2.315565407340     1.311414991479     2.229640336580     1.007825032230
         H            2.162991407340     1.377471991479    -1.423642663420     1.007825032230
         H            2.828200407340     2.191598991479     0.008272336580     1.007825032230
         H            1.086589407340     2.353346991479    -0.383439663420     1.007825032230
         H           -1.708653592660    -1.649022008521     0.951804336580     1.007825032230
         H           -3.934057592660    -0.329073008521     0.894763336580     1.007825032230
         H           -3.288508592660     1.986428991479    -0.494982663420     1.007825032230

  Basis Set: AUG-CC-PVTZ
    Blend: AUG-CC-PVTZ
  Basis Set: (AUG-CC-PVTZ AUX)
    Blend: AUG-CC-PVTZ-JKFIT
	 Reference Energy          =    -905.2496417138047491 [Eh]
	 Singles Energy            =      -0.0000000000000000 [Eh]
	 Same-Spin Energy          =      -0.5951495788861354 [Eh]
	 Opposite-Spin Energy      =      -1.7728404086491922 [Eh]
	 Correlation Energy        =      -2.3679899875353279 [Eh]
	 Total Energy              =    -907.6176317013400876 [Eh]

	 ================> DF-SCS-MP2 Energies <==================
	-----------------------------------------------------------
	 SCS Same-Spin Scale       =       0.3333333333333333 [-]
	 SCS Opposite-Spin Scale   =       1.2000000000000000 [-]
	 SCS Same-Spin Energy      =      -0.1983831929620451 [Eh]
	 SCS Opposite-Spin Energy  =      -2.1274084903790307 [Eh]
	 SCS Correlation Energy    =      -2.3257916833410759 [Eh]
	 SCS Total Energy          =    -907.5754333971458436 [Eh]
	-----------------------------------------------------------

  Dipole Moment: [D]
     X:    -1.6712      Y:     2.0701      Z:     2.3178     Total:     3.5285

*** Psi4 exiting successfully. Buy a developer a beer!
