                               Psi4 1.3.2 release

  ==> Input File <==

--------------------------------------------------------------------------
#psi4
#
memory 32 gb

molecule  {
0 1
  S        0.7550326    -0.7469126    -0.2961623
  O        0.7428910    -1.8740890     0.5977740
  O        1.1390870    -0.8496890    -1.7151490
  N        1.7366500     0.4402300     0.3626080
  N       -1.8489830    -0.7837230     0.4594430
  N       -1.3270270     1.0745880    -0.6709160
  C       -0.8811970    -0.0860610    -0.1982810
  C        1.4606880     0.7318840     1.7727460
  C        1.9603790     1.6404280    -0.4583390
  C       -2.9965950    -0.0375860     0.3980590
  C       -2.6480900     1.1053220    -0.2992680
  H        1.3484140    -0.2039780     2.3191610
  H        0.5624770     1.3529910     1.8963580
  H        2.3234150     1.2701900     2.1711160
  H        2.1708410     1.3362470    -1.4821670
  H        2.8360500     2.1503740    -0.0502520
  H        1.0944390     2.3121220    -0.4419640
  H       -1.7008040    -1.6902470     0.8932800
  H       -3.9262080    -0.3702980     0.8362390
  H       -3.2806590     1.9452040    -0.5535070
units angstrom
no_reorient  #important for SAPT in psi4, default
symmetry c1  #important for SAPT in psi4, default
}

set PROPERTIES_ORIGIN ["COM"]
properties('MP2/aug-cc-pvtz', properties = ['dipole'])
--------------------------------------------------------------------------

    Molecular point group: c1
  Charge       = 0
  Multiplicity = 1
  Basis Set: AUG-CC-PVTZ
    Blend: AUG-CC-PVTZ
  Basis Set: (AUG-CC-PVTZ AUX)
    Blend: AUG-CC-PVTZ-JKFIT

    Orbital Energies [Eh]
    ---------------------

    Doubly Occupied:

       1A    -92.215924     2A    -20.566240     3A    -20.552516
       4A    -15.655703     5A    -15.608502     6A    -15.586984
       7A    -11.337942     8A    -11.293326     9A    -11.274025
      10A    -11.273585    11A    -11.263837    12A     -9.180551
      13A     -6.865746    14A     -6.865457    15A     -6.864902
      16A     -1.471511    17A     -1.370392    18A     -1.349286
      19A     -1.252523    20A     -1.199122    21A     -1.050586
      22A     -0.979277    23A     -0.956820    24A     -0.876116
      25A     -0.841745    26A     -0.818202    27A     -0.753206
      28A     -0.711737    29A     -0.676185    30A     -0.668467
      31A     -0.642940    32A     -0.632559    33A     -0.625192
      34A     -0.618129    35A     -0.609807    36A     -0.577916
      37A     -0.569378    38A     -0.540453    39A     -0.516023
      40A     -0.512602    41A     -0.484567    42A     -0.481645
      43A     -0.470354    44A     -0.429555    45A     -0.414457
      46A     -0.346187

  @DF-RHF Final Energy:  -905.30478994407690

   => Energetics <=

    Nuclear Repulsion Energy =            797.3389422710345116
    One-Electron Energy =               -2825.5831037953057603
    Two-Electron Energy =                1122.9393715801943472
    Total Energy =                       -905.3047899440769015
  Basis Set: (AUG-CC-PVTZ AUX)
    Blend: AUG-CC-PVTZ-RI
    Molecular point group: c1

    Geometry (in Angstrom), charge = 0, multiplicity = 1:

       Center              X                  Y                   Z               Mass
    ------------   -----------------  -----------------  -----------------  -----------------
         S            0.764927806580    -0.696664473535    -0.267518306687    31.972071174400
         O            0.752786206580    -1.823840873535     0.626417993313    15.994914619570
         O            1.148982206580    -0.799440873535    -1.686505006687    15.994914619570
         N            1.746545206580     0.490478126465     0.391251993313    14.003074004430
         N           -1.839087793420    -0.733474873535     0.488086993313    14.003074004430
         N           -1.317131793420     1.124836126465    -0.642272006687    14.003074004430
         C           -0.871301793420    -0.035812873535    -0.169637006687    12.000000000000
         C            1.470583206580     0.782132126465     1.801389993313    12.000000000000
         C            1.970274206580     1.690676126465    -0.429695006687    12.000000000000
         C           -2.986699793420     0.012662126465     0.426702993313    12.000000000000
         C           -2.638194793420     1.155570126465    -0.270624006687    12.000000000000
         H            1.358309206580    -0.153729873535     2.347804993313     1.007825032230
         H            0.572372206580     1.403239126465     1.925001993313     1.007825032230
         H            2.333310206580     1.320438126465     2.199759993313     1.007825032230
         H            2.180736206580     1.386495126465    -1.453523006687     1.007825032230
         H            2.845945206580     2.200622126465    -0.021608006687     1.007825032230
         H            1.104334206580     2.362370126465    -0.413320006687     1.007825032230
         H           -1.690908793420    -1.639998873535     0.921923993313     1.007825032230
         H           -3.916312793420    -0.320049873535     0.864882993313     1.007825032230
         H           -3.270763793420     1.995452126465    -0.524863006687     1.007825032230

  Basis Set: AUG-CC-PVTZ
    Blend: AUG-CC-PVTZ
  Basis Set: (AUG-CC-PVTZ AUX)
    Blend: AUG-CC-PVTZ-JKFIT
	 Reference Energy          =    -905.3047899440769015 [Eh]
	 Singles Energy            =      -0.0000000000000000 [Eh]
	 Same-Spin Energy          =      -0.5973268053603425 [Eh]
	 Opposite-Spin Energy      =      -1.7752763123599935 [Eh]
	 Correlation Energy        =      -2.3726031177203359 [Eh]
	 Total Energy              =    -907.6773930617972610 [Eh]

	 ================> DF-SCS-MP2 Energies <==================
	-----------------------------------------------------------
	 SCS Same-Spin Scale       =       0.3333333333333333 [-]
	 SCS Opposite-Spin Scale   =       1.2000000000000000 [-]
	 SCS Same-Spin Energy      =      -0.1991089351201142 [Eh]
	 SCS Opposite-Spin Energy  =      -2.1303315748319922 [Eh]
	 SCS Correlation Energy    =      -2.3294405099521063 [Eh]
	 SCS Total Energy          =    -907.6342304540289661 [Eh]
	-----------------------------------------------------------

  Dipole Moment: [D]
     X:    -2.7840      Y:     1.6619      Z:     3.6857     Total:     4.9088

*** Psi4 exiting successfully. Buy a developer a beer!
