                               Psi4 1.4a3.dev225

  ==> Input File <==

--------------------------------------------------------------------------
#psi4
#
memory 32 gb

molecule  {
0 1
  S        0.7637890    -0.7221230    -0.3122950
  O        0.7428910    -1.8740890     0.5977740
  O        1.1390870    -0.8496890    -1.7151490
  N        1.7366500     0.4402300     0.3626080
  N       -1.8489830    -0.7837230     0.4594430
  N       -1.3270270     1.0745880    -0.6709160
  C       -0.8811970    -0.0860610    -0.1982810
  C        1.4606880     0.7318840     1.7727460
  C        1.9603790     1.6404280    -0.4583390
  C       -2.9965950    -0.0375860     0.3980590
  C       -2.6606854     1.0640158    -0.2740657
  H        1.3484140    -0.2039780     2.3191610
  H        0.5624770     1.3529910     1.8963580
  H        2.3234150     1.2701900     2.1711160
  H        2.1708410     1.3362470    -1.4821670
  H        2.8360500     2.1503740    -0.0502520
  H        1.0944390     2.3121220    -0.4419640
  H       -1.7008040    -1.6902470     0.8932800
  H       -3.9262080    -0.3702980     0.8362390
  H       -3.2806590     1.9452040    -0.5535070
units angstrom
no_reorient  #important for SAPT in psi4, default
symmetry c1  #important for SAPT in psi4, default
}

set PROPERTIES_ORIGIN ["COM"]
properties('MP2/aug-cc-pvtz', properties = ['dipole'])
--------------------------------------------------------------------------

    Molecular point group: c1
  Charge       = 0
  Multiplicity = 1
  Basis Set: AUG-CC-PVTZ
    Blend: AUG-CC-PVTZ
  Basis Set: (AUG-CC-PVTZ AUX)
    Blend: AUG-CC-PVTZ-JKFIT

    Orbital Energies [Eh]
    ---------------------

    Doubly Occupied:

       1A    -92.216393     2A    -20.558925     3A    -20.556761
       4A    -15.651020     5A    -15.612101     6A    -15.586510
       7A    -11.339876     8A    -11.286879     9A    -11.275736
      10A    -11.269867    11A    -11.266552    12A     -9.180992
      13A     -6.866207    14A     -6.865798    15A     -6.865373
      16A     -1.465020    17A     -1.371367    18A     -1.346030
      19A     -1.258677    20A     -1.194031    21A     -1.056814
      22A     -0.982219    23A     -0.962806    24A     -0.879851
      25A     -0.832324    26A     -0.818717    27A     -0.753607
      28A     -0.711134    29A     -0.676983    30A     -0.668777
      31A     -0.643266    32A     -0.637286    33A     -0.626465
      34A     -0.614735    35A     -0.595992    36A     -0.577134
      37A     -0.571593    38A     -0.542430    39A     -0.514287
      40A     -0.508247    41A     -0.487938    42A     -0.480611
      43A     -0.473166    44A     -0.425445    45A     -0.418566
      46A     -0.355494

  @DF-RHF Final Energy:  -905.30375878198049

   => Energetics <=

    Nuclear Repulsion Energy =            798.0029283278773846
    One-Electron Energy =               -2826.9133677194977281
    Two-Electron Energy =                1123.6066806096398523
    Total Energy =                       -905.3037587819806049
  Basis Set: (AUG-CC-PVTZ AUX)
    Blend: AUG-CC-PVTZ-RI
    Molecular point group: c1

    Geometry (in Angstrom), charge = 0, multiplicity = 1:

       Center              X                  Y                   Z               Mass
    ------------   -----------------  -----------------  -----------------  -----------------
         S            0.772948293046    -0.673571044869    -0.282432049043    31.972071174400
         O            0.752050293046    -1.825537044869     0.627636950957    15.994914619570
         O            1.148246293046    -0.801137044869    -1.685286049043    15.994914619570
         N            1.745809293046     0.488781955131     0.392470950957    14.003074004430
         N           -1.839823706954    -0.735171044869     0.489305950957    14.003074004430
         N           -1.317867706954     1.123139955131    -0.641053049043    14.003074004430
         C           -0.872037706954    -0.037509044869    -0.168418049043    12.000000000000
         C            1.469847293046     0.780435955131     1.802608950957    12.000000000000
         C            1.969538293046     1.688979955131    -0.428476049043    12.000000000000
         C           -2.987435706954     0.010965955131     0.427921950957    12.000000000000
         C           -2.651526106954     1.112567755131    -0.244202749043    12.000000000000
         H            1.357573293046    -0.155426044869     2.349023950957     1.007825032230
         H            0.571636293046     1.401542955131     1.926220950957     1.007825032230
         H            2.332574293046     1.318741955131     2.200978950957     1.007825032230
         H            2.180000293046     1.384798955131    -1.452304049043     1.007825032230
         H            2.845209293046     2.198925955131    -0.020389049043     1.007825032230
         H            1.103598293046     2.360673955131    -0.412101049043     1.007825032230
         H           -1.691644706954    -1.641695044869     0.923142950957     1.007825032230
         H           -3.917048706954    -0.321746044869     0.866101950957     1.007825032230
         H           -3.271499706954     1.993755955131    -0.523644049043     1.007825032230

  Basis Set: AUG-CC-PVTZ
    Blend: AUG-CC-PVTZ
  Basis Set: (AUG-CC-PVTZ AUX)
    Blend: AUG-CC-PVTZ-JKFIT
	 Reference Energy          =    -905.3037587819804912 [Eh]
	 Singles Energy            =      -0.0000000000000000 [Eh]
	 Same-Spin Energy          =      -0.5968287321610556 [Eh]
	 Opposite-Spin Energy      =      -1.7747553570695360 [Eh]
	 Correlation Energy        =      -2.3715840892305917 [Eh]
	 Total Energy              =    -907.6753428712111145 [Eh]

	 ================> DF-SCS-MP2 Energies <==================
	-----------------------------------------------------------
	 SCS Same-Spin Scale       =       0.3333333333333333 [-]
	 SCS Opposite-Spin Scale   =       1.2000000000000000 [-]
	 SCS Same-Spin Energy      =      -0.1989429107203519 [Eh]
	 SCS Opposite-Spin Energy  =      -2.1297064284834430 [Eh]
	 SCS Correlation Energy    =      -2.3286493392037948 [Eh]
	 SCS Total Energy          =    -907.6324081211843122 [Eh]
	-----------------------------------------------------------

  Dipole Moment: [D]
     X:    -2.6526      Y:     1.8586      Z:     3.5855     Total:     4.8318

*** Psi4 exiting successfully. Buy a developer a beer!
