                               Psi4 1.3.2 release

  ==> Input File <==

--------------------------------------------------------------------------
#psi4
#
memory 32 gb

molecule  {
0 1
  S        0.7637890    -0.7221230    -0.3122950
  O        0.7428910    -1.8740890     0.5977740
  O        1.1390870    -0.8496890    -1.7151490
  N        1.7952836     0.5102841     0.4032839
  N       -1.8489830    -0.7837230     0.4594430
  N       -1.3270270     1.0745880    -0.6709160
  C       -0.8811970    -0.0860610    -0.1982810
  C        1.4606880     0.7318840     1.7727460
  C        1.9603790     1.6404280    -0.4583390
  C       -2.9965950    -0.0375860     0.3980590
  C       -2.6480900     1.1053220    -0.2992680
  H        1.3484140    -0.2039780     2.3191610
  H        0.5624770     1.3529910     1.8963580
  H        2.3234150     1.2701900     2.1711160
  H        2.1708410     1.3362470    -1.4821670
  H        2.8360500     2.1503740    -0.0502520
  H        1.0944390     2.3121220    -0.4419640
  H       -1.7008040    -1.6902470     0.8932800
  H       -3.9262080    -0.3702980     0.8362390
  H       -3.2806590     1.9452040    -0.5535070
units angstrom
no_reorient  #important for SAPT in psi4, default
symmetry c1  #important for SAPT in psi4, default
}

set PROPERTIES_ORIGIN ["COM"]
properties('MP2/aug-cc-pvtz', properties = ['dipole'])
--------------------------------------------------------------------------

    Molecular point group: c1
  Charge       = 0
  Multiplicity = 1
  Basis Set: AUG-CC-PVTZ
    Blend: AUG-CC-PVTZ
  Basis Set: (AUG-CC-PVTZ AUX)
    Blend: AUG-CC-PVTZ-JKFIT

    Orbital Energies [Eh]
    ---------------------

    Doubly Occupied:

       1A    -92.215978     2A    -20.562655     3A    -20.560129
       4A    -15.657641     5A    -15.611995     6A    -15.589190
       7A    -11.340671     8A    -11.295545     9A    -11.275388
      10A    -11.269351    11A    -11.259888    12A     -9.180819
      13A     -6.865794    14A     -6.865389    15A     -6.865032
      16A     -1.462377    17A     -1.372248    18A     -1.347912
      19A     -1.260098    20A     -1.200995    21A     -1.052283
      22A     -0.989201    23A     -0.947298    24A     -0.869541
      25A     -0.842334    26A     -0.820551    27A     -0.755144
      28A     -0.713955    29A     -0.675948    30A     -0.665510
      31A     -0.646905    32A     -0.635024    33A     -0.628911
      34A     -0.620808    35A     -0.611899    36A     -0.574373
      37A     -0.569785    38A     -0.551987    39A     -0.511150
      40A     -0.510496    41A     -0.482945    42A     -0.481462
      43A     -0.467791    44A     -0.430987    45A     -0.406836
      46A     -0.348420

  @DF-RHF Final Energy:  -905.29426725480516

   => Energetics <=

    Nuclear Repulsion Energy =            795.0727224617309048
    One-Electron Energy =               -2820.9927000383959239
    Two-Electron Energy =                1120.6257103218599696
    Total Energy =                       -905.2942672548051632
  Basis Set: (AUG-CC-PVTZ AUX)
    Blend: AUG-CC-PVTZ-RI
    Molecular point group: c1

    Geometry (in Angstrom), charge = 0, multiplicity = 1:

       Center              X                  Y                   Z               Mass
    ------------   -----------------  -----------------  -----------------  -----------------
         S            0.767394209158    -0.682007025731    -0.283958315472    31.972071174400
         O            0.746496209158    -1.833973025731     0.626110684528    15.994914619570
         O            1.142692209158    -0.809573025731    -1.686812315472    15.994914619570
         N            1.798888809158     0.550400074269     0.431620584528    14.003074004430
         N           -1.845377790842    -0.743607025731     0.487779684528    14.003074004430
         N           -1.323421790842     1.114703974269    -0.642579315472    14.003074004430
         C           -0.877591790842    -0.045945025731    -0.169944315472    12.000000000000
         C            1.464293209158     0.771999974269     1.801082684528    12.000000000000
         C            1.963984209158     1.680543974269    -0.430002315472    12.000000000000
         C           -2.992989790842     0.002529974269     0.426395684528    12.000000000000
         C           -2.644484790842     1.145437974269    -0.270931315472    12.000000000000
         H            1.352019209158    -0.163862025731     2.347497684528     1.007825032230
         H            0.566082209158     1.393106974269     1.924694684528     1.007825032230
         H            2.327020209158     1.310305974269     2.199452684528     1.007825032230
         H            2.174446209158     1.376362974269    -1.453830315472     1.007825032230
         H            2.839655209158     2.190489974269    -0.021915315472     1.007825032230
         H            1.098044209158     2.352237974269    -0.413627315472     1.007825032230
         H           -1.697198790842    -1.650131025731     0.921616684528     1.007825032230
         H           -3.922602790842    -0.330182025731     0.864575684528     1.007825032230
         H           -3.277053790842     1.985319974269    -0.525170315472     1.007825032230

  Basis Set: AUG-CC-PVTZ
    Blend: AUG-CC-PVTZ
  Basis Set: (AUG-CC-PVTZ AUX)
    Blend: AUG-CC-PVTZ-JKFIT
	 Reference Energy          =    -905.2942672548051632 [Eh]
	 Singles Energy            =      -0.0000000000000000 [Eh]
	 Same-Spin Energy          =      -0.5986457567567791 [Eh]
	 Opposite-Spin Energy      =      -1.7777527355225811 [Eh]
	 Correlation Energy        =      -2.3763984922793604 [Eh]
	 Total Energy              =    -907.6706657470845130 [Eh]

	 ================> DF-SCS-MP2 Energies <==================
	-----------------------------------------------------------
	 SCS Same-Spin Scale       =       0.3333333333333333 [-]
	 SCS Opposite-Spin Scale   =       1.2000000000000000 [-]
	 SCS Same-Spin Energy      =      -0.1995485855855930 [Eh]
	 SCS Opposite-Spin Energy  =      -2.1333032826270970 [Eh]
	 SCS Correlation Energy    =      -2.3328518682126900 [Eh]
	 SCS Total Energy          =    -907.6271191230179056 [Eh]
	-----------------------------------------------------------

  Dipole Moment: [D]
     X:    -3.0162      Y:     1.5726      Z:     3.3859     Total:     4.7995

*** Psi4 exiting successfully. Buy a developer a beer!
