                               Psi4 1.3.2 release

  ==> Input File <==

--------------------------------------------------------------------------
#psi4
#
memory 32 gb

molecule  {
0 1
  S        0.7637890    -0.7221230    -0.3122950
  O        0.7428910    -1.8740890     0.5977740
  O        1.1390870    -0.8496890    -1.7151490
  N        1.7366500     0.4402300     0.3626080
  N       -1.8489830    -0.7837230     0.4594430
  N       -1.3270270     1.0745880    -0.6709160
  C       -0.7574154    -0.0521360    -0.2522396
  C        1.4606880     0.7318840     1.7727460
  C        1.9603790     1.6404280    -0.4583390
  C       -2.9965950    -0.0375860     0.3980590
  C       -2.6480900     1.1053220    -0.2992680
  H        1.3484140    -0.2039780     2.3191610
  H        0.5624770     1.3529910     1.8963580
  H        2.3234150     1.2701900     2.1711160
  H        2.1708410     1.3362470    -1.4821670
  H        2.8360500     2.1503740    -0.0502520
  H        1.0944390     2.3121220    -0.4419640
  H       -1.7008040    -1.6902470     0.8932800
  H       -3.9262080    -0.3702980     0.8362390
  H       -3.2806590     1.9452040    -0.5535070
units angstrom
no_reorient  #important for SAPT in psi4, default
symmetry c1  #important for SAPT in psi4, default
}

set PROPERTIES_ORIGIN ["COM"]
properties('MP2/aug-cc-pvtz', properties = ['dipole'])
--------------------------------------------------------------------------

    Molecular point group: c1
  Charge       = 0
  Multiplicity = 1
  Basis Set: AUG-CC-PVTZ
    Blend: AUG-CC-PVTZ
  Basis Set: (AUG-CC-PVTZ AUX)
    Blend: AUG-CC-PVTZ-JKFIT

    Orbital Energies [Eh]
    ---------------------

    Doubly Occupied:

       1A    -92.215384     2A    -20.561422     3A    -20.552944
       4A    -15.649934     5A    -15.607753     6A    -15.599170
       7A    -11.339569     8A    -11.305556     9A    -11.274133
      10A    -11.273847    11A    -11.265980    12A     -9.181171
      13A     -6.866718    14A     -6.865962    15A     -6.865502
      16A     -1.467796    17A     -1.347162    18A     -1.341647
      19A     -1.257384    20A     -1.187860    21A     -1.061118
      22A     -0.980795    23A     -0.967507    24A     -0.891243
      25A     -0.839292    26A     -0.789293    27A     -0.753338
      28A     -0.712097    29A     -0.684223    30A     -0.669362
      31A     -0.646489    32A     -0.626268    33A     -0.616494
      34A     -0.610089    35A     -0.604331    36A     -0.576402
      37A     -0.570227    38A     -0.541113    39A     -0.518560
      40A     -0.508679    41A     -0.488164    42A     -0.479615
      43A     -0.468418    44A     -0.430597    45A     -0.416574
      46A     -0.343713

  @DF-RHF Final Energy:  -905.27785274121311

   => Energetics <=

    Nuclear Repulsion Energy =            798.2717791389920876
    One-Electron Energy =               -2827.4574639374100116
    Two-Electron Energy =                1123.9078320572048142
    Total Energy =                       -905.2778527412131098
  Basis Set: (AUG-CC-PVTZ AUX)
    Blend: AUG-CC-PVTZ-RI
    Molecular point group: c1

    Geometry (in Angstrom), charge = 0, multiplicity = 1:

       Center              X                  Y                   Z               Mass
    ------------   -----------------  -----------------  -----------------  -----------------
         S            0.763598947011    -0.678728531259    -0.277005161471    31.972071174400
         O            0.742700947011    -1.830694531259     0.633063838529    15.994914619570
         O            1.138896947011    -0.806294531259    -1.679859161471    15.994914619570
         N            1.736459947011     0.483624468741     0.397897838529    14.003074004430
         N           -1.849173052989    -0.740328531259     0.494732838529    14.003074004430
         N           -1.327217052989     1.117982468741    -0.635626161471    14.003074004430
         C           -0.757605452989    -0.008741531259    -0.216949761471    12.000000000000
         C            1.460497947011     0.775278468741     1.808035838529    12.000000000000
         C            1.960188947011     1.683822468741    -0.423049161471    12.000000000000
         C           -2.996785052989     0.005808468741     0.433348838529    12.000000000000
         C           -2.648280052989     1.148716468741    -0.263978161471    12.000000000000
         H            1.348223947011    -0.160583531259     2.354450838529     1.007825032230
         H            0.562286947011     1.396385468741     1.931647838529     1.007825032230
         H            2.323224947011     1.313584468741     2.206405838529     1.007825032230
         H            2.170650947011     1.379641468741    -1.446877161471     1.007825032230
         H            2.835859947011     2.193768468741    -0.014962161471     1.007825032230
         H            1.094248947011     2.355516468741    -0.406674161471     1.007825032230
         H           -1.700994052989    -1.646852531259     0.928569838529     1.007825032230
         H           -3.926398052989    -0.326903531259     0.871528838529     1.007825032230
         H           -3.280849052989     1.988598468741    -0.518217161471     1.007825032230

  Basis Set: AUG-CC-PVTZ
    Blend: AUG-CC-PVTZ
  Basis Set: (AUG-CC-PVTZ AUX)
    Blend: AUG-CC-PVTZ-JKFIT
	 Reference Energy          =    -905.2778527412131098 [Eh]
	 Singles Energy            =      -0.0000000000000000 [Eh]
	 Same-Spin Energy          =      -0.6000675198357096 [Eh]
	 Opposite-Spin Energy      =      -1.7803162410661397 [Eh]
	 Correlation Energy        =      -2.3803837609018492 [Eh]
	 Total Energy              =    -907.6582365021149599 [Eh]

	 ================> DF-SCS-MP2 Energies <==================
	-----------------------------------------------------------
	 SCS Same-Spin Scale       =       0.3333333333333333 [-]
	 SCS Opposite-Spin Scale   =       1.2000000000000000 [-]
	 SCS Same-Spin Energy      =      -0.2000225066119032 [Eh]
	 SCS Opposite-Spin Energy  =      -2.1363794892793675 [Eh]
	 SCS Correlation Energy    =      -2.3364019958912707 [Eh]
	 SCS Total Energy          =    -907.6142547371043747 [Eh]
	-----------------------------------------------------------

  Dipole Moment: [D]
     X:    -2.8116      Y:     2.0091      Z:     3.5312     Total:     4.9407

*** Psi4 exiting successfully. Buy a developer a beer!
