                               Psi4 1.3.2 release

  ==> Input File <==

--------------------------------------------------------------------------
#psi4
#
memory 32 gb

molecule  {
0 1
  S        0.7797960    -0.6719701    -0.3444514
  O        0.7428910    -1.8740890     0.5977740
  O        1.1390870    -0.8496890    -1.7151490
  N        1.7366500     0.4402300     0.3626080
  N       -1.8489830    -0.7837230     0.4594430
  N       -1.3270270     1.0745880    -0.6709160
  C       -0.8811970    -0.0860610    -0.1982810
  C        1.4606880     0.7318840     1.7727460
  C        1.9603790     1.6404280    -0.4583390
  C       -2.9965950    -0.0375860     0.3980590
  C       -2.6480900     1.1053220    -0.2992680
  H        1.3484140    -0.2039780     2.3191610
  H        0.5624770     1.3529910     1.8963580
  H        2.3234150     1.2701900     2.1711160
  H        2.1708410     1.3362470    -1.4821670
  H        2.8360500     2.1503740    -0.0502520
  H        1.0944390     2.3121220    -0.4419640
  H       -1.7008040    -1.6902470     0.8932800
  H       -3.9262080    -0.3702980     0.8362390
  H       -3.2806590     1.9452040    -0.5535070
units angstrom
no_reorient  #important for SAPT in psi4, default
symmetry c1  #important for SAPT in psi4, default
}

set PROPERTIES_ORIGIN ["COM"]
properties('MP2/aug-cc-pvtz', properties = ['dipole'])
--------------------------------------------------------------------------

    Molecular point group: c1
  Charge       = 0
  Multiplicity = 1
  Basis Set: AUG-CC-PVTZ
    Blend: AUG-CC-PVTZ
  Basis Set: (AUG-CC-PVTZ AUX)
    Blend: AUG-CC-PVTZ-JKFIT

    Orbital Energies [Eh]
    ---------------------

    Doubly Occupied:

       1A    -92.214211     2A    -20.562455     3A    -20.543031
       4A    -15.654168     5A    -15.616632     6A    -15.586113
       7A    -11.336898     8A    -11.292826     9A    -11.278627
      10A    -11.272610    11A    -11.270622    12A     -9.179320
      13A     -6.864473    14A     -6.864122    15A     -6.863591
      16A     -1.464295    17A     -1.370132    18A     -1.327064
      19A     -1.266357    20A     -1.197990    21A     -1.048976
      22A     -0.986782    23A     -0.966188    24A     -0.879116
      25A     -0.838398    26A     -0.818804    27A     -0.753923
      28A     -0.710674    29A     -0.679637    30A     -0.669793
      31A     -0.643199    32A     -0.632647    33A     -0.625239
      34A     -0.614831    35A     -0.607113    36A     -0.578406
      37A     -0.573999    38A     -0.546184    39A     -0.511585
      40A     -0.506083    41A     -0.480708    42A     -0.470060
      43A     -0.467716    44A     -0.429248    45A     -0.424472
      46A     -0.345872

  @DF-RHF Final Energy:  -905.29919625557682

   => Energetics <=

    Nuclear Repulsion Energy =            797.8109908549776037
    One-Electron Energy =               -2826.5499940377580970
    Two-Electron Energy =                1123.4398069272035627
    Total Energy =                       -905.2991962555768168
  Basis Set: (AUG-CC-PVTZ AUX)
    Blend: AUG-CC-PVTZ-RI
    Molecular point group: c1

    Geometry (in Angstrom), charge = 0, multiplicity = 1:

       Center              X                  Y                   Z               Mass
    ------------   -----------------  -----------------  -----------------  -----------------
         S            0.785168067945    -0.635410534766    -0.306987200500    31.972071174400
         O            0.748263067945    -1.837529434766     0.635238199500    15.994914619570
         O            1.144459067945    -0.813129434766    -1.677684800500    15.994914619570
         N            1.742022067945     0.476789565234     0.400072199500    14.003074004430
         N           -1.843610932055    -0.747163434766     0.496907199500    14.003074004430
         N           -1.321654932055     1.111147565234    -0.633451800500    14.003074004430
         C           -0.875824932055    -0.049501434766    -0.160816800500    12.000000000000
         C            1.466060067945     0.768443565234     1.810210199500    12.000000000000
         C            1.965751067945     1.676987565234    -0.420874800500    12.000000000000
         C           -2.991222932055    -0.001026434766     0.435523199500    12.000000000000
         C           -2.642717932055     1.141881565234    -0.261803800500    12.000000000000
         H            1.353786067945    -0.167418434766     2.356625199500     1.007825032230
         H            0.567849067945     1.389550565234     1.933822199500     1.007825032230
         H            2.328787067945     1.306749565234     2.208580199500     1.007825032230
         H            2.176213067945     1.372806565234    -1.444702800500     1.007825032230
         H            2.841422067945     2.186933565234    -0.012787800500     1.007825032230
         H            1.099811067945     2.348681565234    -0.404499800500     1.007825032230
         H           -1.695431932055    -1.653687434766     0.930744199500     1.007825032230
         H           -3.920835932055    -0.333738434766     0.873703199500     1.007825032230
         H           -3.275286932055     1.981763565234    -0.516042800500     1.007825032230

  Basis Set: AUG-CC-PVTZ
    Blend: AUG-CC-PVTZ
  Basis Set: (AUG-CC-PVTZ AUX)
    Blend: AUG-CC-PVTZ-JKFIT
	 Reference Energy          =    -905.2991962555768168 [Eh]
	 Singles Energy            =      -0.0000000000000000 [Eh]
	 Same-Spin Energy          =      -0.5977252330964600 [Eh]
	 Opposite-Spin Energy      =      -1.7759132579248416 [Eh]
	 Correlation Energy        =      -2.3736384910213015 [Eh]
	 Total Energy              =    -907.6728347465981415 [Eh]

	 ================> DF-SCS-MP2 Energies <==================
	-----------------------------------------------------------
	 SCS Same-Spin Scale       =       0.3333333333333333 [-]
	 SCS Opposite-Spin Scale   =       1.2000000000000000 [-]
	 SCS Same-Spin Energy      =      -0.1992417443654866 [Eh]
	 SCS Opposite-Spin Energy  =      -2.1310959095098099 [Eh]
	 SCS Correlation Energy    =      -2.3303376538752967 [Eh]
	 SCS Total Energy          =    -907.6295339094521069 [Eh]
	-----------------------------------------------------------

  Dipole Moment: [D]
     X:    -2.4935      Y:     2.3607      Z:     3.3363     Total:     4.7876

*** Psi4 exiting successfully. Buy a developer a beer!
