                               Psi4 1.4a3.dev225

  ==> Input File <==

--------------------------------------------------------------------------
#psi4
#
memory 32 gb

molecule  {
0 1
  S        0.7637890    -0.7221230    -0.3122950
  O        0.7428910    -1.8740890     0.5977740
  O        1.1390870    -0.8496890    -1.7151490
  N        1.7366500     0.4402300     0.3626080
  N       -1.8489830    -0.7837230     0.4594430
  N       -1.3270270     1.0745880    -0.6709160
  C       -0.8811970    -0.0860610    -0.1982810
  C        1.4606880     0.7318840     1.7727460
  C        1.9603790     1.6404280    -0.4583390
  C       -2.9965950    -0.0375860     0.3980590
  C       -2.6962095     1.1064415    -0.2857308
  H        1.3484140    -0.2039780     2.3191610
  H        0.5624770     1.3529910     1.8963580
  H        2.3234150     1.2701900     2.1711160
  H        2.1708410     1.3362470    -1.4821670
  H        2.8360500     2.1503740    -0.0502520
  H        1.0944390     2.3121220    -0.4419640
  H       -1.7008040    -1.6902470     0.8932800
  H       -3.9262080    -0.3702980     0.8362390
  H       -3.2806590     1.9452040    -0.5535070
units angstrom
no_reorient  #important for SAPT in psi4, default
symmetry c1  #important for SAPT in psi4, default
}

set PROPERTIES_ORIGIN ["COM"]
properties('MP2/aug-cc-pvtz', properties = ['dipole'])
--------------------------------------------------------------------------

    Molecular point group: c1
  Charge       = 0
  Multiplicity = 1
  Basis Set: AUG-CC-PVTZ
    Blend: AUG-CC-PVTZ
  Basis Set: (AUG-CC-PVTZ AUX)
    Blend: AUG-CC-PVTZ-JKFIT

    Orbital Energies [Eh]
    ---------------------

    Doubly Occupied:

       1A    -92.216475     2A    -20.559148     3A    -20.556518
       4A    -15.651848     5A    -15.611797     6A    -15.587776
       7A    -11.339026     8A    -11.293575     9A    -11.275430
      10A    -11.272783    11A    -11.266110    12A     -9.181036
      13A     -6.866257    14A     -6.865843    15A     -6.865419
      16A     -1.464877    17A     -1.364845    18A     -1.345791
      19A     -1.258358    20A     -1.187803    21A     -1.052911
      22A     -0.981859    23A     -0.961438    24A     -0.876706
      25A     -0.840289    26A     -0.816852    27A     -0.752862
      28A     -0.710725    29A     -0.676521    30A     -0.668286
      31A     -0.642437    32A     -0.634591    33A     -0.624044
      34A     -0.617870    35A     -0.607044    36A     -0.577346
      37A     -0.571158    38A     -0.542082    39A     -0.514640
      40A     -0.508302    41A     -0.486518    42A     -0.480484
      43A     -0.468647    44A     -0.422536    45A     -0.417097
      46A     -0.352333

  @DF-RHF Final Energy:  -905.30359128640703

   => Energetics <=

    Nuclear Repulsion Energy =            796.5331570890197099
    One-Electron Energy =               -2824.0009040898366948
    Two-Electron Energy =                1122.1641557144098442
    Total Energy =                       -905.3035912864070269
  Basis Set: (AUG-CC-PVTZ AUX)
    Blend: AUG-CC-PVTZ-RI
    Molecular point group: c1

    Geometry (in Angstrom), charge = 0, multiplicity = 1:

       Center              X                  Y                   Z               Mass
    ------------   -----------------  -----------------  -----------------  -----------------
         S            0.775383653139    -0.676479545203    -0.281632346334    31.972071174400
         O            0.754485653139    -1.828445545203     0.628436653666    15.994914619570
         O            1.150681653139    -0.804045545203    -1.684486346334    15.994914619570
         N            1.748244653139     0.485873454797     0.393270653666    14.003074004430
         N           -1.837388346861    -0.738079545203     0.490105653666    14.003074004430
         N           -1.315432346861     1.120231454797    -0.640253346334    14.003074004430
         C           -0.869602346861    -0.040417545203    -0.167618346334    12.000000000000
         C            1.472282653139     0.777527454797     1.803408653666    12.000000000000
         C            1.971973653139     1.686071454797    -0.427676346334    12.000000000000
         C           -2.985000346861     0.008057454797     0.428721653666    12.000000000000
         C           -2.684614846861     1.152084954797    -0.255068146334    12.000000000000
         H            1.360008653139    -0.158334545203     2.349823653666     1.007825032230
         H            0.574071653139     1.398634454797     1.927020653666     1.007825032230
         H            2.335009653139     1.315833454797     2.201778653666     1.007825032230
         H            2.182435653139     1.381890454797    -1.451504346334     1.007825032230
         H            2.847644653139     2.196017454797    -0.019589346334     1.007825032230
         H            1.106033653139     2.357765454797    -0.411301346334     1.007825032230
         H           -1.689209346861    -1.644603545203     0.923942653666     1.007825032230
         H           -3.914613346861    -0.324654545203     0.866901653666     1.007825032230
         H           -3.269064346861     1.990847454797    -0.522844346334     1.007825032230

  Basis Set: AUG-CC-PVTZ
    Blend: AUG-CC-PVTZ
  Basis Set: (AUG-CC-PVTZ AUX)
    Blend: AUG-CC-PVTZ-JKFIT
	 Reference Energy          =    -905.3035912864070269 [Eh]
	 Singles Energy            =      -0.0000000000000000 [Eh]
	 Same-Spin Energy          =      -0.5969122873372190 [Eh]
	 Opposite-Spin Energy      =      -1.7756059998935032 [Eh]
	 Correlation Energy        =      -2.3725182872307222 [Eh]
	 Total Energy              =    -907.6761095736377456 [Eh]

	 ================> DF-SCS-MP2 Energies <==================
	-----------------------------------------------------------
	 SCS Same-Spin Scale       =       0.3333333333333333 [-]
	 SCS Opposite-Spin Scale   =       1.2000000000000000 [-]
	 SCS Same-Spin Energy      =      -0.1989707624457397 [Eh]
	 SCS Opposite-Spin Energy  =      -2.1307271998722039 [Eh]
	 SCS Correlation Energy    =      -2.3296979623179435 [Eh]
	 SCS Total Energy          =    -907.6332892487249637 [Eh]
	-----------------------------------------------------------

  Dipole Moment: [D]
     X:    -2.6688      Y:     1.8943      Z:     3.5711     Total:     4.8439

*** Psi4 exiting successfully. Buy a developer a beer!
