                               Psi4 1.3.2 release

  ==> Input File <==

--------------------------------------------------------------------------
#psi4
#
memory 32 gb

molecule  {
0 1
  S        0.7637890    -0.7221230    -0.3122950
  O        0.7428910    -1.8740890     0.5977740
  O        1.1390870    -0.8496890    -1.7151490
  N        1.7366500     0.4402300     0.3626080
  N       -1.8489830    -0.7837230     0.4594430
  N       -1.3270270     1.0745880    -0.6709160
  C       -0.6950450    -0.1580399    -0.2111832
  C        1.4606880     0.7318840     1.7727460
  C        1.9603790     1.6404280    -0.4583390
  C       -2.9965950    -0.0375860     0.3980590
  C       -2.6480900     1.1053220    -0.2992680
  H        1.3484140    -0.2039780     2.3191610
  H        0.5624770     1.3529910     1.8963580
  H        2.3234150     1.2701900     2.1711160
  H        2.1708410     1.3362470    -1.4821670
  H        2.8360500     2.1503740    -0.0502520
  H        1.0944390     2.3121220    -0.4419640
  H       -1.7008040    -1.6902470     0.8932800
  H       -3.9262080    -0.3702980     0.8362390
  H       -3.2806590     1.9452040    -0.5535070
units angstrom
no_reorient  #important for SAPT in psi4, default
symmetry c1  #important for SAPT in psi4, default
}

set PROPERTIES_ORIGIN ["COM"]
properties('MP2/aug-cc-pvtz', properties = ['dipole'])
--------------------------------------------------------------------------

    Molecular point group: c1
  Charge       = 0
  Multiplicity = 1
  Basis Set: AUG-CC-PVTZ
    Blend: AUG-CC-PVTZ
  Basis Set: (AUG-CC-PVTZ AUX)
    Blend: AUG-CC-PVTZ-JKFIT

    Orbital Energies [Eh]
    ---------------------

    Doubly Occupied:

       1A    -92.206075     2A    -20.551900     3A    -20.548054
       4A    -15.667943     5A    -15.610415     6A    -15.604386
       7A    -11.335154     8A    -11.314597     9A    -11.283807
      10A    -11.271029    11A    -11.262813    12A     -9.174026
      13A     -6.859910    14A     -6.858728    15A     -6.858143
      16A     -1.467275    17A     -1.342941    18A     -1.332781
      19A     -1.254071    20A     -1.172395    21A     -1.078319
      22A     -0.977728    23A     -0.972157    24A     -0.900206
      25A     -0.833518    26A     -0.792887    27A     -0.750909
      28A     -0.712099    29A     -0.687211    30A     -0.667551
      31A     -0.644512    32A     -0.624355    33A     -0.623203
      34A     -0.607559    35A     -0.598791    36A     -0.572525
      37A     -0.567174    38A     -0.537975    39A     -0.514367
      40A     -0.504354    41A     -0.483390    42A     -0.474497
      43A     -0.461389    44A     -0.421783    45A     -0.417186
      46A     -0.343614

  @DF-RHF Final Energy:  -905.23344330361840

   => Energetics <=

    Nuclear Repulsion Energy =            799.2789015369061190
    One-Electron Energy =               -2829.5332832156177574
    Two-Electron Energy =                1125.0209383750932375
    Total Energy =                       -905.2334433036182872
  Basis Set: (AUG-CC-PVTZ AUX)
    Blend: AUG-CC-PVTZ-RI
    Molecular point group: c1

    Geometry (in Angstrom), charge = 0, multiplicity = 1:

       Center              X                  Y                   Z               Mass
    ------------   -----------------  -----------------  -----------------  -----------------
         S            0.759323134727    -0.671468273243    -0.279819789234    31.972071174400
         O            0.738425134727    -1.823434273243     0.630249210766    15.994914619570
         O            1.134621134727    -0.799034273243    -1.682673789234    15.994914619570
         N            1.732184134727     0.490884726757     0.395083210766    14.003074004430
         N           -1.853448865273    -0.733068273243     0.491918210766    14.003074004430
         N           -1.331492865273     1.125242726757    -0.638440789234    14.003074004430
         C           -0.699510865273    -0.107385173243    -0.178707989234    12.000000000000
         C            1.456222134727     0.782538726757     1.805221210766    12.000000000000
         C            1.955913134727     1.691082726757    -0.425863789234    12.000000000000
         C           -3.001060865273     0.013068726757     0.430534210766    12.000000000000
         C           -2.652555865273     1.155976726757    -0.266792789234    12.000000000000
         H            1.343948134727    -0.153323273243     2.351636210766     1.007825032230
         H            0.558011134727     1.403645726757     1.928833210766     1.007825032230
         H            2.318949134727     1.320844726757     2.203591210766     1.007825032230
         H            2.166375134727     1.386901726757    -1.449691789234     1.007825032230
         H            2.831584134727     2.201028726757    -0.017776789234     1.007825032230
         H            1.089973134727     2.362776726757    -0.409488789234     1.007825032230
         H           -1.705269865273    -1.639592273243     0.925755210766     1.007825032230
         H           -3.930673865273    -0.319643273243     0.868714210766     1.007825032230
         H           -3.285124865273     1.995858726757    -0.521031789234     1.007825032230

  Basis Set: AUG-CC-PVTZ
    Blend: AUG-CC-PVTZ
  Basis Set: (AUG-CC-PVTZ AUX)
    Blend: AUG-CC-PVTZ-JKFIT
	 Reference Energy          =    -905.2334433036184009 [Eh]
	 Singles Energy            =      -0.0000000000000000 [Eh]
	 Same-Spin Energy          =      -0.6049484246685817 [Eh]
	 Opposite-Spin Energy      =      -1.7887542481091199 [Eh]
	 Correlation Energy        =      -2.3937026727777013 [Eh]
	 Total Energy              =    -907.6271459763961502 [Eh]

	 ================> DF-SCS-MP2 Energies <==================
	-----------------------------------------------------------
	 SCS Same-Spin Scale       =       0.3333333333333333 [-]
	 SCS Opposite-Spin Scale   =       1.2000000000000000 [-]
	 SCS Same-Spin Energy      =      -0.2016494748895272 [Eh]
	 SCS Opposite-Spin Energy  =      -2.1465050977309437 [Eh]
	 SCS Correlation Energy    =      -2.3481545726204711 [Eh]
	 SCS Total Energy          =    -907.5815978762389022 [Eh]
	-----------------------------------------------------------

  Dipole Moment: [D]
     X:    -3.2041      Y:     2.0268      Z:     3.6223     Total:     5.2436

*** Psi4 exiting successfully. Buy a developer a beer!
