                               Psi4 1.3.2 release

  ==> Input File <==

--------------------------------------------------------------------------
#psi4
#
memory 32 gb

molecule  {
0 1
  S        0.7637890    -0.7221230    -0.3122950
  O        0.7428910    -1.8740890     0.5977740
  O        1.1390870    -0.8496890    -1.7151490
  N        1.7366500     0.4402300     0.3626080
  N       -1.8489830    -0.7837230     0.4594430
  N       -1.3270270     1.0745880    -0.6709160
  C       -0.8212502    -0.1572256    -0.1786864
  C        1.4606880     0.7318840     1.7727460
  C        1.9603790     1.6404280    -0.4583390
  C       -2.9965950    -0.0375860     0.3980590
  C       -2.6480900     1.1053220    -0.2992680
  H        1.3484140    -0.2039780     2.3191610
  H        0.5624770     1.3529910     1.8963580
  H        2.3234150     1.2701900     2.1711160
  H        2.1708410     1.3362470    -1.4821670
  H        2.8360500     2.1503740    -0.0502520
  H        1.0944390     2.3121220    -0.4419640
  H       -1.7008040    -1.6902470     0.8932800
  H       -3.9262080    -0.3702980     0.8362390
  H       -3.2806590     1.9452040    -0.5535070
units angstrom
no_reorient  #important for SAPT in psi4, default
symmetry c1  #important for SAPT in psi4, default
}

set PROPERTIES_ORIGIN ["COM"]
properties('MP2/aug-cc-pvtz', properties = ['dipole'])
--------------------------------------------------------------------------

    Molecular point group: c1
  Charge       = 0
  Multiplicity = 1
  Basis Set: AUG-CC-PVTZ
    Blend: AUG-CC-PVTZ
  Basis Set: (AUG-CC-PVTZ AUX)
    Blend: AUG-CC-PVTZ-JKFIT

    Orbital Energies [Eh]
    ---------------------

    Doubly Occupied:

       1A    -92.214745     2A    -20.555177     3A    -20.554765
       4A    -15.665062     5A    -15.611164     6A    -15.593380
       7A    -11.336857     8A    -11.296837     9A    -11.277704
      10A    -11.274462    11A    -11.265191    12A     -9.180051
      13A     -6.865433    14A     -6.864970    15A     -6.864395
      16A     -1.466119    17A     -1.360877    18A     -1.343973
      19A     -1.257710    20A     -1.181471    21A     -1.060136
      22A     -0.980965    23A     -0.964020    24A     -0.887743
      25A     -0.837090    26A     -0.815374    27A     -0.752261
      28A     -0.711630    29A     -0.680195    30A     -0.668448
      31A     -0.644414    32A     -0.628155    33A     -0.623442
      34A     -0.616719    35A     -0.605430    36A     -0.576070
      37A     -0.570133    38A     -0.541146    39A     -0.514186
      40A     -0.507318    41A     -0.482237    42A     -0.478102
      43A     -0.467710    44A     -0.422143    45A     -0.420562
      46A     -0.343687

  @DF-RHF Final Energy:  -905.28717084925074

   => Energetics <=

    Nuclear Repulsion Energy =            798.0233333219135829
    One-Electron Energy =               -2826.9616944352442260
    Two-Electron Energy =                1123.6511902640800145
    Total Energy =                       -905.2871708492507423
  Basis Set: (AUG-CC-PVTZ AUX)
    Blend: AUG-CC-PVTZ-RI
    Molecular point group: c1

    Geometry (in Angstrom), charge = 0, multiplicity = 1:

       Center              X                  Y                   Z               Mass
    ------------   -----------------  -----------------  -----------------  -----------------
         S            0.767975151461    -0.671524097703    -0.282047612314    31.972071174400
         O            0.747077151461    -1.823490097703     0.628021387686    15.994914619570
         O            1.143273151461    -0.799090097703    -1.684901612314    15.994914619570
         N            1.740836151461     0.490828902297     0.392855387686    14.003074004430
         N           -1.844796848539    -0.733124097703     0.489690387686    14.003074004430
         N           -1.322840848539     1.125186902297    -0.640668612314    14.003074004430
         C           -0.817064048539    -0.106626697703    -0.148439012314    12.000000000000
         C            1.464874151461     0.782482902297     1.802993387686    12.000000000000
         C            1.964565151461     1.691026902297    -0.428091612314    12.000000000000
         C           -2.992408848539     0.013012902297     0.428306387686    12.000000000000
         C           -2.643903848539     1.155920902297    -0.269020612314    12.000000000000
         H            1.352600151461    -0.153379097703     2.349408387686     1.007825032230
         H            0.566663151461     1.403589902297     1.926605387686     1.007825032230
         H            2.327601151461     1.320788902297     2.201363387686     1.007825032230
         H            2.175027151461     1.386845902297    -1.451919612314     1.007825032230
         H            2.840236151461     2.200972902297    -0.020004612314     1.007825032230
         H            1.098625151461     2.362720902297    -0.411716612314     1.007825032230
         H           -1.696617848539    -1.639648097703     0.923527387686     1.007825032230
         H           -3.922021848539    -0.319699097703     0.866486387686     1.007825032230
         H           -3.276472848539     1.995802902297    -0.523259612314     1.007825032230

  Basis Set: AUG-CC-PVTZ
    Blend: AUG-CC-PVTZ
  Basis Set: (AUG-CC-PVTZ AUX)
    Blend: AUG-CC-PVTZ-JKFIT
	 Reference Energy          =    -905.2871708492507423 [Eh]
	 Singles Energy            =      -0.0000000000000000 [Eh]
	 Same-Spin Energy          =      -0.6005674519918613 [Eh]
	 Opposite-Spin Energy      =      -1.7805600568987949 [Eh]
	 Correlation Energy        =      -2.3811275088906561 [Eh]
	 Total Energy              =    -907.6682983581414419 [Eh]

	 ================> DF-SCS-MP2 Energies <==================
	-----------------------------------------------------------
	 SCS Same-Spin Scale       =       0.3333333333333333 [-]
	 SCS Opposite-Spin Scale   =       1.2000000000000000 [-]
	 SCS Same-Spin Energy      =      -0.2001891506639538 [Eh]
	 SCS Opposite-Spin Energy  =      -2.1366720682785538 [Eh]
	 SCS Correlation Energy    =      -2.3368612189425075 [Eh]
	 SCS Total Energy          =    -907.6240320681932872 [Eh]
	-----------------------------------------------------------

  Dipole Moment: [D]
     X:    -2.9205      Y:     1.9247      Z:     3.6160     Total:     5.0309

*** Psi4 exiting successfully. Buy a developer a beer!
