                               Psi4 1.3.2 release

  ==> Input File <==

--------------------------------------------------------------------------
#psi4
#
memory 32 gb

molecule  {
0 1
  S        0.7637890    -0.7221230    -0.3122950
  O        0.7428910    -1.8740890     0.5977740
  O        1.1390870    -0.8496890    -1.7151490
  N        1.7366500     0.4402300     0.3626080
  N       -1.8489830    -0.7837230     0.4594430
  N       -1.3270270     1.0745880    -0.6709160
  C       -0.8657119    -0.1034670    -0.1935290
  C        1.4606880     0.7318840     1.7727460
  C        1.9603790     1.6404280    -0.4583390
  C       -2.9965950    -0.0375860     0.3980590
  C       -2.6480900     1.1053220    -0.2992680
  H        1.3484140    -0.2039780     2.3191610
  H        0.5624770     1.3529910     1.8963580
  H        2.3234150     1.2701900     2.1711160
  H        2.1708410     1.3362470    -1.4821670
  H        2.8360500     2.1503740    -0.0502520
  H        1.0944390     2.3121220    -0.4419640
  H       -1.7008040    -1.6902470     0.8932800
  H       -3.9262080    -0.3702980     0.8362390
  H       -3.2806590     1.9452040    -0.5535070
units angstrom
no_reorient  #important for SAPT in psi4, default
symmetry c1  #important for SAPT in psi4, default
}

set PROPERTIES_ORIGIN ["COM"]
properties('MP2/aug-cc-pvtz', properties = ['dipole'])
--------------------------------------------------------------------------

    Molecular point group: c1
  Charge       = 0
  Multiplicity = 1
  Basis Set: AUG-CC-PVTZ
    Blend: AUG-CC-PVTZ
  Basis Set: (AUG-CC-PVTZ AUX)
    Blend: AUG-CC-PVTZ-JKFIT

    Orbital Energies [Eh]
    ---------------------

    Doubly Occupied:

       1A    -92.215932     2A    -20.557791     3A    -20.555902
       4A    -15.657512     5A    -15.611401     6A    -15.588327
       7A    -11.337443     8A    -11.293845     9A    -11.275145
      10A    -11.274377    11A    -11.265945    12A     -9.180594
      13A     -6.865843    14A     -6.865452    15A     -6.864982
      16A     -1.464909    17A     -1.367185    18A     -1.345268
      19A     -1.258064    20A     -1.193886    21A     -1.052412
      22A     -0.981608    23A     -0.960949    24A     -0.879847
      25A     -0.839650    26A     -0.817452    27A     -0.752895
      28A     -0.711021    29A     -0.677526    30A     -0.668347
      31A     -0.643001    32A     -0.631426    33A     -0.624504
      34A     -0.617072    35A     -0.608324    36A     -0.577059
      37A     -0.570933    38A     -0.541828    39A     -0.514196
      40A     -0.507914    41A     -0.483363    42A     -0.479880
      43A     -0.472000    44A     -0.426982    45A     -0.418994
      46A     -0.345573

  @DF-RHF Final Energy:  -905.30327679487800

   => Energetics <=

    Nuclear Repulsion Energy =            797.5956522620640499
    One-Electron Energy =               -2826.1087386319213692
    Two-Electron Energy =                1123.2098095749793174
    Total Energy =                       -905.3032767948780020
  Basis Set: (AUG-CC-PVTZ AUX)
    Blend: AUG-CC-PVTZ-RI
    Molecular point group: c1

    Geometry (in Angstrom), charge = 0, multiplicity = 1:

       Center              X                  Y                   Z               Mass
    ------------   -----------------  -----------------  -----------------  -----------------
         S            0.771023230086    -0.675209526725    -0.281030075608    31.972071174400
         O            0.750125230086    -1.827175526725     0.629038924392    15.994914619570
         O            1.146321230086    -0.802775526725    -1.683884075608    15.994914619570
         N            1.743884230086     0.487143473275     0.393872924392    14.003074004430
         N           -1.841748769914    -0.736809526725     0.490707924392    14.003074004430
         N           -1.319792769914     1.121501473275    -0.639651075608    14.003074004430
         C           -0.858477669914    -0.056553526725    -0.162264075608    12.000000000000
         C            1.467922230086     0.778797473275     1.804010924392    12.000000000000
         C            1.967613230086     1.687341473275    -0.427074075608    12.000000000000
         C           -2.989360769914     0.009327473275     0.429323924392    12.000000000000
         C           -2.640855769914     1.152235473275    -0.268003075608    12.000000000000
         H            1.355648230086    -0.157064526725     2.350425924392     1.007825032230
         H            0.569711230086     1.399904473275     1.927622924392     1.007825032230
         H            2.330649230086     1.317103473275     2.202380924392     1.007825032230
         H            2.178075230086     1.383160473275    -1.450902075608     1.007825032230
         H            2.843284230086     2.197287473275    -0.018987075608     1.007825032230
         H            1.101673230086     2.359035473275    -0.410699075608     1.007825032230
         H           -1.693569769914    -1.643333526725     0.924544924392     1.007825032230
         H           -3.918973769914    -0.323384526725     0.867503924392     1.007825032230
         H           -3.273424769914     1.992117473275    -0.522242075608     1.007825032230

  Basis Set: AUG-CC-PVTZ
    Blend: AUG-CC-PVTZ
  Basis Set: (AUG-CC-PVTZ AUX)
    Blend: AUG-CC-PVTZ-JKFIT
	 Reference Energy          =    -905.3032767948780020 [Eh]
	 Singles Energy            =      -0.0000000000000000 [Eh]
	 Same-Spin Energy          =      -0.5981798075410177 [Eh]
	 Opposite-Spin Energy      =      -1.7765690785098842 [Eh]
	 Correlation Energy        =      -2.3747488860509018 [Eh]
	 Total Energy              =    -907.6780256809289540 [Eh]

	 ================> DF-SCS-MP2 Energies <==================
	-----------------------------------------------------------
	 SCS Same-Spin Scale       =       0.3333333333333333 [-]
	 SCS Opposite-Spin Scale   =       1.2000000000000000 [-]
	 SCS Same-Spin Energy      =      -0.1993932691803392 [Eh]
	 SCS Opposite-Spin Energy  =      -2.1318828942118611 [Eh]
	 SCS Correlation Energy    =      -2.3312761633922001 [Eh]
	 SCS Total Energy          =    -907.6345529582702056 [Eh]
	-----------------------------------------------------------

  Dipole Moment: [D]
     X:    -2.7352      Y:     1.8936      Z:     3.5829     Total:     4.8891

*** Psi4 exiting successfully. Buy a developer a beer!
