                               Psi4 1.3.2 release

  ==> Input File <==

--------------------------------------------------------------------------
#psi4
#
memory 32 gb

molecule  {
0 1
  S        0.7637890    -0.7221230    -0.3122950
  O        0.7428910    -1.8740890     0.5977740
  O        1.1390870    -0.8496890    -1.7151490
  N        1.7366500     0.4402300     0.3626080
  N       -1.8489830    -0.7837230     0.4594430
  N       -1.3270270     1.0745880    -0.6709160
  C       -0.8393255    -0.0761501    -0.2157199
  C        1.4606880     0.7318840     1.7727460
  C        1.9603790     1.6404280    -0.4583390
  C       -2.9965950    -0.0375860     0.3980590
  C       -2.6480900     1.1053220    -0.2992680
  H        1.3484140    -0.2039780     2.3191610
  H        0.5624770     1.3529910     1.8963580
  H        2.3234150     1.2701900     2.1711160
  H        2.1708410     1.3362470    -1.4821670
  H        2.8360500     2.1503740    -0.0502520
  H        1.0944390     2.3121220    -0.4419640
  H       -1.7008040    -1.6902470     0.8932800
  H       -3.9262080    -0.3702980     0.8362390
  H       -3.2806590     1.9452040    -0.5535070
units angstrom
no_reorient  #important for SAPT in psi4, default
symmetry c1  #important for SAPT in psi4, default
}

set PROPERTIES_ORIGIN ["COM"]
properties('MP2/aug-cc-pvtz', properties = ['dipole'])
--------------------------------------------------------------------------

    Molecular point group: c1
  Charge       = 0
  Multiplicity = 1
  Basis Set: AUG-CC-PVTZ
    Blend: AUG-CC-PVTZ
  Basis Set: (AUG-CC-PVTZ AUX)
    Blend: AUG-CC-PVTZ-JKFIT

    Orbital Energies [Eh]
    ---------------------

    Doubly Occupied:

       1A    -92.216058     2A    -20.559536     3A    -20.555087
       4A    -15.653695     5A    -15.610280     6A    -15.590653
       7A    -11.338027     8A    -11.297241     9A    -11.274865
      10A    -11.273493    11A    -11.266111    12A     -9.180917
      13A     -6.866229    14A     -6.865742    15A     -6.865310
      16A     -1.465520    17A     -1.359757    18A     -1.345619
      19A     -1.257886    20A     -1.194460    21A     -1.053278
      22A     -0.981471    23A     -0.962270    24A     -0.882171
      25A     -0.839828    26A     -0.808011    27A     -0.753178
      28A     -0.711234    29A     -0.679166    30A     -0.668588
      31A     -0.643784    32A     -0.629743    33A     -0.620332
      34A     -0.616451    35A     -0.608645    36A     -0.577096
      37A     -0.570898    38A     -0.541733    39A     -0.515644
      40A     -0.508213    41A     -0.486386    42A     -0.479983
      43A     -0.471376    44A     -0.429251    45A     -0.417973
      46A     -0.345518

  @DF-RHF Final Energy:  -905.30114679004862

   => Energetics <=

    Nuclear Repulsion Energy =            797.7115104369114533
    One-Electron Energy =               -2826.3478972702469036
    Two-Electron Energy =                1123.3352400432868308
    Total Energy =                       -905.3011467900487332
  Basis Set: (AUG-CC-PVTZ AUX)
    Blend: AUG-CC-PVTZ-RI
    Molecular point group: c1

    Geometry (in Angstrom), charge = 0, multiplicity = 1:

       Center              X                  Y                   Z               Mass
    ------------   -----------------  -----------------  -----------------  -----------------
         S            0.769214306409    -0.677082240971    -0.279508775074    31.972071174400
         O            0.748316306409    -1.829048240971     0.630560224926    15.994914619570
         O            1.144512306409    -0.804648240971    -1.682362775074    15.994914619570
         N            1.742075306409     0.485270759029     0.395394224926    14.003074004430
         N           -1.843557693591    -0.738682240971     0.492229224926    14.003074004430
         N           -1.321601693591     1.119628759029    -0.638129775074    14.003074004430
         C           -0.833900193591    -0.031109340971    -0.182933675074    12.000000000000
         C            1.466113306409     0.776924759029     1.805532224926    12.000000000000
         C            1.965804306409     1.685468759029    -0.425552775074    12.000000000000
         C           -2.991169693591     0.007454759029     0.430845224926    12.000000000000
         C           -2.642664693591     1.150362759029    -0.266481775074    12.000000000000
         H            1.353839306409    -0.158937240971     2.351947224926     1.007825032230
         H            0.567902306409     1.398031759029     1.929144224926     1.007825032230
         H            2.328840306409     1.315230759029     2.203902224926     1.007825032230
         H            2.176266306409     1.381287759029    -1.449380775074     1.007825032230
         H            2.841475306409     2.195414759029    -0.017465775074     1.007825032230
         H            1.099864306409     2.357162759029    -0.409177775074     1.007825032230
         H           -1.695378693591    -1.645206240971     0.926066224926     1.007825032230
         H           -3.920782693591    -0.325257240971     0.869025224926     1.007825032230
         H           -3.275233693591     1.990244759029    -0.520720775074     1.007825032230

  Basis Set: AUG-CC-PVTZ
    Blend: AUG-CC-PVTZ
  Basis Set: (AUG-CC-PVTZ AUX)
    Blend: AUG-CC-PVTZ-JKFIT
	 Reference Energy          =    -905.3011467900486196 [Eh]
	 Singles Energy            =      -0.0000000000000000 [Eh]
	 Same-Spin Energy          =      -0.5981979499143054 [Eh]
	 Opposite-Spin Energy      =      -1.7768123558080151 [Eh]
	 Correlation Energy        =      -2.3750103057223204 [Eh]
	 Total Energy              =    -907.6761570957709182 [Eh]

	 ================> DF-SCS-MP2 Energies <==================
	-----------------------------------------------------------
	 SCS Same-Spin Scale       =       0.3333333333333333 [-]
	 SCS Opposite-Spin Scale   =       1.2000000000000000 [-]
	 SCS Same-Spin Energy      =      -0.1993993166381018 [Eh]
	 SCS Opposite-Spin Energy  =      -2.1321748269696181 [Eh]
	 SCS Correlation Energy    =      -2.3315741436077198 [Eh]
	 SCS Total Energy          =    -907.6327209336562873 [Eh]
	-----------------------------------------------------------

  Dipole Moment: [D]
     X:    -2.7318      Y:     1.9313      Z:     3.5576     Total:     4.8835

*** Psi4 exiting successfully. Buy a developer a beer!
