                               Psi4 1.4a3.dev225

  ==> Input File <==

--------------------------------------------------------------------------
#psi4
#
memory 32 gb

molecule  {
0 1
  S        0.7637890    -0.7221230    -0.3122950
  O        0.7428910    -1.8740890     0.5977740
  O        1.1390870    -0.8496890    -1.7151490
  N        1.7659668     0.4752571     0.3829459
  N       -1.8489830    -0.7837230     0.4594430
  N       -1.3270270     1.0745880    -0.6709160
  C       -0.8811970    -0.0860610    -0.1982810
  C        1.4606880     0.7318840     1.7727460
  C        1.9603790     1.6404280    -0.4583390
  C       -2.9965950    -0.0375860     0.3980590
  C       -2.6480900     1.1053220    -0.2992680
  H        1.3484140    -0.2039780     2.3191610
  H        0.5624770     1.3529910     1.8963580
  H        2.3234150     1.2701900     2.1711160
  H        2.1708410     1.3362470    -1.4821670
  H        2.8360500     2.1503740    -0.0502520
  H        1.0944390     2.3121220    -0.4419640
  H       -1.7008040    -1.6902470     0.8932800
  H       -3.9262080    -0.3702980     0.8362390
  H       -3.2806590     1.9452040    -0.5535070
units angstrom
no_reorient  #important for SAPT in psi4, default
symmetry c1  #important for SAPT in psi4, default
}

set PROPERTIES_ORIGIN ["COM"]
properties('MP2/aug-cc-pvtz', properties = ['dipole'])
--------------------------------------------------------------------------

    Molecular point group: c1
  Charge       = 0
  Multiplicity = 1
  Basis Set: AUG-CC-PVTZ
    Blend: AUG-CC-PVTZ
  Basis Set: (AUG-CC-PVTZ AUX)
    Blend: AUG-CC-PVTZ-JKFIT

    Orbital Energies [Eh]
    ---------------------

    Doubly Occupied:

       1A    -92.216585     2A    -20.560931     3A    -20.558355
       4A    -15.656559     5A    -15.611480     6A    -15.588084
       7A    -11.339299     8A    -11.294478     9A    -11.274573
      10A    -11.271901    11A    -11.262576    12A     -9.181152
      13A     -6.866242    14A     -6.865857    15A     -6.865466
      16A     -1.463390    17A     -1.371286    18A     -1.346951
      19A     -1.258367    20A     -1.199986    21A     -1.051313
      22A     -0.985084    23A     -0.953166    24A     -0.873770
      25A     -0.841619    26A     -0.819616    27A     -0.754070
      28A     -0.712491    29A     -0.676345    30A     -0.666778
      31A     -0.644750    32A     -0.633840    33A     -0.627005
      34A     -0.618852    35A     -0.610512    36A     -0.575093
      37A     -0.570052    38A     -0.547390    39A     -0.512559
      40A     -0.509540    41A     -0.483874    42A     -0.481484
      43A     -0.470650    44A     -0.430233    45A     -0.412273
      46A     -0.347405

  @DF-RHF Final Energy:  -905.30197716575094

   => Energetics <=

    Nuclear Repulsion Energy =            796.2471317099302723
    One-Electron Energy =               -2823.3716557163879770
    Two-Electron Energy =                1121.8225468407067638
    Total Energy =                       -905.3019771657509409
  Basis Set: (AUG-CC-PVTZ AUX)
    Blend: AUG-CC-PVTZ-RI
    Molecular point group: c1

    Geometry (in Angstrom), charge = 0, multiplicity = 1:

       Center              X                  Y                   Z               Mass
    ------------   -----------------  -----------------  -----------------  -----------------
         S            0.769739511318    -0.679204915720    -0.282331304497    31.972071174400
         O            0.748841511318    -1.831170915720     0.627737695503    15.994914619570
         O            1.145037511318    -0.806770915720    -1.685185304497    15.994914619570
         N            1.771917311318     0.518175184280     0.412909595503    14.003074004430
         N           -1.843032488682    -0.740804915720     0.489406695503    14.003074004430
         N           -1.321076488682     1.117506084280    -0.640952304497    14.003074004430
         C           -0.875246488682    -0.043142915720    -0.168317304497    12.000000000000
         C            1.466638511318     0.774802084280     1.802709695503    12.000000000000
         C            1.966329511318     1.683346084280    -0.428375304497    12.000000000000
         C           -2.990644488682     0.005332084280     0.428022695503    12.000000000000
         C           -2.642139488682     1.148240084280    -0.269304304497    12.000000000000
         H            1.354364511318    -0.161059915720     2.349124695503     1.007825032230
         H            0.568427511318     1.395909084280     1.926321695503     1.007825032230
         H            2.329365511318     1.313108084280     2.201079695503     1.007825032230
         H            2.176791511318     1.379165084280    -1.452203304497     1.007825032230
         H            2.842000511318     2.193292084280    -0.020288304497     1.007825032230
         H            1.100389511318     2.355040084280    -0.412000304497     1.007825032230
         H           -1.694853488682    -1.647328915720     0.923243695503     1.007825032230
         H           -3.920257488682    -0.327379915720     0.866202695503     1.007825032230
         H           -3.274708488682     1.988122084280    -0.523543304497     1.007825032230

  Basis Set: AUG-CC-PVTZ
    Blend: AUG-CC-PVTZ
  Basis Set: (AUG-CC-PVTZ AUX)
    Blend: AUG-CC-PVTZ-JKFIT
	 Reference Energy          =    -905.3019771657509409 [Eh]
	 Singles Energy            =      -0.0000000000000000 [Eh]
	 Same-Spin Energy          =      -0.5980118589574941 [Eh]
	 Opposite-Spin Energy      =      -1.7765076679261120 [Eh]
	 Correlation Energy        =      -2.3745195268836063 [Eh]
	 Total Energy              =    -907.6764966926346005 [Eh]

	 ================> DF-SCS-MP2 Energies <==================
	-----------------------------------------------------------
	 SCS Same-Spin Scale       =       0.3333333333333333 [-]
	 SCS Opposite-Spin Scale   =       1.2000000000000000 [-]
	 SCS Same-Spin Energy      =      -0.1993372863191647 [Eh]
	 SCS Opposite-Spin Energy  =      -2.1318092015113344 [Eh]
	 SCS Correlation Energy    =      -2.3311464878304990 [Eh]
	 SCS Total Energy          =    -907.6331236535814924 [Eh]
	-----------------------------------------------------------

  Dipole Moment: [D]
     X:    -2.8592      Y:     1.7198      Z:     3.4719     Total:     4.8152

*** Psi4 exiting successfully. Buy a developer a beer!
