                               Psi4 1.3.2 release

  ==> Input File <==

--------------------------------------------------------------------------
#psi4
#
memory 32 gb

molecule  {
0 1
  S        0.7637890    -0.7221230    -0.3122950
  O        0.7428910    -1.8740890     0.5977740
  O        1.1390870    -0.8496890    -1.7151490
  N        1.7366500     0.4402300     0.3626080
  N       -1.8489830    -0.7837230     0.4594430
  N       -1.3270270     1.0745880    -0.6709160
  C       -0.8811970    -0.0860610    -0.1982810
  C        1.4606880     0.7318840     1.7727460
  C        1.9603790     1.6404280    -0.4583390
  C       -2.9965950    -0.0375860     0.3980590
  C       -2.6935180     1.1210131    -0.2945823
  H        1.3484140    -0.2039780     2.3191610
  H        0.5624770     1.3529910     1.8963580
  H        2.3234150     1.2701900     2.1711160
  H        2.1708410     1.3362470    -1.4821670
  H        2.8360500     2.1503740    -0.0502520
  H        1.0944390     2.3121220    -0.4419640
  H       -1.7008040    -1.6902470     0.8932800
  H       -3.9262080    -0.3702980     0.8362390
  H       -3.2806590     1.9452040    -0.5535070
units angstrom
no_reorient  #important for SAPT in psi4, default
symmetry c1  #important for SAPT in psi4, default
}

set PROPERTIES_ORIGIN ["COM"]
properties('MP2/aug-cc-pvtz', properties = ['dipole'])
--------------------------------------------------------------------------

    Molecular point group: c1
  Charge       = 0
  Multiplicity = 1
  Basis Set: AUG-CC-PVTZ
    Blend: AUG-CC-PVTZ
  Basis Set: (AUG-CC-PVTZ AUX)
    Blend: AUG-CC-PVTZ-JKFIT

    Orbital Energies [Eh]
    ---------------------

    Doubly Occupied:

       1A    -92.216336     2A    -20.559064     3A    -20.556274
       4A    -15.653201     5A    -15.611568     6A    -15.588013
       7A    -11.338346     8A    -11.295870     9A    -11.275297
      10A    -11.274079    11A    -11.265974    12A     -9.180872
      13A     -6.866094    14A     -6.865681    15A     -6.865258
      16A     -1.464698    17A     -1.364301    18A     -1.345620
      19A     -1.258167    20A     -1.188932    21A     -1.050733
      22A     -0.981710    23A     -0.960585    24A     -0.875726
      25A     -0.843446    26A     -0.816752    27A     -0.752662
      28A     -0.710622    29A     -0.676461    30A     -0.668151
      31A     -0.642270    32A     -0.633721    33A     -0.624158
      34A     -0.619884    35A     -0.608932    36A     -0.577307
      37A     -0.571004    38A     -0.541941    39A     -0.514587
      40A     -0.508226    41A     -0.485940    42A     -0.480326
      43A     -0.467821    44A     -0.423359    45A     -0.417116
      46A     -0.349296

  @DF-RHF Final Energy:  -905.30273758429450

   => Energetics <=

    Nuclear Repulsion Energy =            796.3148343239639644
    One-Electron Energy =               -2823.5623915663259140
    Two-Electron Energy =                1121.9448196580672175
    Total Energy =                       -905.3027375842946185
  Basis Set: (AUG-CC-PVTZ AUX)
    Blend: AUG-CC-PVTZ-RI
    Molecular point group: c1

    Geometry (in Angstrom), charge = 0, multiplicity = 1:

       Center              X                  Y                   Z               Mass
    ------------   -----------------  -----------------  -----------------  -----------------
         S            0.775199136946    -0.677478503463    -0.281025530401    31.972071174400
         O            0.754301136946    -1.829444503463     0.629043469599    15.994914619570
         O            1.150497136946    -0.805044503463    -1.683879530401    15.994914619570
         N            1.748060136946     0.484874496537     0.393877469599    14.003074004430
         N           -1.837572863054    -0.739078503463     0.490712469599    14.003074004430
         N           -1.315616863054     1.119232496537    -0.639646530401    14.003074004430
         C           -0.869786863054    -0.041416503463    -0.167011530401    12.000000000000
         C            1.472098136946     0.776528496537     1.804015469599    12.000000000000
         C            1.971789136946     1.685072496537    -0.427069530401    12.000000000000
         C           -2.985184863054     0.007058496537     0.429328469599    12.000000000000
         C           -2.682107863054     1.165657596537    -0.263312830401    12.000000000000
         H            1.359824136946    -0.159333503463     2.350430469599     1.007825032230
         H            0.573887136946     1.397635496537     1.927627469599     1.007825032230
         H            2.334825136946     1.314834496537     2.202385469599     1.007825032230
         H            2.182251136946     1.380891496537    -1.450897530401     1.007825032230
         H            2.847460136946     2.195018496537    -0.018982530401     1.007825032230
         H            1.105849136946     2.356766496537    -0.410694530401     1.007825032230
         H           -1.689393863054    -1.645602503463     0.924549469599     1.007825032230
         H           -3.914797863054    -0.325653503463     0.867508469599     1.007825032230
         H           -3.269248863054     1.989848496537    -0.522237530401     1.007825032230

  Basis Set: AUG-CC-PVTZ
    Blend: AUG-CC-PVTZ
  Basis Set: (AUG-CC-PVTZ AUX)
    Blend: AUG-CC-PVTZ-JKFIT
	 Reference Energy          =    -905.3027375842945048 [Eh]
	 Singles Energy            =      -0.0000000000000000 [Eh]
	 Same-Spin Energy          =      -0.5971470245083963 [Eh]
	 Opposite-Spin Energy      =      -1.7759360695401585 [Eh]
	 Correlation Energy        =      -2.3730830940485550 [Eh]
	 Total Energy              =    -907.6758206783430296 [Eh]

	 ================> DF-SCS-MP2 Energies <==================
	-----------------------------------------------------------
	 SCS Same-Spin Scale       =       0.3333333333333333 [-]
	 SCS Opposite-Spin Scale   =       1.2000000000000000 [-]
	 SCS Same-Spin Energy      =      -0.1990490081694654 [Eh]
	 SCS Opposite-Spin Energy  =      -2.1311232834481899 [Eh]
	 SCS Correlation Energy    =      -2.3301722916176555 [Eh]
	 SCS Total Energy          =    -907.6329098759121052 [Eh]
	-----------------------------------------------------------

  Dipole Moment: [D]
     X:    -2.6757      Y:     1.9020      Z:     3.5672     Total:     4.8479

*** Psi4 exiting successfully. Buy a developer a beer!
