                               Psi4 1.3.2 release

  ==> Input File <==

--------------------------------------------------------------------------
#psi4
#
memory 32 gb

molecule  {
0 1
  S        0.7637890    -0.7221230    -0.3122950
  O        0.7428910    -1.8740890     0.5977740
  O        1.1390870    -0.8496890    -1.7151490
  N        1.7366500     0.4402300     0.3626080
  N       -1.8489830    -0.7837230     0.4594430
  N       -1.3270270     1.0745880    -0.6709160
  C       -0.9236117    -0.0945579    -0.1814179
  C        1.4606880     0.7318840     1.7727460
  C        1.9603790     1.6404280    -0.4583390
  C       -2.9965950    -0.0375860     0.3980590
  C       -2.6480900     1.1053220    -0.2992680
  H        1.3484140    -0.2039780     2.3191610
  H        0.5624770     1.3529910     1.8963580
  H        2.3234150     1.2701900     2.1711160
  H        2.1708410     1.3362470    -1.4821670
  H        2.8360500     2.1503740    -0.0502520
  H        1.0944390     2.3121220    -0.4419640
  H       -1.7008040    -1.6902470     0.8932800
  H       -3.9262080    -0.3702980     0.8362390
  H       -3.2806590     1.9452040    -0.5535070
units angstrom
no_reorient  #important for SAPT in psi4, default
symmetry c1  #important for SAPT in psi4, default
}

set PROPERTIES_ORIGIN ["COM"]
properties('MP2/aug-cc-pvtz', properties = ['dipole'])
--------------------------------------------------------------------------

    Molecular point group: c1
  Charge       = 0
  Multiplicity = 1
  Basis Set: AUG-CC-PVTZ
    Blend: AUG-CC-PVTZ
  Basis Set: (AUG-CC-PVTZ AUX)
    Blend: AUG-CC-PVTZ-JKFIT

    Orbital Energies [Eh]
    ---------------------

    Doubly Occupied:

       1A    -92.215094     2A    -20.557415     3A    -20.556444
       4A    -15.656425     5A    -15.612121     6A    -15.582971
       7A    -11.337194     8A    -11.289231     9A    -11.275608
      10A    -11.273865    11A    -11.266043    12A     -9.179373
      13A     -6.864513    14A     -6.864157    15A     -6.863745
      16A     -1.463136    17A     -1.381849    18A     -1.344970
      19A     -1.258018    20A     -1.203620    21A     -1.047173
      22A     -0.981874    23A     -0.957888    24A     -0.872502
      25A     -0.841609    26A     -0.828695    27A     -0.752538
      28A     -0.710143    29A     -0.674849    30A     -0.667722
      31A     -0.643103    32A     -0.635746    33A     -0.629642
      34A     -0.616887    35A     -0.608286    36A     -0.577224
      37A     -0.571242    38A     -0.542078    39A     -0.512396
      40A     -0.507520    41A     -0.485204    42A     -0.479766
      43A     -0.470024    44A     -0.430100    45A     -0.417583
      46A     -0.346468

  @DF-RHF Final Energy:  -905.30529198942975

   => Energetics <=

    Nuclear Repulsion Energy =            797.2703164656094259
    One-Electron Energy =               -2825.4431133763082471
    Two-Electron Energy =                1122.8675049212690737
    Total Energy =                       -905.3052919894296338
  Basis Set: (AUG-CC-PVTZ AUX)
    Blend: AUG-CC-PVTZ-RI
    Molecular point group: c1

    Geometry (in Angstrom), charge = 0, multiplicity = 1:

       Center              X                  Y                   Z               Mass
    ------------   -----------------  -----------------  -----------------  -----------------
         S            0.774992559705    -0.675820291434    -0.281860353915    31.972071174400
         O            0.754094559705    -1.827786291434     0.628208646085    15.994914619570
         O            1.150290559705    -0.803386291434    -1.684714353915    15.994914619570
         N            1.747853559705     0.486532708566     0.393042646085    14.003074004430
         N           -1.837779440295    -0.737420291434     0.489877646085    14.003074004430
         N           -1.315823440295     1.120890708566    -0.640481353915    14.003074004430
         C           -0.912408140295    -0.048255191434    -0.150983253915    12.000000000000
         C            1.471891559705     0.778186708566     1.803180646085    12.000000000000
         C            1.971582559705     1.686730708566    -0.427904353915    12.000000000000
         C           -2.985391440295     0.008716708566     0.428493646085    12.000000000000
         C           -2.636886440295     1.151624708566    -0.268833353915    12.000000000000
         H            1.359617559705    -0.157675291434     2.349595646085     1.007825032230
         H            0.573680559705     1.399293708566     1.926792646085     1.007825032230
         H            2.334618559705     1.316492708566     2.201550646085     1.007825032230
         H            2.182044559705     1.382549708566    -1.451732353915     1.007825032230
         H            2.847253559705     2.196676708566    -0.019817353915     1.007825032230
         H            1.105642559705     2.358424708566    -0.411529353915     1.007825032230
         H           -1.689600440295    -1.643944291434     0.923714646085     1.007825032230
         H           -3.915004440295    -0.323995291434     0.866673646085     1.007825032230
         H           -3.269455440295     1.991506708566    -0.523072353915     1.007825032230

  Basis Set: AUG-CC-PVTZ
    Blend: AUG-CC-PVTZ
  Basis Set: (AUG-CC-PVTZ AUX)
    Blend: AUG-CC-PVTZ-JKFIT
	 Reference Energy          =    -905.3052919894297474 [Eh]
	 Singles Energy            =      -0.0000000000000000 [Eh]
	 Same-Spin Energy          =      -0.5969011955226029 [Eh]
	 Opposite-Spin Energy      =      -1.7743844802342041 [Eh]
	 Correlation Energy        =      -2.3712856757568073 [Eh]
	 Total Energy              =    -907.6765776651865281 [Eh]

	 ================> DF-SCS-MP2 Energies <==================
	-----------------------------------------------------------
	 SCS Same-Spin Scale       =       0.3333333333333333 [-]
	 SCS Opposite-Spin Scale   =       1.2000000000000000 [-]
	 SCS Same-Spin Energy      =      -0.1989670651742010 [Eh]
	 SCS Opposite-Spin Energy  =      -2.1292613762810451 [Eh]
	 SCS Correlation Energy    =      -2.3282284414552459 [Eh]
	 SCS Total Energy          =    -907.6335204308850280 [Eh]
	-----------------------------------------------------------

  Dipole Moment: [D]
     X:    -2.6305      Y:     1.8482      Z:     3.5823     Total:     4.8133

*** Psi4 exiting successfully. Buy a developer a beer!
