                               Psi4 1.3.2 release

  ==> Input File <==

--------------------------------------------------------------------------
#psi4
#
memory 32 gb

molecule  {
0 1
  S        0.7637890    -0.7221230    -0.3122950
  O        0.7580194    -1.9039064     0.5589355
  O        1.1390870    -0.8496890    -1.7151490
  N        1.7366500     0.4402300     0.3626080
  N       -1.8489830    -0.7837230     0.4594430
  N       -1.3270270     1.0745880    -0.6709160
  C       -0.8811970    -0.0860610    -0.1982810
  C        1.4606880     0.7318840     1.7727460
  C        1.9603790     1.6404280    -0.4583390
  C       -2.9965950    -0.0375860     0.3980590
  C       -2.6480900     1.1053220    -0.2992680
  H        1.3484140    -0.2039780     2.3191610
  H        0.5624770     1.3529910     1.8963580
  H        2.3234150     1.2701900     2.1711160
  H        2.1708410     1.3362470    -1.4821670
  H        2.8360500     2.1503740    -0.0502520
  H        1.0944390     2.3121220    -0.4419640
  H       -1.7008040    -1.6902470     0.8932800
  H       -3.9262080    -0.3702980     0.8362390
  H       -3.2806590     1.9452040    -0.5535070
units angstrom
no_reorient  #important for SAPT in psi4, default
symmetry c1  #important for SAPT in psi4, default
}

set PROPERTIES_ORIGIN ["COM"]
properties('MP2/aug-cc-pvtz', properties = ['dipole'])
--------------------------------------------------------------------------

    Molecular point group: c1
  Charge       = 0
  Multiplicity = 1
  Basis Set: AUG-CC-PVTZ
    Blend: AUG-CC-PVTZ
  Basis Set: (AUG-CC-PVTZ AUX)
    Blend: AUG-CC-PVTZ-JKFIT

    Orbital Energies [Eh]
    ---------------------

    Doubly Occupied:

       1A    -92.215125     2A    -20.558134     3A    -20.552510
       4A    -15.656080     5A    -15.612187     6A    -15.587544
       7A    -11.338570     8A    -11.293862     9A    -11.276491
      10A    -11.274286    11A    -11.266690    12A     -9.179727
      13A     -6.864948    14A     -6.864475    15A     -6.864155
      16A     -1.463352    17A     -1.370777    18A     -1.342289
      19A     -1.259156    20A     -1.199538    21A     -1.051023
      22A     -0.982568    23A     -0.960769    24A     -0.877682
      25A     -0.841342    26A     -0.819131    27A     -0.752904
      28A     -0.710079    29A     -0.677327    30A     -0.667408
      31A     -0.643388    32A     -0.633319    33A     -0.625760
      34A     -0.617117    35A     -0.608387    36A     -0.578377
      37A     -0.571809    38A     -0.542509    39A     -0.513655
      40A     -0.505383    41A     -0.486088    42A     -0.477429
      43A     -0.471981    44A     -0.430045    45A     -0.418834
      46A     -0.346823

  @DF-RHF Final Energy:  -905.30612011410699

   => Energetics <=

    Nuclear Repulsion Energy =            797.0417479483402303
    One-Electron Energy =               -2824.9936725526040391
    Two-Electron Energy =                1122.6458044901567064
    Total Energy =                       -905.3061201141069887
  Basis Set: (AUG-CC-PVTZ AUX)
    Blend: AUG-CC-PVTZ-RI
    Molecular point group: c1

    Geometry (in Angstrom), charge = 0, multiplicity = 1:

       Center              X                  Y                   Z               Mass
    ------------   -----------------  -----------------  -----------------  -----------------
         S            0.770702413302    -0.673678148771    -0.277155324154    31.972071174400
         O            0.764932813302    -1.855461548771     0.594075175846    15.994914619570
         O            1.146000413302    -0.801244148771    -1.680009324154    15.994914619570
         N            1.743563413302     0.488674851229     0.397747675846    14.003074004430
         N           -1.842069586698    -0.735278148771     0.494582675846    14.003074004430
         N           -1.320113586698     1.123032851229    -0.635776324154    14.003074004430
         C           -0.874283586698    -0.037616148771    -0.163141324154    12.000000000000
         C            1.467601413302     0.780328851229     1.807885675846    12.000000000000
         C            1.967292413302     1.688872851229    -0.423199324154    12.000000000000
         C           -2.989681586698     0.010858851229     0.433198675846    12.000000000000
         C           -2.641176586698     1.153766851229    -0.264128324154    12.000000000000
         H            1.355327413302    -0.155533148771     2.354300675846     1.007825032230
         H            0.569390413302     1.401435851229     1.931497675846     1.007825032230
         H            2.330328413302     1.318634851229     2.206255675846     1.007825032230
         H            2.177754413302     1.384691851229    -1.447027324154     1.007825032230
         H            2.842963413302     2.198818851229    -0.015112324154     1.007825032230
         H            1.101352413302     2.360566851229    -0.406824324154     1.007825032230
         H           -1.693890586698    -1.641802148771     0.928419675846     1.007825032230
         H           -3.919294586698    -0.321853148771     0.871378675846     1.007825032230
         H           -3.273745586698     1.993648851229    -0.518367324154     1.007825032230

  Basis Set: AUG-CC-PVTZ
    Blend: AUG-CC-PVTZ
  Basis Set: (AUG-CC-PVTZ AUX)
    Blend: AUG-CC-PVTZ-JKFIT
	 Reference Energy          =    -905.3061201141069887 [Eh]
	 Singles Energy            =      -0.0000000000000000 [Eh]
	 Same-Spin Energy          =      -0.5973126247530713 [Eh]
	 Opposite-Spin Energy      =      -1.7751828201725450 [Eh]
	 Correlation Energy        =      -2.3724954449256161 [Eh]
	 Total Energy              =    -907.6786155590325507 [Eh]

	 ================> DF-SCS-MP2 Energies <==================
	-----------------------------------------------------------
	 SCS Same-Spin Scale       =       0.3333333333333333 [-]
	 SCS Opposite-Spin Scale   =       1.2000000000000000 [-]
	 SCS Same-Spin Energy      =      -0.1991042082510238 [Eh]
	 SCS Opposite-Spin Energy  =      -2.1302193842070540 [Eh]
	 SCS Correlation Energy    =      -2.3293235924580777 [Eh]
	 SCS Total Energy          =    -907.6354437065650700 [Eh]
	-----------------------------------------------------------

  Dipole Moment: [D]
     X:    -2.7374      Y:     1.9762      Z:     3.6686     Total:     4.9857

*** Psi4 exiting successfully. Buy a developer a beer!
