                               Psi4 1.3.2 release

  ==> Input File <==

--------------------------------------------------------------------------
#psi4
#
memory 32 gb

molecule  {
0 1
  S        0.7637890    -0.7221230    -0.3122950
  O        0.7428910    -1.8740890     0.5977740
  O        1.1390870    -0.8496890    -1.7151490
  N        1.6413130     0.5031256     0.3817761
  N       -1.8489830    -0.7837230     0.4594430
  N       -1.3270270     1.0745880    -0.6709160
  C       -0.8811970    -0.0860610    -0.1982810
  C        1.4606880     0.7318840     1.7727460
  C        1.9603790     1.6404280    -0.4583390
  C       -2.9965950    -0.0375860     0.3980590
  C       -2.6480900     1.1053220    -0.2992680
  H        1.3484140    -0.2039780     2.3191610
  H        0.5624770     1.3529910     1.8963580
  H        2.3234150     1.2701900     2.1711160
  H        2.1708410     1.3362470    -1.4821670
  H        2.8360500     2.1503740    -0.0502520
  H        1.0944390     2.3121220    -0.4419640
  H       -1.7008040    -1.6902470     0.8932800
  H       -3.9262080    -0.3702980     0.8362390
  H       -3.2806590     1.9452040    -0.5535070
units angstrom
no_reorient  #important for SAPT in psi4, default
symmetry c1  #important for SAPT in psi4, default
}

set PROPERTIES_ORIGIN ["COM"]
properties('MP2/aug-cc-pvtz', properties = ['dipole'])
--------------------------------------------------------------------------

    Molecular point group: c1
  Charge       = 0
  Multiplicity = 1
  Basis Set: AUG-CC-PVTZ
    Blend: AUG-CC-PVTZ
  Basis Set: (AUG-CC-PVTZ AUX)
    Blend: AUG-CC-PVTZ-JKFIT

    Orbital Energies [Eh]
    ---------------------

    Doubly Occupied:

       1A    -92.219360     2A    -20.561888     3A    -20.560497
       4A    -15.652821     5A    -15.604726     6A    -15.583902
       7A    -11.334603     8A    -11.290481     9A    -11.272435
      10A    -11.271606    11A    -11.265515    12A     -9.183250
      13A     -6.868537    14A     -6.868072    15A     -6.867770
      16A     -1.466660    17A     -1.368014    18A     -1.348307
      19A     -1.269141    20A     -1.196513    21A     -1.049094
      22A     -0.989595    23A     -0.962759    24A     -0.871817
      25A     -0.838482    26A     -0.815720    27A     -0.755588
      28A     -0.715355    29A     -0.679953    30A     -0.672065
      31A     -0.645493    32A     -0.631560    33A     -0.624715
      34A     -0.617689    35A     -0.609330    36A     -0.576895
      37A     -0.570357    38A     -0.553066    39A     -0.518528
      40A     -0.510295    41A     -0.485824    42A     -0.483267
      43A     -0.469057    44A     -0.427427    45A     -0.405180
      46A     -0.342848

  @DF-RHF Final Energy:  -905.30201131885974

   => Energetics <=

    Nuclear Repulsion Energy =            798.9213886935392566
    One-Electron Energy =               -2828.6946861244605316
    Two-Electron Energy =                1124.4712861120615344
    Total Energy =                       -905.3020113188597406
  Basis Set: (AUG-CC-PVTZ AUX)
    Blend: AUG-CC-PVTZ-RI
    Molecular point group: c1

    Geometry (in Angstrom), charge = 0, multiplicity = 1:

       Center              X                  Y                   Z               Mass
    ------------   -----------------  -----------------  -----------------  -----------------
         S            0.779711637416    -0.681434355948    -0.282237722167    31.972071174400
         O            0.758813637416    -1.833400355948     0.627831277833    15.994914619570
         O            1.155009637416    -0.809000355948    -1.685091722167    15.994914619570
         N            1.657235637416     0.543814244052     0.411833377833    14.003074004430
         N           -1.833060362584    -0.743034355948     0.489500277833    14.003074004430
         N           -1.311104362584     1.115276644052    -0.640858722167    14.003074004430
         C           -0.865274362584    -0.045372355948    -0.168223722167    12.000000000000
         C            1.476610637416     0.772572644052     1.802803277833    12.000000000000
         C            1.976301637416     1.681116644052    -0.428281722167    12.000000000000
         C           -2.980672362584     0.003102644052     0.428116277833    12.000000000000
         C           -2.632167362584     1.146010644052    -0.269210722167    12.000000000000
         H            1.364336637416    -0.163289355948     2.349218277833     1.007825032230
         H            0.578399637416     1.393679644052     1.926415277833     1.007825032230
         H            2.339337637416     1.310878644052     2.201173277833     1.007825032230
         H            2.186763637416     1.376935644052    -1.452109722167     1.007825032230
         H            2.851972637416     2.191062644052    -0.020194722167     1.007825032230
         H            1.110361637416     2.352810644052    -0.411906722167     1.007825032230
         H           -1.684881362584    -1.649558355948     0.923337277833     1.007825032230
         H           -3.910285362584    -0.329609355948     0.866296277833     1.007825032230
         H           -3.264736362584     1.985892644052    -0.523449722167     1.007825032230

  Basis Set: AUG-CC-PVTZ
    Blend: AUG-CC-PVTZ
  Basis Set: (AUG-CC-PVTZ AUX)
    Blend: AUG-CC-PVTZ-JKFIT
	 Reference Energy          =    -905.3020113188597406 [Eh]
	 Singles Energy            =      -0.0000000000000000 [Eh]
	 Same-Spin Energy          =      -0.5978501675212076 [Eh]
	 Opposite-Spin Energy      =      -1.7752343423078634 [Eh]
	 Correlation Energy        =      -2.3730845098290709 [Eh]
	 Total Energy              =    -907.6750958286887681 [Eh]

	 ================> DF-SCS-MP2 Energies <==================
	-----------------------------------------------------------
	 SCS Same-Spin Scale       =       0.3333333333333333 [-]
	 SCS Opposite-Spin Scale   =       1.2000000000000000 [-]
	 SCS Same-Spin Energy      =      -0.1992833891737358 [Eh]
	 SCS Opposite-Spin Energy  =      -2.1302812107694358 [Eh]
	 SCS Correlation Energy    =      -2.3295645999431716 [Eh]
	 SCS Total Energy          =    -907.6315759188029233 [Eh]
	-----------------------------------------------------------

  Dipole Moment: [D]
     X:    -2.3692      Y:     1.6852      Z:     3.4779     Total:     4.5330

*** Psi4 exiting successfully. Buy a developer a beer!
