                               Psi4 1.3.2 release

  ==> Input File <==

--------------------------------------------------------------------------
#psi4
#
memory 32 gb

molecule  {
0 1
  S        0.7637890    -0.7221230    -0.3122950
  O        0.7428910    -1.8740890     0.5977740
  O        1.1390870    -0.8496890    -1.7151490
  N        1.7366500     0.4402300     0.3626080
  N       -1.8489830    -0.7837230     0.4594430
  N       -1.3270270     1.0745880    -0.6709160
  C       -0.8811970    -0.0860610    -0.1982810
  C        1.4606880     0.7318840     1.7727460
  C        1.9603790     1.6404280    -0.4583390
  C       -3.0859827    -0.0017933     0.4053631
  C       -2.6480900     1.1053220    -0.2992680
  H        1.3484140    -0.2039780     2.3191610
  H        0.5624770     1.3529910     1.8963580
  H        2.3234150     1.2701900     2.1711160
  H        2.1708410     1.3362470    -1.4821670
  H        2.8360500     2.1503740    -0.0502520
  H        1.0944390     2.3121220    -0.4419640
  H       -1.7008040    -1.6902470     0.8932800
  H       -3.9262080    -0.3702980     0.8362390
  H       -3.2806590     1.9452040    -0.5535070
units angstrom
no_reorient  #important for SAPT in psi4, default
symmetry c1  #important for SAPT in psi4, default
}

set PROPERTIES_ORIGIN ["COM"]
properties('MP2/aug-cc-pvtz', properties = ['dipole'])
--------------------------------------------------------------------------

    Molecular point group: c1
  Charge       = 0
  Multiplicity = 1
  Basis Set: AUG-CC-PVTZ
    Blend: AUG-CC-PVTZ
  Basis Set: (AUG-CC-PVTZ AUX)
    Blend: AUG-CC-PVTZ-JKFIT

    Orbital Energies [Eh]
    ---------------------

    Doubly Occupied:

       1A    -92.217872     2A    -20.559602     3A    -20.558184
       4A    -15.649667     5A    -15.613295     6A    -15.584792
       7A    -11.344885     8A    -11.293793     9A    -11.280652
      10A    -11.276228    11A    -11.267253    12A     -9.182461
      13A     -6.867695    14A     -6.867259    15A     -6.866826
      16A     -1.465845    17A     -1.353462    18A     -1.345894
      19A     -1.259559    20A     -1.186989    21A     -1.050741
      22A     -0.982883    23A     -0.963470    24A     -0.880481
      25A     -0.836460    26A     -0.813089    27A     -0.752835
      28A     -0.710927    29A     -0.676162    30A     -0.669827
      31A     -0.650207    32A     -0.638407    33A     -0.620126
      34A     -0.610468    35A     -0.597474    36A     -0.577701
      37A     -0.571924    38A     -0.543058    39A     -0.515506
      40A     -0.508398    41A     -0.487665    42A     -0.481223
      43A     -0.472671    44A     -0.422265    45A     -0.419392
      46A     -0.352044

  @DF-RHF Final Energy:  -905.29299523813427

   => Energetics <=

    Nuclear Repulsion Energy =            795.2437745665812372
    One-Electron Energy =               -2821.3783037745261026
    Two-Electron Energy =                1120.8415339698108255
    Total Energy =                       -905.2929952381341536
  Basis Set: (AUG-CC-PVTZ AUX)
    Blend: AUG-CC-PVTZ-RI
    Molecular point group: c1

    Geometry (in Angstrom), charge = 0, multiplicity = 1:

       Center              X                  Y                   Z               Mass
    ------------   -----------------  -----------------  -----------------  -----------------
         S            0.778212800884    -0.678856571717    -0.281205035212    31.972071174400
         O            0.757314800884    -1.830822571717     0.628863964788    15.994914619570
         O            1.153510800884    -0.806422571717    -1.684059035212    15.994914619570
         N            1.751073800884     0.483496428283     0.393697964788    14.003074004430
         N           -1.834559199116    -0.740456571717     0.490532964788    14.003074004430
         N           -1.312603199116     1.117854428283    -0.639826035212    14.003074004430
         C           -0.866773199116    -0.042794571717    -0.167191035212    12.000000000000
         C            1.475111800884     0.775150428283     1.803835964788    12.000000000000
         C            1.974802800884     1.683694428283    -0.427249035212    12.000000000000
         C           -3.071558899116     0.041473128283     0.436453064788    12.000000000000
         C           -2.633666199116     1.148588428283    -0.268178035212    12.000000000000
         H            1.362837800884    -0.160711571717     2.350250964788     1.007825032230
         H            0.576900800884     1.396257428283     1.927447964788     1.007825032230
         H            2.337838800884     1.313456428283     2.202205964788     1.007825032230
         H            2.185264800884     1.379513428283    -1.451077035212     1.007825032230
         H            2.850473800884     2.193640428283    -0.019162035212     1.007825032230
         H            1.108862800884     2.355388428283    -0.410874035212     1.007825032230
         H           -1.686380199116    -1.646980571717     0.924369964788     1.007825032230
         H           -3.911784199116    -0.327031571717     0.867328964788     1.007825032230
         H           -3.266235199116     1.988470428283    -0.522417035212     1.007825032230

  Basis Set: AUG-CC-PVTZ
    Blend: AUG-CC-PVTZ
  Basis Set: (AUG-CC-PVTZ AUX)
    Blend: AUG-CC-PVTZ-JKFIT
	 Reference Energy          =    -905.2929952381342673 [Eh]
	 Singles Energy            =      -0.0000000000000000 [Eh]
	 Same-Spin Energy          =      -0.5971982524775656 [Eh]
	 Opposite-Spin Energy      =      -1.7769734655651772 [Eh]
	 Correlation Energy        =      -2.3741717180427431 [Eh]
	 Total Energy              =    -907.6671669561769704 [Eh]

	 ================> DF-SCS-MP2 Energies <==================
	-----------------------------------------------------------
	 SCS Same-Spin Scale       =       0.3333333333333333 [-]
	 SCS Opposite-Spin Scale   =       1.2000000000000000 [-]
	 SCS Same-Spin Energy      =      -0.1990660841591885 [Eh]
	 SCS Opposite-Spin Energy  =      -2.1323681586782124 [Eh]
	 SCS Correlation Energy    =      -2.3314342428374011 [Eh]
	 SCS Total Energy          =    -907.6244294809716848 [Eh]
	-----------------------------------------------------------

  Dipole Moment: [D]
     X:    -2.6319      Y:     1.9602      Z:     3.5382     Total:     4.8258

*** Psi4 exiting successfully. Buy a developer a beer!
