                               Psi4 1.4a3.dev225

  ==> Input File <==

--------------------------------------------------------------------------
#psi4
#
memory 32 gb

molecule  {
0 1
  S        0.7637890    -0.7221230    -0.3122950
  O        0.7428910    -1.8740890     0.5977740
  O        1.1390870    -0.8496890    -1.7151490
  N        1.7073332     0.4052029     0.3422701
  N       -1.8489830    -0.7837230     0.4594430
  N       -1.3270270     1.0745880    -0.6709160
  C       -0.8811970    -0.0860610    -0.1982810
  C        1.4606880     0.7318840     1.7727460
  C        1.9603790     1.6404280    -0.4583390
  C       -2.9965950    -0.0375860     0.3980590
  C       -2.6480900     1.1053220    -0.2992680
  H        1.3484140    -0.2039780     2.3191610
  H        0.5624770     1.3529910     1.8963580
  H        2.3234150     1.2701900     2.1711160
  H        2.1708410     1.3362470    -1.4821670
  H        2.8360500     2.1503740    -0.0502520
  H        1.0944390     2.3121220    -0.4419640
  H       -1.7008040    -1.6902470     0.8932800
  H       -3.9262080    -0.3702980     0.8362390
  H       -3.2806590     1.9452040    -0.5535070
units angstrom
no_reorient  #important for SAPT in psi4, default
symmetry c1  #important for SAPT in psi4, default
}

set PROPERTIES_ORIGIN ["COM"]
properties('MP2/aug-cc-pvtz', properties = ['dipole'])
--------------------------------------------------------------------------

    Molecular point group: c1
  Charge       = 0
  Multiplicity = 1
  Basis Set: AUG-CC-PVTZ
    Blend: AUG-CC-PVTZ
  Basis Set: (AUG-CC-PVTZ AUX)
    Blend: AUG-CC-PVTZ-JKFIT

    Orbital Energies [Eh]
    ---------------------

    Doubly Occupied:

       1A    -92.213699     2A    -20.555458     3A    -20.552797
       4A    -15.653435     5A    -15.611238     6A    -15.584972
       7A    -11.335299     8A    -11.291535     9A    -11.279473
      10A    -11.272268    11A    -11.270477    12A     -9.178436
      13A     -6.863826    14A     -6.863305    15A     -6.862877
      16A     -1.465459    17A     -1.368488    18A     -1.343364
      19A     -1.259122    20A     -1.197157    21A     -1.048361
      22A     -0.979182    23A     -0.967539    24A     -0.879476
      25A     -0.839233    26A     -0.816874    27A     -0.751767
      28A     -0.708675    29A     -0.677500    30A     -0.669798
      31A     -0.640691    32A     -0.631260    33A     -0.623318
      34A     -0.615156    35A     -0.607084    36A     -0.580773
      37A     -0.572918    38A     -0.536322    39A     -0.515233
      40A     -0.505551    41A     -0.486066    42A     -0.477899
      43A     -0.471242    44A     -0.428686    45A     -0.423694
      46A     -0.344512

  @DF-RHF Final Energy:  -905.30542678309064

   => Energetics <=

    Nuclear Repulsion Energy =            798.7598299080148081
    One-Electron Energy =               -2828.4875255058223047
    Two-Electron Energy =                1124.4222688147167446
    Total Energy =                       -905.3054267830907520
  Basis Set: (AUG-CC-PVTZ AUX)
    Blend: AUG-CC-PVTZ-RI
    Molecular point group: c1

    Geometry (in Angstrom), charge = 0, multiplicity = 1:

       Center              X                  Y                   Z               Mass
    ------------   -----------------  -----------------  -----------------  -----------------
         S            0.774430115638    -0.673600679699    -0.279077298548    31.972071174400
         O            0.753532115638    -1.825566679699     0.630991701452    15.994914619570
         O            1.149728115638    -0.801166679699    -1.681931298548    15.994914619570
         N            1.717974315638     0.453725220301     0.375487801452    14.003074004430
         N           -1.838341884362    -0.735200679699     0.492660701452    14.003074004430
         N           -1.316385884362     1.123110320301    -0.637698298548    14.003074004430
         C           -0.870555884362    -0.037538679699    -0.165063298548    12.000000000000
         C            1.471329115638     0.780406320301     1.805963701452    12.000000000000
         C            1.971020115638     1.688950320301    -0.425121298548    12.000000000000
         C           -2.985953884362     0.010936320301     0.431276701452    12.000000000000
         C           -2.637448884362     1.153844320301    -0.266050298548    12.000000000000
         H            1.359055115638    -0.155455679699     2.352378701452     1.007825032230
         H            0.573118115638     1.401513320301     1.929575701452     1.007825032230
         H            2.334056115638     1.318712320301     2.204333701452     1.007825032230
         H            2.181482115638     1.384769320301    -1.448949298548     1.007825032230
         H            2.846691115638     2.198896320301    -0.017034298548     1.007825032230
         H            1.105080115638     2.360644320301    -0.408746298548     1.007825032230
         H           -1.690162884362    -1.641724679699     0.926497701452     1.007825032230
         H           -3.915566884362    -0.321775679699     0.869456701452     1.007825032230
         H           -3.270017884362     1.993726320301    -0.520289298548     1.007825032230

  Basis Set: AUG-CC-PVTZ
    Blend: AUG-CC-PVTZ
  Basis Set: (AUG-CC-PVTZ AUX)
    Blend: AUG-CC-PVTZ-JKFIT
	 Reference Energy          =    -905.3054267830906383 [Eh]
	 Singles Energy            =      -0.0000000000000000 [Eh]
	 Same-Spin Energy          =      -0.5970520366578524 [Eh]
	 Opposite-Spin Energy      =      -1.7746265688688445 [Eh]
	 Correlation Energy        =      -2.3716786055266970 [Eh]
	 Total Energy              =    -907.6771053886172922 [Eh]

	 ================> DF-SCS-MP2 Energies <==================
	-----------------------------------------------------------
	 SCS Same-Spin Scale       =       0.3333333333333333 [-]
	 SCS Opposite-Spin Scale   =       1.2000000000000000 [-]
	 SCS Same-Spin Energy      =      -0.1990173455526175 [Eh]
	 SCS Opposite-Spin Energy  =      -2.1295518826426134 [Eh]
	 SCS Correlation Energy    =      -2.3285692281952310 [Eh]
	 SCS Total Energy          =    -907.6339960112858307 [Eh]
	-----------------------------------------------------------

  Dipole Moment: [D]
     X:    -2.4838      Y:     2.0824      Z:     3.6786     Total:     4.9029

*** Psi4 exiting successfully. Buy a developer a beer!
