                               Psi4 1.3.2 release

  ==> Input File <==

--------------------------------------------------------------------------
#psi4
#
memory 32 gb

molecule  {
0 1
  S        0.7637890    -0.7221230    -0.3122950
  O        0.7428910    -1.8740890     0.5977740
  O        1.1390870    -0.8496890    -1.7151490
  N        1.7366500     0.4402300     0.3626080
  N       -1.8489830    -0.7837230     0.4594430
  N       -1.3270270     1.0745880    -0.6709160
  C       -0.9522360    -0.1372719    -0.1500017
  C        1.4606880     0.7318840     1.7727460
  C        1.9603790     1.6404280    -0.4583390
  C       -2.9965950    -0.0375860     0.3980590
  C       -2.6480900     1.1053220    -0.2992680
  H        1.3484140    -0.2039780     2.3191610
  H        0.5624770     1.3529910     1.8963580
  H        2.3234150     1.2701900     2.1711160
  H        2.1708410     1.3362470    -1.4821670
  H        2.8360500     2.1503740    -0.0502520
  H        1.0944390     2.3121220    -0.4419640
  H       -1.7008040    -1.6902470     0.8932800
  H       -3.9262080    -0.3702980     0.8362390
  H       -3.2806590     1.9452040    -0.5535070
units angstrom
no_reorient  #important for SAPT in psi4, default
symmetry c1  #important for SAPT in psi4, default
}

set PROPERTIES_ORIGIN ["COM"]
properties('MP2/aug-cc-pvtz', properties = ['dipole'])
--------------------------------------------------------------------------

    Molecular point group: c1
  Charge       = 0
  Multiplicity = 1
  Basis Set: AUG-CC-PVTZ
    Blend: AUG-CC-PVTZ
  Basis Set: (AUG-CC-PVTZ AUX)
    Blend: AUG-CC-PVTZ-JKFIT

    Orbital Energies [Eh]
    ---------------------

    Doubly Occupied:

       1A    -92.215263     2A    -20.557844     3A    -20.555294
       4A    -15.661434     5A    -15.613876     6A    -15.580086
       7A    -11.336537     8A    -11.284221     9A    -11.276079
      10A    -11.275354    11A    -11.265917    12A     -9.179390
      13A     -6.864475    14A     -6.864231    15A     -6.863711
      16A     -1.463161    17A     -1.395600    18A     -1.344760
      19A     -1.258529    20A     -1.200150    21A     -1.047268
      22A     -0.982194    23A     -0.957244    24A     -0.871742
      25A     -0.843850    26A     -0.838193    27A     -0.752010
      28A     -0.710254    29A     -0.673755    30A     -0.667919
      31A     -0.647494    32A     -0.638123    33A     -0.631290
      34A     -0.616922    35A     -0.605499    36A     -0.577227
      37A     -0.571313    38A     -0.542333    39A     -0.511150
      40A     -0.507600    41A     -0.480438    42A     -0.477966
      43A     -0.469929    44A     -0.428139    45A     -0.418771
      46A     -0.344404

  @DF-RHF Final Energy:  -905.29428297361801

   => Energetics <=

    Nuclear Repulsion Energy =            797.2268517806006685
    One-Electron Energy =               -2825.3043903726811550
    Two-Electron Energy =                1122.7832556184625901
    Total Energy =                       -905.2942829736180101
  Basis Set: (AUG-CC-PVTZ AUX)
    Blend: AUG-CC-PVTZ-RI
    Molecular point group: c1

    Geometry (in Angstrom), charge = 0, multiplicity = 1:

       Center              X                  Y                   Z               Mass
    ------------   -----------------  -----------------  -----------------  -----------------
         S            0.776954902957    -0.672892026650    -0.284014096298    31.972071174400
         O            0.756056902957    -1.824858026650     0.626054903702    15.994914619570
         O            1.152252902957    -0.800458026650    -1.686868096298    15.994914619570
         N            1.749815902957     0.489460973350     0.390888903702    14.003074004430
         N           -1.835817097043    -0.734492026650     0.487723903702    14.003074004430
         N           -1.313861097043     1.123818973350    -0.642635096298    14.003074004430
         C           -0.939070097043    -0.088040926650    -0.121720796298    12.000000000000
         C            1.473853902957     0.781114973350     1.801026903702    12.000000000000
         C            1.973544902957     1.689658973350    -0.430058096298    12.000000000000
         C           -2.983429097043     0.011644973350     0.426339903702    12.000000000000
         C           -2.634924097043     1.154552973350    -0.270987096298    12.000000000000
         H            1.361579902957    -0.154747026650     2.347441903702     1.007825032230
         H            0.575642902957     1.402221973350     1.924638903702     1.007825032230
         H            2.336580902957     1.319420973350     2.199396903702     1.007825032230
         H            2.184006902957     1.385477973350    -1.453886096298     1.007825032230
         H            2.849215902957     2.199604973350    -0.021971096298     1.007825032230
         H            1.107604902957     2.361352973350    -0.413683096298     1.007825032230
         H           -1.687638097043    -1.641016026650     0.921560903702     1.007825032230
         H           -3.913042097043    -0.321067026650     0.864519903702     1.007825032230
         H           -3.267493097043     1.994434973350    -0.525226096298     1.007825032230

  Basis Set: AUG-CC-PVTZ
    Blend: AUG-CC-PVTZ
  Basis Set: (AUG-CC-PVTZ AUX)
    Blend: AUG-CC-PVTZ-JKFIT
	 Reference Energy          =    -905.2942829736180101 [Eh]
	 Singles Energy            =      -0.0000000000000000 [Eh]
	 Same-Spin Energy          =      -0.5972603104762353 [Eh]
	 Opposite-Spin Energy      =      -1.7747940976412862 [Eh]
	 Correlation Energy        =      -2.3720544081175214 [Eh]
	 Total Energy              =    -907.6663373817355023 [Eh]

	 ================> DF-SCS-MP2 Energies <==================
	-----------------------------------------------------------
	 SCS Same-Spin Scale       =       0.3333333333333333 [-]
	 SCS Opposite-Spin Scale   =       1.2000000000000000 [-]
	 SCS Same-Spin Energy      =      -0.1990867701587451 [Eh]
	 SCS Opposite-Spin Energy  =      -2.1297529171695433 [Eh]
	 SCS Correlation Energy    =      -2.3288396873282884 [Eh]
	 SCS Total Energy          =    -907.6231226609462510 [Eh]
	-----------------------------------------------------------

  Dipole Moment: [D]
     X:    -2.6046      Y:     1.7896      Z:     3.6172     Total:     4.8032

*** Psi4 exiting successfully. Buy a developer a beer!
