                               Psi4 1.3.2 release

  ==> Input File <==

--------------------------------------------------------------------------
#psi4
#
memory 32 gb

molecule  {
0 1
  S        0.7637890    -0.7221230    -0.3122950
  O        0.7428910    -1.8740890     0.5977740
  O        1.1390870    -0.8496890    -1.7151490
  N        1.7366500     0.4402300     0.3626080
  N       -1.8608242    -0.8005496     0.4716314
  N       -1.3270270     1.0745880    -0.6709160
  C       -0.8811970    -0.0860610    -0.1982810
  C        1.4606880     0.7318840     1.7727460
  C        1.9603790     1.6404280    -0.4583390
  C       -2.9965950    -0.0375860     0.3980590
  C       -2.6480900     1.1053220    -0.2992680
  H        1.3484140    -0.2039780     2.3191610
  H        0.5624770     1.3529910     1.8963580
  H        2.3234150     1.2701900     2.1711160
  H        2.1708410     1.3362470    -1.4821670
  H        2.8360500     2.1503740    -0.0502520
  H        1.0944390     2.3121220    -0.4419640
  H       -1.7008040    -1.6902470     0.8932800
  H       -3.9262080    -0.3702980     0.8362390
  H       -3.2806590     1.9452040    -0.5535070
units angstrom
no_reorient  #important for SAPT in psi4, default
symmetry c1  #important for SAPT in psi4, default
}

set PROPERTIES_ORIGIN ["COM"]
properties('MP2/aug-cc-pvtz', properties = ['dipole'])
--------------------------------------------------------------------------

    Molecular point group: c1
  Charge       = 0
  Multiplicity = 1
  Basis Set: AUG-CC-PVTZ
    Blend: AUG-CC-PVTZ
  Basis Set: (AUG-CC-PVTZ AUX)
    Blend: AUG-CC-PVTZ-JKFIT

    Orbital Energies [Eh]
    ---------------------

    Doubly Occupied:

       1A    -92.215665     2A    -20.558243     3A    -20.555713
       4A    -15.653858     5A    -15.611206     6A    -15.589854
       7A    -11.339497     8A    -11.295087     9A    -11.275185
      10A    -11.273820    11A    -11.266234    12A     -9.180160
      13A     -6.865380    14A     -6.864974    15A     -6.864555
      16A     -1.463988    17A     -1.365416    18A     -1.345138
      19A     -1.257936    20A     -1.201159    21A     -1.048141
      22A     -0.981701    23A     -0.960118    24A     -0.879381
      25A     -0.842681    26A     -0.815010    27A     -0.752830
      28A     -0.710557    29A     -0.677014    30A     -0.667895
      31A     -0.643175    32A     -0.632627    33A     -0.622795
      34A     -0.617425    35A     -0.608577    36A     -0.577131
      37A     -0.571148    38A     -0.541938    39A     -0.513837
      40A     -0.507761    41A     -0.486277    42A     -0.479813
      43A     -0.472391    44A     -0.431308    45A     -0.417972
      46A     -0.345217

  @DF-RHF Final Energy:  -905.30465419925076

   => Energetics <=

    Nuclear Repulsion Energy =            796.8294977366733747
    One-Electron Energy =               -2824.5727289155665858
    Two-Electron Energy =                1122.4385769796424484
    Total Energy =                       -905.3046541992507628
  Basis Set: (AUG-CC-PVTZ AUX)
    Blend: AUG-CC-PVTZ-RI
    Molecular point group: c1

    Geometry (in Angstrom), charge = 0, multiplicity = 1:

       Center              X                  Y                   Z               Mass
    ------------   -----------------  -----------------  -----------------  -----------------
         S            0.773032092579    -0.675056693724    -0.281679356128    31.972071174400
         O            0.752134092579    -1.827022693724     0.628389643872    15.994914619570
         O            1.148330092579    -0.802622693724    -1.684533356128    15.994914619570
         N            1.745893092579     0.487296306276     0.393223643872    14.003074004430
         N           -1.851581107421    -0.753483293724     0.502247043872    14.003074004430
         N           -1.317783907421     1.121654306276    -0.640300356128    14.003074004430
         C           -0.871953907421    -0.038994693724    -0.167665356128    12.000000000000
         C            1.469931092579     0.778950306276     1.803361643872    12.000000000000
         C            1.969622092579     1.687494306276    -0.427723356128    12.000000000000
         C           -2.987351907421     0.009480306276     0.428674643872    12.000000000000
         C           -2.638846907421     1.152388306276    -0.268652356128    12.000000000000
         H            1.357657092579    -0.156911693724     2.349776643872     1.007825032230
         H            0.571720092579     1.400057306276     1.926973643872     1.007825032230
         H            2.332658092579     1.317256306276     2.201731643872     1.007825032230
         H            2.180084092579     1.383313306276    -1.451551356128     1.007825032230
         H            2.845293092579     2.197440306276    -0.019636356128     1.007825032230
         H            1.103682092579     2.359188306276    -0.411348356128     1.007825032230
         H           -1.691560907421    -1.643180693724     0.923895643872     1.007825032230
         H           -3.916964907421    -0.323231693724     0.866854643872     1.007825032230
         H           -3.271415907421     1.992270306276    -0.522891356128     1.007825032230

  Basis Set: AUG-CC-PVTZ
    Blend: AUG-CC-PVTZ
  Basis Set: (AUG-CC-PVTZ AUX)
    Blend: AUG-CC-PVTZ-JKFIT
	 Reference Energy          =    -905.3046541992507628 [Eh]
	 Singles Energy            =      -0.0000000000000000 [Eh]
	 Same-Spin Energy          =      -0.5974414216825785 [Eh]
	 Opposite-Spin Energy      =      -1.7757585642508875 [Eh]
	 Correlation Energy        =      -2.3731999859334660 [Eh]
	 Total Energy              =    -907.6778541851841737 [Eh]

	 ================> DF-SCS-MP2 Energies <==================
	-----------------------------------------------------------
	 SCS Same-Spin Scale       =       0.3333333333333333 [-]
	 SCS Opposite-Spin Scale   =       1.2000000000000000 [-]
	 SCS Same-Spin Energy      =      -0.1991471405608595 [Eh]
	 SCS Opposite-Spin Energy  =      -2.1309102771010648 [Eh]
	 SCS Correlation Energy    =      -2.3300574176619242 [Eh]
	 SCS Total Energy          =    -907.6347116169126821 [Eh]
	-----------------------------------------------------------

  Dipole Moment: [D]
     X:    -2.6781      Y:     1.9407      Z:     3.5423     Total:     4.8463

*** Psi4 exiting successfully. Buy a developer a beer!
