                               Psi4 1.4a3.dev225

  ==> Input File <==

--------------------------------------------------------------------------
#psi4
#
memory 32 gb

molecule  {
0 1
  S        0.7637890    -0.7221230    -0.3122950
  O        0.7428910    -1.8740890     0.5977740
  O        1.1390870    -0.8496890    -1.7151490
  N        1.7366500     0.4402300     0.3626080
  N       -1.8489830    -0.7837230     0.4594430
  N       -1.3270270     1.0745880    -0.6709160
  C       -0.8811970    -0.0860610    -0.1982810
  C        1.4606880     0.7318840     1.7727460
  C        1.9603790     1.6404280    -0.4583390
  C       -2.9965950    -0.0375860     0.3980590
  C       -2.6480900     1.1053220    -0.2992680
  H        1.3484140    -0.2039780     2.3191610
  H        0.5624770     1.3529910     1.8963580
  H        2.3234150     1.2701900     2.1711160
  H        2.1708410     1.3362470    -1.4821670
  H        2.8360500     2.1503740    -0.0502520
  H        1.0944390     2.3121220    -0.4419640
  H       -1.6935107    -1.7348659     0.9146333
  H       -3.9262080    -0.3702980     0.8362390
  H       -3.2806590     1.9452040    -0.5535070
units angstrom
no_reorient  #important for SAPT in psi4, default
symmetry c1  #important for SAPT in psi4, default
}

set PROPERTIES_ORIGIN ["COM"]
properties('MP2/aug-cc-pvtz', properties = ['dipole'])
--------------------------------------------------------------------------

    Molecular point group: c1
  Charge       = 0
  Multiplicity = 1
  Basis Set: AUG-CC-PVTZ
    Blend: AUG-CC-PVTZ
  Basis Set: (AUG-CC-PVTZ AUX)
    Blend: AUG-CC-PVTZ-JKFIT

    Orbital Energies [Eh]
    ---------------------

    Doubly Occupied:

       1A    -92.215604     2A    -20.558458     3A    -20.555684
       4A    -15.658513     5A    -15.611107     6A    -15.586082
       7A    -11.336869     8A    -11.292508     9A    -11.275128
      10A    -11.272950    11A    -11.265937    12A     -9.180129
      13A     -6.865345    14A     -6.864944    15A     -6.864524
      16A     -1.464156    17A     -1.367677    18A     -1.345305
      19A     -1.257808    20A     -1.194339    21A     -1.049056
      22A     -0.981548    23A     -0.959227    24A     -0.873948
      25A     -0.836094    26A     -0.812148    27A     -0.752292
      28A     -0.710453    29A     -0.675725    30A     -0.668008
      31A     -0.641928    32A     -0.629189    33A     -0.624286
      34A     -0.615958    35A     -0.608473    36A     -0.577058
      37A     -0.570932    38A     -0.541797    39A     -0.513934
      40A     -0.507719    41A     -0.485123    42A     -0.479922
      43A     -0.470914    44A     -0.428195    45A     -0.417820
      46A     -0.345479

  @DF-RHF Final Energy:  -905.30198351601553

   => Energetics <=

    Nuclear Repulsion Energy =            797.1753284372003918
    One-Electron Energy =               -2825.3340380317663403
    Two-Electron Energy =                1122.8567260785505368
    Total Energy =                       -905.3019835160155253
  Basis Set: (AUG-CC-PVTZ AUX)
    Blend: AUG-CC-PVTZ-RI
    Molecular point group: c1

    Geometry (in Angstrom), charge = 0, multiplicity = 1:

       Center              X                  Y                   Z               Mass
    ------------   -----------------  -----------------  -----------------  -----------------
         S            0.772042821331    -0.676145898448    -0.280827245993    31.972071174400
         O            0.751144821331    -1.828111898448     0.629241754007    15.994914619570
         O            1.147340821331    -0.803711898448    -1.683681245993    15.994914619570
         N            1.744903821331     0.486207101552     0.394075754007    14.003074004430
         N           -1.840729178669    -0.737745898448     0.490910754007    14.003074004430
         N           -1.318773178669     1.120565101552    -0.639448245993    14.003074004430
         C           -0.872943178669    -0.040083898448    -0.166813245993    12.000000000000
         C            1.468941821331     0.777861101552     1.804213754007    12.000000000000
         C            1.968632821331     1.686405101552    -0.426871245993    12.000000000000
         C           -2.988341178669     0.008391101552     0.429526754007    12.000000000000
         C           -2.639836178669     1.151299101552    -0.267800245993    12.000000000000
         H            1.356667821331    -0.158000898448     2.350628754007     1.007825032230
         H            0.570730821331     1.398968101552     1.927825754007     1.007825032230
         H            2.331668821331     1.316167101552     2.202583754007     1.007825032230
         H            2.179094821331     1.382224101552    -1.450699245993     1.007825032230
         H            2.844303821331     2.196351101552    -0.018784245993     1.007825032230
         H            1.102692821331     2.358099101552    -0.410496245993     1.007825032230
         H           -1.685256878669    -1.688888798448     0.946101054007     1.007825032230
         H           -3.917954178669    -0.324320898448     0.867706754007     1.007825032230
         H           -3.272405178669     1.991181101552    -0.522039245993     1.007825032230

  Basis Set: AUG-CC-PVTZ
    Blend: AUG-CC-PVTZ
  Basis Set: (AUG-CC-PVTZ AUX)
    Blend: AUG-CC-PVTZ-JKFIT
	 Reference Energy          =    -905.3019835160155253 [Eh]
	 Singles Energy            =      -0.0000000000000000 [Eh]
	 Same-Spin Energy          =      -0.5979591549531945 [Eh]
	 Opposite-Spin Energy      =      -1.7764156711989254 [Eh]
	 Correlation Energy        =      -2.3743748261521200 [Eh]
	 Total Energy              =    -907.6763583421676458 [Eh]

	 ================> DF-SCS-MP2 Energies <==================
	-----------------------------------------------------------
	 SCS Same-Spin Scale       =       0.3333333333333333 [-]
	 SCS Opposite-Spin Scale   =       1.2000000000000000 [-]
	 SCS Same-Spin Energy      =      -0.1993197183177315 [Eh]
	 SCS Opposite-Spin Energy  =      -2.1316988054387105 [Eh]
	 SCS Correlation Energy    =      -2.3310185237564420 [Eh]
	 SCS Total Energy          =    -907.6330020397720091 [Eh]
	-----------------------------------------------------------

  Dipole Moment: [D]
     X:    -2.6755      Y:     1.8224      Z:     3.6012     Total:     4.8424

*** Psi4 exiting successfully. Buy a developer a beer!
