                               Psi4 1.3.2 release

  ==> Input File <==

--------------------------------------------------------------------------
#psi4
#
memory 32 gb

molecule  {
0 1
  S        0.7637890    -0.7221230    -0.3122950
  O        0.7882790    -1.9591872     0.4781229
  O        1.1390870    -0.8496890    -1.7151490
  N        1.7366500     0.4402300     0.3626080
  N       -1.8489830    -0.7837230     0.4594430
  N       -1.3270270     1.0745880    -0.6709160
  C       -0.8811970    -0.0860610    -0.1982810
  C        1.4606880     0.7318840     1.7727460
  C        1.9603790     1.6404280    -0.4583390
  C       -2.9965950    -0.0375860     0.3980590
  C       -2.6480900     1.1053220    -0.2992680
  H        1.3484140    -0.2039780     2.3191610
  H        0.5624770     1.3529910     1.8963580
  H        2.3234150     1.2701900     2.1711160
  H        2.1708410     1.3362470    -1.4821670
  H        2.8360500     2.1503740    -0.0502520
  H        1.0944390     2.3121220    -0.4419640
  H       -1.7008040    -1.6902470     0.8932800
  H       -3.9262080    -0.3702980     0.8362390
  H       -3.2806590     1.9452040    -0.5535070
units angstrom
no_reorient  #important for SAPT in psi4, default
symmetry c1  #important for SAPT in psi4, default
}

set PROPERTIES_ORIGIN ["COM"]
properties('MP2/aug-cc-pvtz', properties = ['dipole'])
--------------------------------------------------------------------------

    Molecular point group: c1
  Charge       = 0
  Multiplicity = 1
  Basis Set: AUG-CC-PVTZ
    Blend: AUG-CC-PVTZ
  Basis Set: (AUG-CC-PVTZ AUX)
    Blend: AUG-CC-PVTZ-JKFIT

    Orbital Energies [Eh]
    ---------------------

    Doubly Occupied:

       1A    -92.213611     2A    -20.557119     3A    -20.545495
       4A    -15.657885     5A    -15.613864     6A    -15.589232
       7A    -11.340719     8A    -11.295268     9A    -11.278774
      10A    -11.275756    11A    -11.267745    12A     -9.178414
      13A     -6.863630    14A     -6.863026    15A     -6.862903
      16A     -1.461473    17A     -1.372338    18A     -1.335576
      19A     -1.261241    20A     -1.201174    21A     -1.053021
      22A     -0.984168    23A     -0.962327    24A     -0.878735
      25A     -0.842858    26A     -0.820590    27A     -0.752855
      28A     -0.708779    29A     -0.678278    30A     -0.665892
      31A     -0.644737    32A     -0.634703    33A     -0.627002
      34A     -0.617528    35A     -0.606883    36A     -0.580549
      37A     -0.573094    38A     -0.543555    39A     -0.512687
      40A     -0.500305    41A     -0.487004    42A     -0.473114
      43A     -0.471104    44A     -0.431447    45A     -0.420232
      46A     -0.348200

  @DF-RHF Final Energy:  -905.30444471863848

   => Energetics <=

    Nuclear Repulsion Energy =            796.2573267280799882
    One-Electron Energy =               -2823.4137582503799422
    Two-Electron Energy =                1121.8519868036614753
    Total Energy =                       -905.3044447186384787
  Basis Set: (AUG-CC-PVTZ AUX)
    Blend: AUG-CC-PVTZ-RI
    Molecular point group: c1

    Geometry (in Angstrom), charge = 0, multiplicity = 1:

       Center              X                  Y                   Z               Mass
    ------------   -----------------  -----------------  -----------------  -----------------
         S            0.767937357093    -0.668626709912    -0.269770845132    31.972071174400
         O            0.792427357093    -1.905690909912     0.520647054868    15.994914619570
         O            1.143235357093    -0.796192709912    -1.672624845132    15.994914619570
         N            1.740798357093     0.493726290088     0.405132154868    14.003074004430
         N           -1.844834642907    -0.730226709912     0.501967154868    14.003074004430
         N           -1.322878642907     1.128084290088    -0.628391845132    14.003074004430
         C           -0.877048642907    -0.032564709912    -0.155756845132    12.000000000000
         C            1.464836357093     0.785380290088     1.815270154868    12.000000000000
         C            1.964527357093     1.693924290088    -0.415814845132    12.000000000000
         C           -2.992446642907     0.015910290088     0.440583154868    12.000000000000
         C           -2.643941642907     1.158818290088    -0.256743845132    12.000000000000
         H            1.352562357093    -0.150481709912     2.361685154868     1.007825032230
         H            0.566625357093     1.406487290088     1.938882154868     1.007825032230
         H            2.327563357093     1.323686290088     2.213640154868     1.007825032230
         H            2.174989357093     1.389743290088    -1.439642845132     1.007825032230
         H            2.840198357093     2.203870290088    -0.007727845132     1.007825032230
         H            1.098587357093     2.365618290088    -0.399439845132     1.007825032230
         H           -1.696655642907    -1.636750709912     0.935804154868     1.007825032230
         H           -3.922059642907    -0.316801709912     0.878763154868     1.007825032230
         H           -3.276510642907     1.998700290088    -0.510982845132     1.007825032230

  Basis Set: AUG-CC-PVTZ
    Blend: AUG-CC-PVTZ
  Basis Set: (AUG-CC-PVTZ AUX)
    Blend: AUG-CC-PVTZ-JKFIT
	 Reference Energy          =    -905.3044447186384787 [Eh]
	 Singles Energy            =      -0.0000000000000000 [Eh]
	 Same-Spin Energy          =      -0.5970938569784516 [Eh]
	 Opposite-Spin Energy      =      -1.7748519536031999 [Eh]
	 Correlation Energy        =      -2.3719458105816518 [Eh]
	 Total Energy              =    -907.6763905292201571 [Eh]

	 ================> DF-SCS-MP2 Energies <==================
	-----------------------------------------------------------
	 SCS Same-Spin Scale       =       0.3333333333333333 [-]
	 SCS Opposite-Spin Scale   =       1.2000000000000000 [-]
	 SCS Same-Spin Energy      =      -0.1990312856594839 [Eh]
	 SCS Opposite-Spin Energy  =      -2.1298223443238400 [Eh]
	 SCS Correlation Energy    =      -2.3288536299833238 [Eh]
	 SCS Total Energy          =    -907.6332983486217927 [Eh]
	-----------------------------------------------------------

  Dipole Moment: [D]
     X:    -2.8482      Y:     2.1347      Z:     3.8714     Total:     5.2590

*** Psi4 exiting successfully. Buy a developer a beer!
