                               Psi4 1.3.2 release

  ==> Input File <==

--------------------------------------------------------------------------
#psi4
#
memory 32 gb

molecule  {
0 1
  S        0.6860545    -0.7339985    -0.1574436
  O        0.7428910    -1.8740890     0.5977740
  O        1.1390870    -0.8496890    -1.7151490
  N        1.7366500     0.4402300     0.3626080
  N       -1.8489830    -0.7837230     0.4594430
  N       -1.3270270     1.0745880    -0.6709160
  C       -0.8811970    -0.0860610    -0.1982810
  C        1.4606880     0.7318840     1.7727460
  C        1.9603790     1.6404280    -0.4583390
  C       -2.9965950    -0.0375860     0.3980590
  C       -2.6480900     1.1053220    -0.2992680
  H        1.3484140    -0.2039780     2.3191610
  H        0.5624770     1.3529910     1.8963580
  H        2.3234150     1.2701900     2.1711160
  H        2.1708410     1.3362470    -1.4821670
  H        2.8360500     2.1503740    -0.0502520
  H        1.0944390     2.3121220    -0.4419640
  H       -1.7008040    -1.6902470     0.8932800
  H       -3.9262080    -0.3702980     0.8362390
  H       -3.2806590     1.9452040    -0.5535070
units angstrom
no_reorient  #important for SAPT in psi4, default
symmetry c1  #important for SAPT in psi4, default
}

set PROPERTIES_ORIGIN ["COM"]
properties('MP2/aug-cc-pvtz', properties = ['dipole'])
--------------------------------------------------------------------------

    Molecular point group: c1
  Charge       = 0
  Multiplicity = 1
  Basis Set: AUG-CC-PVTZ
    Blend: AUG-CC-PVTZ
  Basis Set: (AUG-CC-PVTZ AUX)
    Blend: AUG-CC-PVTZ-JKFIT

    Orbital Energies [Eh]
    ---------------------

    Doubly Occupied:

       1A    -92.204931     2A    -20.581378     3A    -20.514565
       4A    -15.664991     5A    -15.612131     6A    -15.597028
       7A    -11.343331     8A    -11.302126     9A    -11.282349
      10A    -11.276854    11A    -11.264099    12A     -9.174280
      13A     -6.859464    14A     -6.858925    15A     -6.857745
      16A     -1.502172    17A     -1.381606    18A     -1.293467
      19A     -1.235212    20A     -1.208119    21A     -1.069585
      22A     -0.982726    23A     -0.964387    24A     -0.890695
      25A     -0.852925    26A     -0.825811    27A     -0.757795
      28A     -0.716310    29A     -0.683426    30A     -0.671343
      31A     -0.648742    32A     -0.639537    33A     -0.633903
      34A     -0.626585    35A     -0.607478    36A     -0.583831
      37A     -0.571552    38A     -0.544026    39A     -0.525958
      40A     -0.493320    41A     -0.482940    42A     -0.443236
      43A     -0.437031    44A     -0.432654    45A     -0.418744
      46A     -0.352397

  @DF-RHF Final Energy:  -905.25605775535405

   => Energetics <=

    Nuclear Repulsion Energy =            799.4993807885740580
    One-Electron Energy =               -2829.7674566468185731
    Two-Electron Energy =                1125.0120181028905790
    Total Energy =                       -905.2560577553540497
  Basis Set: (AUG-CC-PVTZ AUX)
    Blend: AUG-CC-PVTZ-RI
    Molecular point group: c1

    Geometry (in Angstrom), charge = 0, multiplicity = 1:

       Center              X                  Y                   Z               Mass
    ------------   -----------------  -----------------  -----------------  -----------------
         S            0.708548845193    -0.686109187940    -0.154137157729    31.972071174400
         O            0.765385345193    -1.826199687940     0.601080442271    15.994914619570
         O            1.161581345193    -0.801799687940    -1.711842557729    15.994914619570
         N            1.759144345193     0.488119312060     0.365914442271    14.003074004430
         N           -1.826488654807    -0.735833687940     0.462749442271    14.003074004430
         N           -1.304532654807     1.122477312060    -0.667609557729    14.003074004430
         C           -0.858702654807    -0.038171687940    -0.194974557729    12.000000000000
         C            1.483182345193     0.779773312060     1.776052442271    12.000000000000
         C            1.982873345193     1.688317312060    -0.455032557729    12.000000000000
         C           -2.974100654807     0.010303312060     0.401365442271    12.000000000000
         C           -2.625595654807     1.153211312060    -0.295961557729    12.000000000000
         H            1.370908345193    -0.156088687940     2.322467442271     1.007825032230
         H            0.584971345193     1.400880312060     1.899664442271     1.007825032230
         H            2.345909345193     1.318079312060     2.174422442271     1.007825032230
         H            2.193335345193     1.384136312060    -1.478860557729     1.007825032230
         H            2.858544345193     2.198263312060    -0.046945557729     1.007825032230
         H            1.116933345193     2.360011312060    -0.438657557729     1.007825032230
         H           -1.678309654807    -1.642357687940     0.896586442271     1.007825032230
         H           -3.903713654807    -0.322408687940     0.839545442271     1.007825032230
         H           -3.258164654807     1.993093312060    -0.550200557729     1.007825032230

  Basis Set: AUG-CC-PVTZ
    Blend: AUG-CC-PVTZ
  Basis Set: (AUG-CC-PVTZ AUX)
    Blend: AUG-CC-PVTZ-JKFIT
	 Reference Energy          =    -905.2560577553540497 [Eh]
	 Singles Energy            =      -0.0000000000000000 [Eh]
	 Same-Spin Energy          =      -0.5986716260380639 [Eh]
	 Opposite-Spin Energy      =      -1.7779287480687789 [Eh]
	 Correlation Energy        =      -2.3766003741068427 [Eh]
	 Total Energy              =    -907.6326581294608786 [Eh]

	 ================> DF-SCS-MP2 Energies <==================
	-----------------------------------------------------------
	 SCS Same-Spin Scale       =       0.3333333333333333 [-]
	 SCS Opposite-Spin Scale   =       1.2000000000000000 [-]
	 SCS Same-Spin Energy      =      -0.1995572086793546 [Eh]
	 SCS Opposite-Spin Energy  =      -2.1335144976825346 [Eh]
	 SCS Correlation Energy    =      -2.3330717063618893 [Eh]
	 SCS Total Energy          =    -907.5891294617159701 [Eh]
	-----------------------------------------------------------

  Dipole Moment: [D]
     X:    -3.5810      Y:     1.9224      Z:     4.9456     Total:     6.4015

*** Psi4 exiting successfully. Buy a developer a beer!
