                               Psi4 1.3.2 release

  ==> Input File <==

--------------------------------------------------------------------------
#psi4
#
memory 32 gb

molecule  {
0 1
  S        0.7637890    -0.7221230    -0.3122950
  O        0.7428910    -1.8740890     0.5977740
  O        1.1390870    -0.8496890    -1.7151490
  N        1.7366500     0.4402300     0.3626080
  N       -1.8489830    -0.7837230     0.4594430
  N       -1.3270270     1.0745880    -0.6709160
  C       -0.8811970    -0.0860610    -0.1982810
  C        1.4606880     0.7318840     1.7727460
  C        1.9603790     1.6404280    -0.4583390
  C       -2.9965950    -0.0375860     0.3980590
  C       -2.5518509     1.1030830    -0.3263425
  H        1.3484140    -0.2039780     2.3191610
  H        0.5624770     1.3529910     1.8963580
  H        2.3234150     1.2701900     2.1711160
  H        2.1708410     1.3362470    -1.4821670
  H        2.8360500     2.1503740    -0.0502520
  H        1.0944390     2.3121220    -0.4419640
  H       -1.7008040    -1.6902470     0.8932800
  H       -3.9262080    -0.3702980     0.8362390
  H       -3.2806590     1.9452040    -0.5535070
units angstrom
no_reorient  #important for SAPT in psi4, default
symmetry c1  #important for SAPT in psi4, default
}

set PROPERTIES_ORIGIN ["COM"]
properties('MP2/aug-cc-pvtz', properties = ['dipole'])
--------------------------------------------------------------------------

    Molecular point group: c1
  Charge       = 0
  Multiplicity = 1
  Basis Set: AUG-CC-PVTZ
    Blend: AUG-CC-PVTZ
  Basis Set: (AUG-CC-PVTZ AUX)
    Blend: AUG-CC-PVTZ-JKFIT

    Orbital Energies [Eh]
    ---------------------

    Doubly Occupied:

       1A    -92.214280     2A    -20.557013     3A    -20.554375
       4A    -15.663005     5A    -15.610140     6A    -15.583307
       7A    -11.333853     8A    -11.293039     9A    -11.275914
      10A    -11.274928    11A    -11.266127    12A     -9.178689
      13A     -6.863904    14A     -6.863520    15A     -6.863108
      16A     -1.463135    17A     -1.384246    18A     -1.344330
      19A     -1.257228    20A     -1.224195    21A     -1.044459
      22A     -0.981386    23A     -0.956821    24A     -0.882125
      25A     -0.840997    26A     -0.820676    27A     -0.752383
      28A     -0.710583    29A     -0.677956    30A     -0.668019
      31A     -0.645928    32A     -0.640982    33A     -0.628951
      34A     -0.612916    35A     -0.603147    36A     -0.576834
      37A     -0.570816    38A     -0.541637    39A     -0.512635
      40A     -0.507160    41A     -0.479213    42A     -0.478729
      43A     -0.473209    44A     -0.448029    45A     -0.418042
      46A     -0.333806

  @DF-RHF Final Energy:  -905.29251189335218

   => Energetics <=

    Nuclear Repulsion Energy =            799.4732278846133795
    One-Electron Energy =               -2829.7799339370185407
    Two-Electron Energy =                1125.0141941590529768
    Total Energy =                       -905.2925118933521844
  Basis Set: (AUG-CC-PVTZ AUX)
    Blend: AUG-CC-PVTZ-RI
    Molecular point group: c1

    Geometry (in Angstrom), charge = 0, multiplicity = 1:

       Center              X                  Y                   Z               Mass
    ------------   -----------------  -----------------  -----------------  -----------------
         S            0.765487127300    -0.676249302723    -0.278848205046    31.972071174400
         O            0.744589127300    -1.828215302723     0.631220794954    15.994914619570
         O            1.140785127300    -0.803815302723    -1.681702205046    15.994914619570
         N            1.738348127300     0.486103697277     0.396054794954    14.003074004430
         N           -1.847284872700    -0.737849302723     0.492889794954    14.003074004430
         N           -1.325328872700     1.120461697277    -0.637469205046    14.003074004430
         C           -0.879498872700    -0.040187302723    -0.164834205046    12.000000000000
         C            1.462386127300     0.777757697277     1.806192794954    12.000000000000
         C            1.962077127300     1.686301697277    -0.424892205046    12.000000000000
         C           -2.994896872700     0.008287697277     0.431505794954    12.000000000000
         C           -2.550152772700     1.148956697277    -0.292895705046    12.000000000000
         H            1.350112127300    -0.158104302723     2.352607794954     1.007825032230
         H            0.564175127300     1.398864697277     1.929804794954     1.007825032230
         H            2.325113127300     1.316063697277     2.204562794954     1.007825032230
         H            2.172539127300     1.382120697277    -1.448720205046     1.007825032230
         H            2.837748127300     2.196247697277    -0.016805205046     1.007825032230
         H            1.096137127300     2.357995697277    -0.408517205046     1.007825032230
         H           -1.699105872700    -1.644373302723     0.926726794954     1.007825032230
         H           -3.924509872700    -0.324424302723     0.869685794954     1.007825032230
         H           -3.278960872700     1.991077697277    -0.520060205046     1.007825032230

  Basis Set: AUG-CC-PVTZ
    Blend: AUG-CC-PVTZ
  Basis Set: (AUG-CC-PVTZ AUX)
    Blend: AUG-CC-PVTZ-JKFIT
	 Reference Energy          =    -905.2925118933521844 [Eh]
	 Singles Energy            =      -0.0000000000000000 [Eh]
	 Same-Spin Energy          =      -0.5987765662341332 [Eh]
	 Opposite-Spin Energy      =      -1.7759781930687848 [Eh]
	 Correlation Energy        =      -2.3747547593029181 [Eh]
	 Total Energy              =    -907.6672666526551438 [Eh]

	 ================> DF-SCS-MP2 Energies <==================
	-----------------------------------------------------------
	 SCS Same-Spin Scale       =       0.3333333333333333 [-]
	 SCS Opposite-Spin Scale   =       1.2000000000000000 [-]
	 SCS Same-Spin Energy      =      -0.1995921887447111 [Eh]
	 SCS Opposite-Spin Energy  =      -2.1311738316825415 [Eh]
	 SCS Correlation Energy    =      -2.3307660204272524 [Eh]
	 SCS Total Energy          =    -907.6232779137794751 [Eh]
	-----------------------------------------------------------

  Dipole Moment: [D]
     X:    -2.6651      Y:     1.8921      Z:     3.5505     Total:     4.8259

*** Psi4 exiting successfully. Buy a developer a beer!
