                               Psi4 1.3.2 release

  ==> Input File <==

--------------------------------------------------------------------------
#psi4
#
memory 32 gb

molecule  {
0 1
  S        0.7637890    -0.7221230    -0.3122950
  O        0.7428910    -1.8740890     0.5977740
  O        1.1390870    -0.8496890    -1.7151490
  N        1.7366500     0.4402300     0.3626080
  N       -1.8489830    -0.7837230     0.4594430
  N       -1.3229270     1.0318157    -0.6497166
  C       -0.8811970    -0.0860610    -0.1982810
  C        1.4606880     0.7318840     1.7727460
  C        1.9603790     1.6404280    -0.4583390
  C       -2.9965950    -0.0375860     0.3980590
  C       -2.6480900     1.1053220    -0.2992680
  H        1.3484140    -0.2039780     2.3191610
  H        0.5624770     1.3529910     1.8963580
  H        2.3234150     1.2701900     2.1711160
  H        2.1708410     1.3362470    -1.4821670
  H        2.8360500     2.1503740    -0.0502520
  H        1.0944390     2.3121220    -0.4419640
  H       -1.7008040    -1.6902470     0.8932800
  H       -3.9262080    -0.3702980     0.8362390
  H       -3.2806590     1.9452040    -0.5535070
units angstrom
no_reorient  #important for SAPT in psi4, default
symmetry c1  #important for SAPT in psi4, default
}

set PROPERTIES_ORIGIN ["COM"]
properties('MP2/aug-cc-pvtz', properties = ['dipole'])
--------------------------------------------------------------------------

    Molecular point group: c1
  Charge       = 0
  Multiplicity = 1
  Basis Set: AUG-CC-PVTZ
    Blend: AUG-CC-PVTZ
  Basis Set: (AUG-CC-PVTZ AUX)
    Blend: AUG-CC-PVTZ-JKFIT

    Orbital Energies [Eh]
    ---------------------

    Doubly Occupied:

       1A    -92.215163     2A    -20.558107     3A    -20.555765
       4A    -15.649034     5A    -15.611231     6A    -15.579497
       7A    -11.331720     8A    -11.293640     9A    -11.275337
      10A    -11.272480    11A    -11.266277    12A     -9.179810
      13A     -6.865018    14A     -6.864606    15A     -6.864193
      16A     -1.464278    17A     -1.376208    18A     -1.345309
      19A     -1.258008    20A     -1.202092    21A     -1.052544
      22A     -0.981784    23A     -0.960272    24A     -0.875013
      25A     -0.844128    26A     -0.816650    27A     -0.753743
      28A     -0.710866    29A     -0.678871    30A     -0.668060
      31A     -0.643979    32A     -0.632014    33A     -0.626593
      34A     -0.619579    35A     -0.611104    36A     -0.577402
      37A     -0.571187    38A     -0.541994    39A     -0.514657
      40A     -0.507721    41A     -0.487666    42A     -0.479738
      43A     -0.465251    44A     -0.431227    45A     -0.416840
      46A     -0.348632

  @DF-RHF Final Energy:  -905.30801685237782

   => Energetics <=

    Nuclear Repulsion Energy =            798.9233471294468245
    One-Electron Energy =               -2828.7721490783751506
    Two-Electron Energy =                1124.5407850965502803
    Total Energy =                       -905.3080168523779321
  Basis Set: (AUG-CC-PVTZ AUX)
    Blend: AUG-CC-PVTZ-RI
    Molecular point group: c1

    Geometry (in Angstrom), charge = 0, multiplicity = 1:

       Center              X                  Y                   Z               Mass
    ------------   -----------------  -----------------  -----------------  -----------------
         S            0.771756819329    -0.672981074753    -0.282400223268    31.972071174400
         O            0.750858819329    -1.824947074753     0.627668776732    15.994914619570
         O            1.147054819329    -0.800547074753    -1.685254223268    15.994914619570
         N            1.744617819329     0.489371925247     0.392502776732    14.003074004430
         N           -1.841015180671    -0.734581074753     0.489337776732    14.003074004430
         N           -1.314959180671     1.080957625247    -0.619821823268    14.003074004430
         C           -0.873229180671    -0.036919074753    -0.168386223268    12.000000000000
         C            1.468655819329     0.781025925247     1.802640776732    12.000000000000
         C            1.968346819329     1.689569925247    -0.428444223268    12.000000000000
         C           -2.988627180671     0.011555925247     0.427953776732    12.000000000000
         C           -2.640122180671     1.154463925247    -0.269373223268    12.000000000000
         H            1.356381819329    -0.154836074753     2.349055776732     1.007825032230
         H            0.570444819329     1.402132925247     1.926252776732     1.007825032230
         H            2.331382819329     1.319331925247     2.201010776732     1.007825032230
         H            2.178808819329     1.385388925247    -1.452272223268     1.007825032230
         H            2.844017819329     2.199515925247    -0.020357223268     1.007825032230
         H            1.102406819329     2.361263925247    -0.412069223268     1.007825032230
         H           -1.692836180671    -1.641105074753     0.923174776732     1.007825032230
         H           -3.918240180671    -0.321156074753     0.866133776732     1.007825032230
         H           -3.272691180671     1.994345925247    -0.523612223268     1.007825032230

  Basis Set: AUG-CC-PVTZ
    Blend: AUG-CC-PVTZ
  Basis Set: (AUG-CC-PVTZ AUX)
    Blend: AUG-CC-PVTZ-JKFIT
	 Reference Energy          =    -905.3080168523778184 [Eh]
	 Singles Energy            =      -0.0000000000000000 [Eh]
	 Same-Spin Energy          =      -0.5963537846829299 [Eh]
	 Opposite-Spin Energy      =      -1.7731341310087432 [Eh]
	 Correlation Energy        =      -2.3694879156916731 [Eh]
	 Total Energy              =    -907.6775047680695252 [Eh]

	 ================> DF-SCS-MP2 Energies <==================
	-----------------------------------------------------------
	 SCS Same-Spin Scale       =       0.3333333333333333 [-]
	 SCS Opposite-Spin Scale   =       1.2000000000000000 [-]
	 SCS Same-Spin Energy      =      -0.1987845948943099 [Eh]
	 SCS Opposite-Spin Energy  =      -2.1277609572104916 [Eh]
	 SCS Correlation Energy    =      -2.3265455521048017 [Eh]
	 SCS Total Energy          =    -907.6345624044826081 [Eh]
	-----------------------------------------------------------

  Dipole Moment: [D]
     X:    -2.6498      Y:     1.9856      Z:     3.5148     Total:     4.8289

*** Psi4 exiting successfully. Buy a developer a beer!
