                               Psi4 1.3.2 release

  ==> Input File <==

--------------------------------------------------------------------------
#psi4
#
memory 32 gb

molecule  {
0 1
  S        0.7637890    -0.7221230    -0.3122950
  O        0.7428910    -1.8740890     0.5977740
  O        1.1390870    -0.8496890    -1.7151490
  N        1.7366500     0.4402300     0.3626080
  N       -1.9251437    -0.8810965     0.5321633
  N       -1.3270270     1.0745880    -0.6709160
  C       -0.8811970    -0.0860610    -0.1982810
  C        1.4606880     0.7318840     1.7727460
  C        1.9603790     1.6404280    -0.4583390
  C       -2.9965950    -0.0375860     0.3980590
  C       -2.6480900     1.1053220    -0.2992680
  H        1.3484140    -0.2039780     2.3191610
  H        0.5624770     1.3529910     1.8963580
  H        2.3234150     1.2701900     2.1711160
  H        2.1708410     1.3362470    -1.4821670
  H        2.8360500     2.1503740    -0.0502520
  H        1.0944390     2.3121220    -0.4419640
  H       -1.7008040    -1.6902470     0.8932800
  H       -3.9262080    -0.3702980     0.8362390
  H       -3.2806590     1.9452040    -0.5535070
units angstrom
no_reorient  #important for SAPT in psi4, default
symmetry c1  #important for SAPT in psi4, default
}

set PROPERTIES_ORIGIN ["COM"]
properties('MP2/aug-cc-pvtz', properties = ['dipole'])
--------------------------------------------------------------------------

    Molecular point group: c1
  Charge       = 0
  Multiplicity = 1
  Basis Set: AUG-CC-PVTZ
    Blend: AUG-CC-PVTZ
  Basis Set: (AUG-CC-PVTZ AUX)
    Blend: AUG-CC-PVTZ-JKFIT

    Orbital Energies [Eh]
    ---------------------

    Doubly Occupied:

       1A    -92.215302     2A    -20.557166     3A    -20.555283
       4A    -15.646869     5A    -15.611116     6A    -15.604739
       7A    -11.348170     8A    -11.305449     9A    -11.275426
      10A    -11.274942    11A    -11.267011    12A     -9.179683
      13A     -6.864910    14A     -6.864495    15A     -6.864074
      16A     -1.462739    17A     -1.348431    18A     -1.343120
      19A     -1.257869    20A     -1.213327    21A     -1.042393
      22A     -0.981856    23A     -0.963090    24A     -0.893064
      25A     -0.851233    26A     -0.795934    27A     -0.753070
      28A     -0.711083    29A     -0.686065    30A     -0.666735
      31A     -0.649542    32A     -0.624481    33A     -0.620966
      34A     -0.608282    35A     -0.600244    36A     -0.576676
      37A     -0.571411    38A     -0.542092    39A     -0.513040
      40A     -0.507067    41A     -0.491739    42A     -0.479017
      43A     -0.474473    44A     -0.441360    45A     -0.417508
      46A     -0.340940

  @DF-RHF Final Energy:  -905.27449041656223

   => Energetics <=

    Nuclear Repulsion Energy =            793.7132134610127423
    One-Electron Energy =               -2818.2484372662479473
    Two-Electron Energy =                1119.2607333886728611
    Total Energy =                       -905.2744904165622302
  Basis Set: (AUG-CC-PVTZ AUX)
    Blend: AUG-CC-PVTZ-RI
    Molecular point group: c1

    Geometry (in Angstrom), charge = 0, multiplicity = 1:

       Center              X                  Y                   Z               Mass
    ------------   -----------------  -----------------  -----------------  -----------------
         S            0.778177560784    -0.668613056678    -0.286521821739    31.972071174400
         O            0.757279560784    -1.820579056678     0.623547178261    15.994914619570
         O            1.153475560784    -0.796179056678    -1.689375821739    15.994914619570
         N            1.751038560784     0.493739943322     0.388381178261    14.003074004430
         N           -1.910755139216    -0.827586556678     0.557936478261    14.003074004430
         N           -1.312638439216     1.128097943322    -0.645142821739    14.003074004430
         C           -0.866808439216    -0.032551056678    -0.172507821739    12.000000000000
         C            1.475076560784     0.785393943322     1.798519178261    12.000000000000
         C            1.974767560784     1.693937943322    -0.432565821739    12.000000000000
         C           -2.982206439216     0.015923943322     0.423832178261    12.000000000000
         C           -2.633701439216     1.158831943322    -0.273494821739    12.000000000000
         H            1.362802560784    -0.150468056678     2.344934178261     1.007825032230
         H            0.576865560784     1.406500943322     1.922131178261     1.007825032230
         H            2.337803560784     1.323699943322     2.196889178261     1.007825032230
         H            2.185229560784     1.389756943322    -1.456393821739     1.007825032230
         H            2.850438560784     2.203883943322    -0.024478821739     1.007825032230
         H            1.108827560784     2.365631943322    -0.416190821739     1.007825032230
         H           -1.686415439216    -1.636737056678     0.919053178261     1.007825032230
         H           -3.911819439216    -0.316788056678     0.862012178261     1.007825032230
         H           -3.266270439216     1.998713943322    -0.527733821739     1.007825032230

  Basis Set: AUG-CC-PVTZ
    Blend: AUG-CC-PVTZ
  Basis Set: (AUG-CC-PVTZ AUX)
    Blend: AUG-CC-PVTZ-JKFIT
	 Reference Energy          =    -905.2744904165622302 [Eh]
	 Singles Energy            =      -0.0000000000000000 [Eh]
	 Same-Spin Energy          =      -0.5978073079482265 [Eh]
	 Opposite-Spin Energy      =      -1.7785836847901495 [Eh]
	 Correlation Energy        =      -2.3763909927383757 [Eh]
	 Total Energy              =    -907.6508814093006094 [Eh]

	 ================> DF-SCS-MP2 Energies <==================
	-----------------------------------------------------------
	 SCS Same-Spin Scale       =       0.3333333333333333 [-]
	 SCS Opposite-Spin Scale   =       1.2000000000000000 [-]
	 SCS Same-Spin Energy      =      -0.1992691026494088 [Eh]
	 SCS Opposite-Spin Energy  =      -2.1343004217481791 [Eh]
	 SCS Correlation Energy    =      -2.3335695243975878 [Eh]
	 SCS Total Energy          =    -907.6080599409598335 [Eh]
	-----------------------------------------------------------

  Dipole Moment: [D]
     X:    -2.6054      Y:     2.2011      Z:     3.3935     Total:     4.8113

*** Psi4 exiting successfully. Buy a developer a beer!
