                               Psi4 1.4a3.dev225

  ==> Input File <==

--------------------------------------------------------------------------
#psi4
#
memory 32 gb

molecule  {
0 1
  O        0.3445260    -1.4915130    -0.1284710
  O        1.3620620     2.0495660    -0.4184890
  O       -1.2647860     2.3345150     0.4675600
  O       -2.9390480     0.0425350    -0.1674130
  O        2.8793210    -0.7013140     0.9576500
  O       -1.7069560    -2.3717120     0.0066660
  C        0.6456770     0.9144350     0.0711800
  C       -0.8241260     1.1660500    -0.2009330
  C        1.0869890    -0.3499130    -0.6435990
  C       -1.6195880    -0.0062280     0.3304940
  C        2.5464540    -0.6897970    -0.4256590
  C       -1.0085030    -1.3756800     0.0131050
  H        0.7972300     0.7916990     1.1507440
  H       -0.9848220     1.2466540    -1.2883090
  H        0.8821871    -0.2561113    -1.7395635
  H       -1.6065420     0.0748220     1.4324700
  H        3.1677010     0.0783010    -0.8925020
  H        2.7689760    -1.6509780    -0.9066980
  H        2.1781240     2.1240460     0.1069910
  H       -0.6426700     3.0335460     0.1906150
  H       -3.3011060    -0.8556610    -0.0346520
  H        2.3748870    -1.4344510     1.3537630
units angstrom
no_reorient  #important for SAPT in psi4, default
symmetry c1  #important for SAPT in psi4, default
}

set PROPERTIES_ORIGIN ["COM"]
properties('MP2/aug-cc-pvtz', properties = ['dipole'])
--------------------------------------------------------------------------

    Molecular point group: c1
  Charge       = 0
  Multiplicity = 1
  Basis Set: AUG-CC-PVTZ
    Blend: AUG-CC-PVTZ
  Basis Set: (AUG-CC-PVTZ AUX)
    Blend: AUG-CC-PVTZ-JKFIT

    Orbital Energies [Eh]
    ---------------------

    Doubly Occupied:

       1A    -20.630034     2A    -20.600658     3A    -20.587775
       4A    -20.575575     5A    -20.574885     6A    -20.569400
       7A    -11.407060     8A    -11.328556     9A    -11.321198
      10A    -11.314796    11A    -11.307657    12A    -11.307312
      13A     -1.477821    14A     -1.409363    15A     -1.399247
      16A     -1.384065    17A     -1.374923    18A     -1.362890
      19A     -1.097881    20A     -1.057890    21A     -0.956519
      22A     -0.876261    23A     -0.868102    24A     -0.799986
      25A     -0.762183    26A     -0.741784    27A     -0.720920
      28A     -0.707403    29A     -0.694675    30A     -0.686072
      31A     -0.662202    32A     -0.643929    33A     -0.628859
      34A     -0.617022    35A     -0.614875    36A     -0.590149
      37A     -0.581750    38A     -0.559941    39A     -0.541232
      40A     -0.534183    41A     -0.519557    42A     -0.504407
      43A     -0.483957    44A     -0.477895    45A     -0.472534
      46A     -0.464843    47A     -0.445243

  @DF-RHF Final Energy:  -682.45421058831346

   => Energetics <=

    Nuclear Repulsion Energy =            801.2339490309392431
    One-Electron Energy =               -2528.8853763984002399
    Two-Electron Energy =                1045.1972167791477659
    Total Energy =                       -682.4542105883133445
  Basis Set: (AUG-CC-PVTZ AUX)
    Blend: AUG-CC-PVTZ-RI
    Molecular point group: c1

    Geometry (in Angstrom), charge = 0, multiplicity = 1:

       Center              X                  Y                   Z               Mass
    ------------   -----------------  -----------------  -----------------  -----------------
         O            0.375924721934    -1.473972016414    -0.131725218943    15.994914619570
         O            1.393460721934     2.067106983586    -0.421743218943    15.994914619570
         O           -1.233387278066     2.352055983586     0.464305781057    15.994914619570
         O           -2.907649278066     0.060075983586    -0.170667218943    15.994914619570
         O            2.910719721934    -0.683773016414     0.954395781057    15.994914619570
         O           -1.675557278066    -2.354171016414     0.003411781057    15.994914619570
         C            0.677075721934     0.931975983586     0.067925781057    12.000000000000
         C           -0.792727278066     1.183590983586    -0.204187218943    12.000000000000
         C            1.118387721934    -0.332372016414    -0.646853218943    12.000000000000
         C           -1.588189278066     0.011312983586     0.327239781057    12.000000000000
         C            2.577852721934    -0.672256016414    -0.428913218943    12.000000000000
         C           -0.977104278066    -1.358139016414     0.009850781057    12.000000000000
         H            0.828628721934     0.809239983586     1.147489781057     1.007825032230
         H           -0.953423278066     1.264194983586    -1.291563218943     1.007825032230
         H            0.913585821934    -0.238570316414    -1.742817718943     1.007825032230
         H           -1.575143278066     0.092362983586     1.429215781057     1.007825032230
         H            3.199099721934     0.095841983586    -0.895756218943     1.007825032230
         H            2.800374721934    -1.633437016414    -0.909952218943     1.007825032230
         H            2.209522721934     2.141586983586     0.103736781057     1.007825032230
         H           -0.611271278066     3.051086983586     0.187360781057     1.007825032230
         H           -3.269707278066    -0.838120016414    -0.037906218943     1.007825032230
         H            2.406285721934    -1.416910016414     1.350508781057     1.007825032230

  Basis Set: AUG-CC-PVTZ
    Blend: AUG-CC-PVTZ
  Basis Set: (AUG-CC-PVTZ AUX)
    Blend: AUG-CC-PVTZ-JKFIT
	 Reference Energy          =    -682.4542105883134582 [Eh]
	 Singles Energy            =      -0.0000000000000000 [Eh]
	 Same-Spin Energy          =      -0.6625002214462733 [Eh]
	 Opposite-Spin Energy      =      -2.0109977719423195 [Eh]
	 Correlation Energy        =      -2.6734979933885930 [Eh]
	 Total Energy              =    -685.1277085817019952 [Eh]

	 ================> DF-SCS-MP2 Energies <==================
	-----------------------------------------------------------
	 SCS Same-Spin Scale       =       0.3333333333333333 [-]
	 SCS Opposite-Spin Scale   =       1.2000000000000000 [-]
	 SCS Same-Spin Energy      =      -0.2208334071487578 [Eh]
	 SCS Opposite-Spin Energy  =      -2.4131973263307835 [Eh]
	 SCS Correlation Energy    =      -2.6340307334795412 [Eh]
	 SCS Total Energy          =    -685.0882413217930207 [Eh]
	-----------------------------------------------------------

  Dipole Moment: [D]
     X:     3.3941      Y:     0.5694      Z:    -0.2556     Total:     3.4510

*** Psi4 exiting successfully. Buy a developer a beer!
