                               Psi4 1.4a3.dev225

  ==> Input File <==

--------------------------------------------------------------------------
#psi4
#
memory 32 gb

molecule  {
0 1
  O        0.3445260    -1.4915130    -0.1284710
  O        1.3620620     2.0495660    -0.4184890
  O       -1.2647860     2.3345150     0.4675600
  O       -2.9390480     0.0425350    -0.1674130
  O        2.8793210    -0.7013140     0.9576500
  O       -1.7069560    -2.3717120     0.0066660
  C        0.6456770     0.9144350     0.0711800
  C       -0.8241260     1.1660500    -0.2009330
  C        1.0869890    -0.3499130    -0.6435990
  C       -1.6195880    -0.0062280     0.3304940
  C        2.5464540    -0.6897970    -0.4256590
  C       -1.0085030    -1.3756800     0.0131050
  H        0.7972300     0.7916990     1.1507440
  H       -0.9848220     1.2466540    -1.2883090
  H        0.8858480    -0.2577880    -1.7199730
  H       -1.6065420     0.0748220     1.4324700
  H        3.1677010     0.0783010    -0.8925020
  H        2.7689760    -1.6509780    -0.9066980
  H        2.1781240     2.1240460     0.1069910
  H       -0.6554196     3.0192201     0.1962907
  H       -3.3011060    -0.8556610    -0.0346520
  H        2.3748870    -1.4344510     1.3537630
units angstrom
no_reorient  #important for SAPT in psi4, default
symmetry c1  #important for SAPT in psi4, default
}

set PROPERTIES_ORIGIN ["COM"]
properties('MP2/aug-cc-pvtz', properties = ['dipole'])
--------------------------------------------------------------------------

    Molecular point group: c1
  Charge       = 0
  Multiplicity = 1
  Basis Set: AUG-CC-PVTZ
    Blend: AUG-CC-PVTZ
  Basis Set: (AUG-CC-PVTZ AUX)
    Blend: AUG-CC-PVTZ-JKFIT

    Orbital Energies [Eh]
    ---------------------

    Doubly Occupied:

       1A    -20.629859     2A    -20.600550     3A    -20.587670
       4A    -20.575664     5A    -20.573413     6A    -20.569365
       7A    -11.407050     8A    -11.326353     9A    -11.321298
      10A    -11.314732    11A    -11.307605    12A    -11.307573
      13A     -1.477790    14A     -1.410214    15A     -1.399644
      16A     -1.384095    17A     -1.376635    18A     -1.364357
      19A     -1.098814    20A     -1.058764    21A     -0.956556
      22A     -0.877578    23A     -0.868573    24A     -0.801633
      25A     -0.762721    26A     -0.741971    27A     -0.722059
      28A     -0.708387    29A     -0.695946    30A     -0.686565
      31A     -0.663651    32A     -0.644018    33A     -0.628833
      34A     -0.617301    35A     -0.615072    36A     -0.590354
      37A     -0.583149    38A     -0.560674    39A     -0.541694
      40A     -0.534373    41A     -0.519854    42A     -0.504403
      43A     -0.484526    44A     -0.478238    45A     -0.472882
      46A     -0.465099    47A     -0.445400

  @DF-RHF Final Energy:  -682.45576155463630

   => Energetics <=

    Nuclear Repulsion Energy =            801.4753031106572507
    One-Electron Energy =               -2529.3362170305426844
    Two-Electron Energy =                1045.4051523652492506
    Total Energy =                       -682.4557615546361831
  Basis Set: (AUG-CC-PVTZ AUX)
    Blend: AUG-CC-PVTZ-RI
    Molecular point group: c1

    Geometry (in Angstrom), charge = 0, multiplicity = 1:

       Center              X                  Y                   Z               Mass
    ------------   -----------------  -----------------  -----------------  -----------------
         O            0.375976167796    -1.473881434972    -0.131868236254    15.994914619570
         O            1.393512167796     2.067197565028    -0.421886236254    15.994914619570
         O           -1.233335832204     2.352146565028     0.464162763746    15.994914619570
         O           -2.907597832204     0.060166565028    -0.170810236254    15.994914619570
         O            2.910771167796    -0.683682434972     0.954252763746    15.994914619570
         O           -1.675505832204    -2.354080434972     0.003268763746    15.994914619570
         C            0.677127167796     0.932066565028     0.067782763746    12.000000000000
         C           -0.792675832204     1.183681565028    -0.204330236254    12.000000000000
         C            1.118439167796    -0.332281434972    -0.646996236254    12.000000000000
         C           -1.588137832204     0.011403565028     0.327096763746    12.000000000000
         C            2.577904167796    -0.672165434972    -0.429056236254    12.000000000000
         C           -0.977052832204    -1.358048434972     0.009707763746    12.000000000000
         H            0.828680167796     0.809330565028     1.147346763746     1.007825032230
         H           -0.953371832204     1.264285565028    -1.291706236254     1.007825032230
         H            0.917298167796    -0.240156434972    -1.723370236254     1.007825032230
         H           -1.575091832204     0.092453565028     1.429072763746     1.007825032230
         H            3.199151167796     0.095932565028    -0.895899236254     1.007825032230
         H            2.800426167796    -1.633346434972    -0.910095236254     1.007825032230
         H            2.209574167796     2.141677565028     0.103593763746     1.007825032230
         H           -0.623969432204     3.036851665028     0.192893463746     1.007825032230
         H           -3.269655832204    -0.838029434972    -0.038049236254     1.007825032230
         H            2.406337167796    -1.416819434972     1.350365763746     1.007825032230

  Basis Set: AUG-CC-PVTZ
    Blend: AUG-CC-PVTZ
  Basis Set: (AUG-CC-PVTZ AUX)
    Blend: AUG-CC-PVTZ-JKFIT
	 Reference Energy          =    -682.4557615546362968 [Eh]
	 Singles Energy            =      -0.0000000000000000 [Eh]
	 Same-Spin Energy          =      -0.6621888999212897 [Eh]
	 Opposite-Spin Energy      =      -2.0101833460115754 [Eh]
	 Correlation Energy        =      -2.6723722459328654 [Eh]
	 Total Energy              =    -685.1281338005691168 [Eh]

	 ================> DF-SCS-MP2 Energies <==================
	-----------------------------------------------------------
	 SCS Same-Spin Scale       =       0.3333333333333333 [-]
	 SCS Opposite-Spin Scale   =       1.2000000000000000 [-]
	 SCS Same-Spin Energy      =      -0.2207296333070966 [Eh]
	 SCS Opposite-Spin Energy  =      -2.4122200152138906 [Eh]
	 SCS Correlation Energy    =      -2.6329496485209871 [Eh]
	 SCS Total Energy          =    -685.0887112031572315 [Eh]
	-----------------------------------------------------------

  Dipole Moment: [D]
     X:     3.3851      Y:     0.5555      Z:    -0.2619     Total:     3.4404

*** Psi4 exiting successfully. Buy a developer a beer!
