                               Psi4 1.4a3.dev225

  ==> Input File <==

--------------------------------------------------------------------------
#psi4
#
memory 32 gb

molecule  {
0 1
  O        0.3445260    -1.4915130    -0.1284710
  O        1.3620620     2.0495660    -0.4184890
  O       -1.2578886     2.3245320     0.4890990
  O       -2.9390480     0.0425350    -0.1674130
  O        2.8793210    -0.7013140     0.9576500
  O       -1.7069560    -2.3717120     0.0066660
  C        0.6456770     0.9144350     0.0711800
  C       -0.8241260     1.1660500    -0.2009330
  C        1.0869890    -0.3499130    -0.6435990
  C       -1.6195880    -0.0062280     0.3304940
  C        2.5464540    -0.6897970    -0.4256590
  C       -1.0085030    -1.3756800     0.0131050
  H        0.7972300     0.7916990     1.1507440
  H       -0.9848220     1.2466540    -1.2883090
  H        0.8858480    -0.2577880    -1.7199730
  H       -1.6065420     0.0748220     1.4324700
  H        3.1677010     0.0783010    -0.8925020
  H        2.7689760    -1.6509780    -0.9066980
  H        2.1781240     2.1240460     0.1069910
  H       -0.6426700     3.0335460     0.1906150
  H       -3.3011060    -0.8556610    -0.0346520
  H        2.3748870    -1.4344510     1.3537630
units angstrom
no_reorient  #important for SAPT in psi4, default
symmetry c1  #important for SAPT in psi4, default
}

set PROPERTIES_ORIGIN ["COM"]
properties('MP2/aug-cc-pvtz', properties = ['dipole'])
--------------------------------------------------------------------------

    Molecular point group: c1
  Charge       = 0
  Multiplicity = 1
  Basis Set: AUG-CC-PVTZ
    Blend: AUG-CC-PVTZ
  Basis Set: (AUG-CC-PVTZ AUX)
    Blend: AUG-CC-PVTZ-JKFIT

    Orbital Energies [Eh]
    ---------------------

    Doubly Occupied:

       1A    -20.629583     2A    -20.600494     3A    -20.587464
       4A    -20.576116     5A    -20.575483     6A    -20.569048
       7A    -11.406652     8A    -11.325981     9A    -11.320829
      10A    -11.314152    11A    -11.307339    12A    -11.307304
      13A     -1.477494    14A     -1.409078    15A     -1.398969
      16A     -1.383803    17A     -1.374348    18A     -1.362257
      19A     -1.097778    20A     -1.057990    21A     -0.956292
      22A     -0.875742    23A     -0.868130    24A     -0.801413
      25A     -0.762039    26A     -0.741742    27A     -0.720797
      28A     -0.708088    29A     -0.693600    30A     -0.686026
      31A     -0.661396    32A     -0.643753    33A     -0.628556
      34A     -0.616680    35A     -0.614568    36A     -0.590172
      37A     -0.582925    38A     -0.559610    39A     -0.541474
      40A     -0.533778    41A     -0.519771    42A     -0.504147
      43A     -0.483601    44A     -0.478152    45A     -0.473481
      46A     -0.464655    47A     -0.444592

  @DF-RHF Final Energy:  -682.45395117883129

   => Energetics <=

    Nuclear Repulsion Energy =            801.4693370473565892
    One-Electron Energy =               -2529.3718943061689970
    Two-Electron Energy =                1045.4486060799813458
    Total Energy =                       -682.4539511788311756
  Basis Set: (AUG-CC-PVTZ AUX)
    Blend: AUG-CC-PVTZ-RI
    Molecular point group: c1

    Geometry (in Angstrom), charge = 0, multiplicity = 1:

       Center              X                  Y                   Z               Mass
    ------------   -----------------  -----------------  -----------------  -----------------
         O            0.375284371924    -1.473065703002    -0.133771064997    15.994914619570
         O            1.392820371924     2.068013296998    -0.423789064997    15.994914619570
         O           -1.227130228076     2.342979296998     0.483798935003    15.994914619570
         O           -2.908289628076     0.060982296998    -0.172713064997    15.994914619570
         O            2.910079371924    -0.682866703002     0.952349935003    15.994914619570
         O           -1.676197628076    -2.353264703002     0.001365935003    15.994914619570
         C            0.676435371924     0.932882296998     0.065879935003    12.000000000000
         C           -0.793367628076     1.184497296998    -0.206233064997    12.000000000000
         C            1.117747371924    -0.331465703002    -0.648899064997    12.000000000000
         C           -1.588829628076     0.012219296998     0.325193935003    12.000000000000
         C            2.577212371924    -0.671349703002    -0.430959064997    12.000000000000
         C           -0.977744628076    -1.357232703002     0.007804935003    12.000000000000
         H            0.827988371924     0.810146296998     1.145443935003     1.007825032230
         H           -0.954063628076     1.265101296998    -1.293609064997     1.007825032230
         H            0.916606371924    -0.239340703002    -1.725273064997     1.007825032230
         H           -1.575783628076     0.093269296998     1.427169935003     1.007825032230
         H            3.198459371924     0.096748296998    -0.897802064997     1.007825032230
         H            2.799734371924    -1.632530703002    -0.911998064997     1.007825032230
         H            2.208882371924     2.142493296998     0.101690935003     1.007825032230
         H           -0.611911628076     3.051993296998     0.185314935003     1.007825032230
         H           -3.270347628076    -0.837213703002    -0.039952064997     1.007825032230
         H            2.405645371924    -1.416003703002     1.348462935003     1.007825032230

  Basis Set: AUG-CC-PVTZ
    Blend: AUG-CC-PVTZ
  Basis Set: (AUG-CC-PVTZ AUX)
    Blend: AUG-CC-PVTZ-JKFIT
	 Reference Energy          =    -682.4539511788312893 [Eh]
	 Singles Energy            =      -0.0000000000000000 [Eh]
	 Same-Spin Energy          =      -0.6626137458544774 [Eh]
	 Opposite-Spin Energy      =      -2.0111856092590932 [Eh]
	 Correlation Energy        =      -2.6737993551135704 [Eh]
	 Total Energy              =    -685.1277505339448908 [Eh]

	 ================> DF-SCS-MP2 Energies <==================
	-----------------------------------------------------------
	 SCS Same-Spin Scale       =       0.3333333333333333 [-]
	 SCS Opposite-Spin Scale   =       1.2000000000000000 [-]
	 SCS Same-Spin Energy      =      -0.2208712486181591 [Eh]
	 SCS Opposite-Spin Energy  =      -2.4134227311109115 [Eh]
	 SCS Correlation Energy    =      -2.6342939797290708 [Eh]
	 SCS Total Energy          =    -685.0882451585603121 [Eh]
	-----------------------------------------------------------

  Dipole Moment: [D]
     X:     3.3703      Y:     0.6036      Z:    -0.3032     Total:     3.4373

*** Psi4 exiting successfully. Buy a developer a beer!
