                               Psi4 1.4a3.dev225

  ==> Input File <==

--------------------------------------------------------------------------
#psi4
#
memory 32 gb

molecule  {
0 1
  O        0.3445260    -1.4915130    -0.1284710
  O        1.3620620     2.0495660    -0.4184890
  O       -1.2647860     2.3345150     0.4675600
  O       -2.9390480     0.0425350    -0.1674130
  O        2.8793210    -0.7013140     0.9576500
  O       -1.7069560    -2.3717120     0.0066660
  C        0.6958155     0.9938808     0.0369090
  C       -0.8241260     1.1660500    -0.2009330
  C        1.0869890    -0.3499130    -0.6435990
  C       -1.6195880    -0.0062280     0.3304940
  C        2.5464540    -0.6897970    -0.4256590
  C       -1.0085030    -1.3756800     0.0131050
  H        0.7972300     0.7916990     1.1507440
  H       -0.9848220     1.2466540    -1.2883090
  H        0.8858480    -0.2577880    -1.7199730
  H       -1.6065420     0.0748220     1.4324700
  H        3.1677010     0.0783010    -0.8925020
  H        2.7689760    -1.6509780    -0.9066980
  H        2.1781240     2.1240460     0.1069910
  H       -0.6426700     3.0335460     0.1906150
  H       -3.3011060    -0.8556610    -0.0346520
  H        2.3748870    -1.4344510     1.3537630
units angstrom
no_reorient  #important for SAPT in psi4, default
symmetry c1  #important for SAPT in psi4, default
}

set PROPERTIES_ORIGIN ["COM"]
properties('MP2/aug-cc-pvtz', properties = ['dipole'])
--------------------------------------------------------------------------

    Molecular point group: c1
  Charge       = 0
  Multiplicity = 1
  Basis Set: AUG-CC-PVTZ
    Blend: AUG-CC-PVTZ
  Basis Set: (AUG-CC-PVTZ AUX)
    Blend: AUG-CC-PVTZ-JKFIT

    Orbital Energies [Eh]
    ---------------------

    Doubly Occupied:

       1A    -20.629861     2A    -20.611783     3A    -20.585749
       4A    -20.575046     5A    -20.573162     6A    -20.567881
       7A    -11.405542     8A    -11.322384     9A    -11.320617
      10A    -11.317005    11A    -11.305495    12A    -11.305203
      13A     -1.476012    14A     -1.448118    15A     -1.397678
      16A     -1.384756    17A     -1.376349    18A     -1.362302
      19A     -1.086779    20A     -1.054045    21A     -0.953815
      22A     -0.871405    23A     -0.869153    24A     -0.795911
      25A     -0.775077    26A     -0.753256    27A     -0.718938
      28A     -0.707113    29A     -0.694744    30A     -0.686644
      31A     -0.669025    32A     -0.647847    33A     -0.630713
      34A     -0.617369    35A     -0.615318    36A     -0.598979
      37A     -0.580888    38A     -0.564766    39A     -0.538573
      40A     -0.534681    41A     -0.517485    42A     -0.502362
      43A     -0.481533    44A     -0.475696    45A     -0.463515
      46A     -0.458080    47A     -0.434284

  @DF-RHF Final Energy:  -682.44623056414900

   => Energetics <=

    Nuclear Repulsion Energy =            800.9052078572844948
    One-Electron Energy =               -2528.1770022600067023
    Two-Electron Energy =                1044.8255638385730890
    Total Energy =                       -682.4462305641491184
  Basis Set: (AUG-CC-PVTZ AUX)
    Blend: AUG-CC-PVTZ-RI
    Molecular point group: c1

    Geometry (in Angstrom), charge = 0, multiplicity = 1:

       Center              X                  Y                   Z               Mass
    ------------   -----------------  -----------------  -----------------  -----------------
         O            0.372524782382    -1.479316986197    -0.129526324376    15.994914619570
         O            1.390060782382     2.061762013803    -0.419544324376    15.994914619570
         O           -1.236787217618     2.346711013803     0.466504675624    15.994914619570
         O           -2.911049217618     0.054731013803    -0.168468324376    15.994914619570
         O            2.907319782382    -0.689117986197     0.956594675624    15.994914619570
         O           -1.678957217618    -2.359515986197     0.005610675624    15.994914619570
         C            0.723814282382     1.006076813803     0.035853675624    12.000000000000
         C           -0.796127217618     1.178246013803    -0.201988324376    12.000000000000
         C            1.114987782382    -0.337716986197    -0.644654324376    12.000000000000
         C           -1.591589217618     0.005968013803     0.329438675624    12.000000000000
         C            2.574452782382    -0.677600986197    -0.426714324376    12.000000000000
         C           -0.980504217618    -1.363483986197     0.012049675624    12.000000000000
         H            0.825228782382     0.803895013803     1.149688675624     1.007825032230
         H           -0.956823217618     1.258850013803    -1.289364324376     1.007825032230
         H            0.913846782382    -0.245591986197    -1.721028324376     1.007825032230
         H           -1.578543217618     0.087018013803     1.431414675624     1.007825032230
         H            3.195699782382     0.090497013803    -0.893557324376     1.007825032230
         H            2.796974782382    -1.638781986197    -0.907753324376     1.007825032230
         H            2.206122782382     2.136242013803     0.105935675624     1.007825032230
         H           -0.614671217618     3.045742013803     0.189559675624     1.007825032230
         H           -3.273107217618    -0.843464986197    -0.035707324376     1.007825032230
         H            2.402885782382    -1.422254986197     1.352707675624     1.007825032230

  Basis Set: AUG-CC-PVTZ
    Blend: AUG-CC-PVTZ
  Basis Set: (AUG-CC-PVTZ AUX)
    Blend: AUG-CC-PVTZ-JKFIT
	 Reference Energy          =    -682.4462305641490047 [Eh]
	 Singles Energy            =      -0.0000000000000000 [Eh]
	 Same-Spin Energy          =      -0.6623895398387960 [Eh]
	 Opposite-Spin Energy      =      -2.0097880489389133 [Eh]
	 Correlation Energy        =      -2.6721775887777093 [Eh]
	 Total Energy              =    -685.1184081529266905 [Eh]

	 ================> DF-SCS-MP2 Energies <==================
	-----------------------------------------------------------
	 SCS Same-Spin Scale       =       0.3333333333333333 [-]
	 SCS Opposite-Spin Scale   =       1.2000000000000000 [-]
	 SCS Same-Spin Energy      =      -0.2207965132795986 [Eh]
	 SCS Opposite-Spin Energy  =      -2.4117456587266957 [Eh]
	 SCS Correlation Energy    =      -2.6325421720062945 [Eh]
	 SCS Total Energy          =    -685.0787727361553152 [Eh]
	-----------------------------------------------------------

  Dipole Moment: [D]
     X:     3.5600      Y:     0.8754      Z:    -0.3254     Total:     3.6805

*** Psi4 exiting successfully. Buy a developer a beer!
