                               Psi4 1.4a3.dev225

  ==> Input File <==

--------------------------------------------------------------------------
#psi4
#
memory 32 gb

molecule  {
0 1
  O        0.3445260    -1.4915130    -0.1284710
  O        1.3620620     2.0495660    -0.4184890
  O       -1.2715492     2.3441421     0.4458174
  O       -2.9390480     0.0425350    -0.1674130
  O        2.8793210    -0.7013140     0.9576500
  O       -1.7069560    -2.3717120     0.0066660
  C        0.6456770     0.9144350     0.0711800
  C       -0.8241260     1.1660500    -0.2009330
  C        1.0869890    -0.3499130    -0.6435990
  C       -1.6195880    -0.0062280     0.3304940
  C        2.5464540    -0.6897970    -0.4256590
  C       -1.0085030    -1.3756800     0.0131050
  H        0.7972300     0.7916990     1.1507440
  H       -0.9848220     1.2466540    -1.2883090
  H        0.8858480    -0.2577880    -1.7199730
  H       -1.6065420     0.0748220     1.4324700
  H        3.1677010     0.0783010    -0.8925020
  H        2.7689760    -1.6509780    -0.9066980
  H        2.1781240     2.1240460     0.1069910
  H       -0.6426700     3.0335460     0.1906150
  H       -3.3011060    -0.8556610    -0.0346520
  H        2.3748870    -1.4344510     1.3537630
units angstrom
no_reorient  #important for SAPT in psi4, default
symmetry c1  #important for SAPT in psi4, default
}

set PROPERTIES_ORIGIN ["COM"]
properties('MP2/aug-cc-pvtz', properties = ['dipole'])
--------------------------------------------------------------------------

    Molecular point group: c1
  Charge       = 0
  Multiplicity = 1
  Basis Set: AUG-CC-PVTZ
    Blend: AUG-CC-PVTZ
  Basis Set: (AUG-CC-PVTZ AUX)
    Blend: AUG-CC-PVTZ-JKFIT

    Orbital Energies [Eh]
    ---------------------

    Doubly Occupied:

       1A    -20.629991     2A    -20.600808     3A    -20.587796
       4A    -20.575619     5A    -20.573725     6A    -20.569518
       7A    -11.407282     8A    -11.326557     9A    -11.321495
      10A    -11.315072    11A    -11.307711    12A    -11.307343
      13A     -1.477917    14A     -1.409635    15A     -1.399388
      16A     -1.384125    17A     -1.375403    18A     -1.363414
      19A     -1.098711    20A     -1.058705    21A     -0.956641
      22A     -0.877080    23A     -0.868610    24A     -0.801500
      25A     -0.762491    26A     -0.742088    27A     -0.721290
      28A     -0.707787    29A     -0.696131    30A     -0.686413
      31A     -0.663168    32A     -0.644061    33A     -0.628966
      34A     -0.617315    35A     -0.615156    36A     -0.590172
      37A     -0.583039    38A     -0.560438    39A     -0.540922
      40A     -0.534645    41A     -0.519576    42A     -0.504524
      43A     -0.484712    44A     -0.478130    45A     -0.471642
      46A     -0.464997    47A     -0.445728

  @DF-RHF Final Energy:  -682.45539866969898

   => Energetics <=

    Nuclear Repulsion Energy =            801.2390708749527448
    One-Electron Energy =               -2528.8740529434930977
    Two-Electron Energy =                1045.1795833988414870
    Total Energy =                       -682.4553986696989796
  Basis Set: (AUG-CC-PVTZ AUX)
    Blend: AUG-CC-PVTZ-RI
    Molecular point group: c1

    Geometry (in Angstrom), charge = 0, multiplicity = 1:

       Center              X                  Y                   Z               Mass
    ------------   -----------------  -----------------  -----------------  -----------------
         O            0.376511571624    -1.474827375903    -0.129882863415    15.994914619570
         O            1.394047571624     2.066251624097    -0.419900863415    15.994914619570
         O           -1.239563628376     2.360827724097     0.444405536585    15.994914619570
         O           -2.907062428376     0.059220624097    -0.168824863415    15.994914619570
         O            2.911306571624    -0.684628375903     0.956238136585    15.994914619570
         O           -1.674970428376    -2.355026375903     0.005254136585    15.994914619570
         C            0.677662571624     0.931120624097     0.069768136585    12.000000000000
         C           -0.792140428376     1.182735624097    -0.202344863415    12.000000000000
         C            1.118974571624    -0.333227375903    -0.645010863415    12.000000000000
         C           -1.587602428376     0.010457624097     0.329082136585    12.000000000000
         C            2.578439571624    -0.673111375903    -0.427070863415    12.000000000000
         C           -0.976517428376    -1.358994375903     0.011693136585    12.000000000000
         H            0.829215571624     0.808384624097     1.149332136585     1.007825032230
         H           -0.952836428376     1.263339624097    -1.289720863415     1.007825032230
         H            0.917833571624    -0.241102375903    -1.721384863415     1.007825032230
         H           -1.574556428376     0.091507624097     1.431058136585     1.007825032230
         H            3.199686571624     0.094986624097    -0.893913863415     1.007825032230
         H            2.800961571624    -1.634292375903    -0.908109863415     1.007825032230
         H            2.210109571624     2.140731624097     0.105579136585     1.007825032230
         H           -0.610684428376     3.050231624097     0.189203136585     1.007825032230
         H           -3.269120428376    -0.838975375903    -0.036063863415     1.007825032230
         H            2.406872571624    -1.417765375903     1.352351136585     1.007825032230

  Basis Set: AUG-CC-PVTZ
    Blend: AUG-CC-PVTZ
  Basis Set: (AUG-CC-PVTZ AUX)
    Blend: AUG-CC-PVTZ-JKFIT
	 Reference Energy          =    -682.4553986696989796 [Eh]
	 Singles Energy            =      -0.0000000000000000 [Eh]
	 Same-Spin Energy          =      -0.6623028184688965 [Eh]
	 Opposite-Spin Energy      =      -2.0104770620601231 [Eh]
	 Correlation Energy        =      -2.6727798805290197 [Eh]
	 Total Energy              =    -685.1281785502279718 [Eh]

	 ================> DF-SCS-MP2 Energies <==================
	-----------------------------------------------------------
	 SCS Same-Spin Scale       =       0.3333333333333333 [-]
	 SCS Opposite-Spin Scale   =       1.2000000000000000 [-]
	 SCS Same-Spin Energy      =      -0.2207676061562988 [Eh]
	 SCS Opposite-Spin Energy  =      -2.4125724744721477 [Eh]
	 SCS Correlation Energy    =      -2.6333400806284466 [Eh]
	 SCS Total Energy          =    -685.0887387503274795 [Eh]
	-----------------------------------------------------------

  Dipole Moment: [D]
     X:     3.4222      Y:     0.5425      Z:    -0.2263     Total:     3.4723

*** Psi4 exiting successfully. Buy a developer a beer!
