                               Psi4 1.4a3.dev225

  ==> Input File <==

--------------------------------------------------------------------------
#psi4
#
memory 32 gb

molecule  {
0 1
  O        0.3445260    -1.4915130    -0.1284710
  O        1.3620620     2.0495660    -0.4184890
  O       -1.2647860     2.3345150     0.4675600
  O       -2.9390480     0.0425350    -0.1674130
  O        2.8793210    -0.7013140     0.9576500
  O       -1.7069560    -2.3717120     0.0066660
  C        0.6456770     0.9144350     0.0711800
  C       -0.8241260     1.1660500    -0.2009330
  C        1.0869890    -0.3499130    -0.6435990
  C       -1.6195880    -0.0062280     0.3304940
  C        2.5464540    -0.6897970    -0.4256590
  C       -1.0085030    -1.3756800     0.0131050
  H        0.7972300     0.7916990     1.1507440
  H       -0.9848220     1.2466540    -1.2883090
  H        0.8858480    -0.2577880    -1.7199730
  H       -1.6065420     0.0748220     1.4324700
  H        3.1677010     0.0783010    -0.8925020
  H        2.7689760    -1.6509780    -0.9066980
  H        2.1781240     2.1240460     0.1069910
  H       -0.7701665     2.8902865     0.2473721
  H       -3.3011060    -0.8556610    -0.0346520
  H        2.3748870    -1.4344510     1.3537630
units angstrom
no_reorient  #important for SAPT in psi4, default
symmetry c1  #important for SAPT in psi4, default
}

set PROPERTIES_ORIGIN ["COM"]
properties('MP2/aug-cc-pvtz', properties = ['dipole'])
--------------------------------------------------------------------------

    Molecular point group: c1
  Charge       = 0
  Multiplicity = 1
  Basis Set: AUG-CC-PVTZ
    Blend: AUG-CC-PVTZ
  Basis Set: (AUG-CC-PVTZ AUX)
    Blend: AUG-CC-PVTZ-JKFIT

    Orbital Energies [Eh]
    ---------------------

    Doubly Occupied:

       1A    -20.630560     2A    -20.599730     3A    -20.588064
       4A    -20.576761     5A    -20.570165     6A    -20.556113
       7A    -11.407864     8A    -11.327154     9A    -11.322689
      10A    -11.315934    11A    -11.310245    12A    -11.308051
      13A     -1.478759    14A     -1.445291    15A     -1.403268
      16A     -1.391453    17A     -1.384105    18A     -1.368812
      19A     -1.105372    20A     -1.062758    21A     -0.957435
      22A     -0.892393    23A     -0.869767    24A     -0.803562
      25A     -0.769245    26A     -0.743244    27A     -0.736487
      28A     -0.711838    29A     -0.702895    30A     -0.688382
      31A     -0.670732    32A     -0.644945    33A     -0.629637
      34A     -0.620476    35A     -0.616459    36A     -0.592140
      37A     -0.584535    38A     -0.566540    39A     -0.545466
      40A     -0.535769    41A     -0.521219    42A     -0.504988
      43A     -0.487356    44A     -0.480176    45A     -0.475661
      46A     -0.466829    47A     -0.447566

  @DF-RHF Final Energy:  -682.40999120816298

   => Energetics <=

    Nuclear Repulsion Energy =            802.7886006510934749
    One-Electron Energy =               -2531.5594008501661847
    Two-Electron Energy =                1046.3608089909098453
    Total Energy =                       -682.4099912081628645
  Basis Set: (AUG-CC-PVTZ AUX)
    Blend: AUG-CC-PVTZ-RI
    Molecular point group: c1

    Geometry (in Angstrom), charge = 0, multiplicity = 1:

       Center              X                  Y                   Z               Mass
    ------------   -----------------  -----------------  -----------------  -----------------
         O            0.376625683479    -1.473151616604    -0.132157378448    15.994914619570
         O            1.394161683479     2.067927383396    -0.422175378448    15.994914619570
         O           -1.232686316521     2.352876383396     0.463873621552    15.994914619570
         O           -2.906948316521     0.060896383396    -0.171099378448    15.994914619570
         O            2.911420683479    -0.682952616604     0.953963621552    15.994914619570
         O           -1.674856316521    -2.353350616604     0.002979621552    15.994914619570
         C            0.677776683479     0.932796383396     0.067493621552    12.000000000000
         C           -0.792026316521     1.184411383396    -0.204619378448    12.000000000000
         C            1.119088683479    -0.331551616604    -0.647285378448    12.000000000000
         C           -1.587488316521     0.012133383396     0.326807621552    12.000000000000
         C            2.578553683479    -0.671435616604    -0.429345378448    12.000000000000
         C           -0.976403316521    -1.357318616604     0.009418621552    12.000000000000
         H            0.829329683479     0.810060383396     1.147057621552     1.007825032230
         H           -0.952722316521     1.265015383396    -1.291995378448     1.007825032230
         H            0.917947683479    -0.239426616604    -1.723659378448     1.007825032230
         H           -1.574442316521     0.093183383396     1.428783621552     1.007825032230
         H            3.199800683479     0.096662383396    -0.896188378448     1.007825032230
         H            2.801075683479    -1.632616616604    -0.910384378448     1.007825032230
         H            2.210223683479     2.142407383396     0.103304621552     1.007825032230
         H           -0.738066816521     2.908647883396     0.243685721552     1.007825032230
         H           -3.269006316521    -0.837299616604    -0.038338378448     1.007825032230
         H            2.406986683479    -1.416089616604     1.350076621552     1.007825032230

  Basis Set: AUG-CC-PVTZ
    Blend: AUG-CC-PVTZ
  Basis Set: (AUG-CC-PVTZ AUX)
    Blend: AUG-CC-PVTZ-JKFIT
	 Reference Energy          =    -682.4099912081629782 [Eh]
	 Singles Energy            =      -0.0000000000000000 [Eh]
	 Same-Spin Energy          =      -0.6599184772666065 [Eh]
	 Opposite-Spin Energy      =      -2.0051579344393584 [Eh]
	 Correlation Energy        =      -2.6650764117059649 [Eh]
	 Total Energy              =    -685.0750676198689462 [Eh]

	 ================> DF-SCS-MP2 Energies <==================
	-----------------------------------------------------------
	 SCS Same-Spin Scale       =       0.3333333333333333 [-]
	 SCS Opposite-Spin Scale   =       1.2000000000000000 [-]
	 SCS Same-Spin Energy      =      -0.2199728257555355 [Eh]
	 SCS Opposite-Spin Energy  =      -2.4061895213272302 [Eh]
	 SCS Correlation Energy    =      -2.6261623470827655 [Eh]
	 SCS Total Energy          =    -685.0361535552457326 [Eh]
	-----------------------------------------------------------

  Dipole Moment: [D]
     X:     3.2959      Y:     0.3842      Z:    -0.2383     Total:     3.3268

*** Psi4 exiting successfully. Buy a developer a beer!
