                               Psi4 1.4a3.dev225

  ==> Input File <==

--------------------------------------------------------------------------
#psi4
#
memory 32 gb

molecule  {
0 1
  O        0.3485868    -1.4448197    -0.1198442
  O        1.3620620     2.0495660    -0.4184890
  O       -1.2647860     2.3345150     0.4675600
  O       -2.9390480     0.0425350    -0.1674130
  O        2.8793210    -0.7013140     0.9576500
  O       -1.7069560    -2.3717120     0.0066660
  C        0.6456770     0.9144350     0.0711800
  C       -0.8241260     1.1660500    -0.2009330
  C        1.0869890    -0.3499130    -0.6435990
  C       -1.6195880    -0.0062280     0.3304940
  C        2.5464540    -0.6897970    -0.4256590
  C       -1.0085030    -1.3756800     0.0131050
  H        0.7972300     0.7916990     1.1507440
  H       -0.9848220     1.2466540    -1.2883090
  H        0.8858480    -0.2577880    -1.7199730
  H       -1.6065420     0.0748220     1.4324700
  H        3.1677010     0.0783010    -0.8925020
  H        2.7689760    -1.6509780    -0.9066980
  H        2.1781240     2.1240460     0.1069910
  H       -0.6426700     3.0335460     0.1906150
  H       -3.3011060    -0.8556610    -0.0346520
  H        2.3748870    -1.4344510     1.3537630
units angstrom
no_reorient  #important for SAPT in psi4, default
symmetry c1  #important for SAPT in psi4, default
}

set PROPERTIES_ORIGIN ["COM"]
properties('MP2/aug-cc-pvtz', properties = ['dipole'])
--------------------------------------------------------------------------

    Molecular point group: c1
  Charge       = 0
  Multiplicity = 1
  Basis Set: AUG-CC-PVTZ
    Blend: AUG-CC-PVTZ
  Basis Set: (AUG-CC-PVTZ AUX)
    Blend: AUG-CC-PVTZ-JKFIT

    Orbital Energies [Eh]
    ---------------------

    Doubly Occupied:

       1A    -20.629529     2A    -20.598416     3A    -20.587253
       4A    -20.574946     5A    -20.574206     6A    -20.573309
       7A    -11.410246     8A    -11.323722     9A    -11.319764
      10A    -11.312121    11A    -11.306635    12A    -11.306491
      13A     -1.483862    14A     -1.408182    15A     -1.402235
      16A     -1.383637    17A     -1.376814    18A     -1.363293
      19A     -1.096122    20A     -1.061006    21A     -0.955960
      22A     -0.875439    23A     -0.874381    24A     -0.802541
      25A     -0.761909    26A     -0.742287    27A     -0.721933
      28A     -0.708777    29A     -0.695713    30A     -0.689686
      31A     -0.662736    32A     -0.645072    33A     -0.627892
      34A     -0.616944    35A     -0.614091    36A     -0.589219
      37A     -0.583906    38A     -0.559048    39A     -0.540498
      40A     -0.534122    41A     -0.519593    42A     -0.506550
      43A     -0.484053    44A     -0.477923    45A     -0.472025
      46A     -0.464310    47A     -0.442820

  @DF-RHF Final Energy:  -682.45503561701742

   => Energetics <=

    Nuclear Repulsion Energy =            802.5863389917461745
    One-Electron Energy =               -2531.5603151390373569
    Two-Electron Energy =                1046.5189405302737669
    Total Energy =                       -682.4550356170173018
  Basis Set: (AUG-CC-PVTZ AUX)
    Blend: AUG-CC-PVTZ-RI
    Molecular point group: c1

    Geometry (in Angstrom), charge = 0, multiplicity = 1:

       Center              X                  Y                   Z               Mass
    ------------   -----------------  -----------------  -----------------  -----------------
         O            0.379599997822    -1.431463917162    -0.123984297794    15.994914619570
         O            1.393075197822     2.062921782838    -0.422629097794    15.994914619570
         O           -1.233772802178     2.347870782838     0.463419902206    15.994914619570
         O           -2.908034802178     0.055890782838    -0.171553097794    15.994914619570
         O            2.910334197822    -0.687958217162     0.953509902206    15.994914619570
         O           -1.675942802178    -2.358356217162     0.002525902206    15.994914619570
         C            0.676690197822     0.927790782838     0.067039902206    12.000000000000
         C           -0.793112802178     1.179405782838    -0.205073097794    12.000000000000
         C            1.118002197822    -0.336557217162    -0.647739097794    12.000000000000
         C           -1.588574802178     0.007127782838     0.326353902206    12.000000000000
         C            2.577467197822    -0.676441217162    -0.429799097794    12.000000000000
         C           -0.977489802178    -1.362324217162     0.008964902206    12.000000000000
         H            0.828243197822     0.805054782838     1.146603902206     1.007825032230
         H           -0.953808802178     1.260009782838    -1.292449097794     1.007825032230
         H            0.916861197822    -0.244432217162    -1.724113097794     1.007825032230
         H           -1.575528802178     0.088177782838     1.428329902206     1.007825032230
         H            3.198714197822     0.091656782838    -0.896642097794     1.007825032230
         H            2.799989197822    -1.637622217162    -0.910838097794     1.007825032230
         H            2.209137197822     2.137401782838     0.102850902206     1.007825032230
         H           -0.611656802178     3.046901782838     0.186474902206     1.007825032230
         H           -3.270092802178    -0.842305217162    -0.038792097794     1.007825032230
         H            2.405900197822    -1.421095217162     1.349622902206     1.007825032230

  Basis Set: AUG-CC-PVTZ
    Blend: AUG-CC-PVTZ
  Basis Set: (AUG-CC-PVTZ AUX)
    Blend: AUG-CC-PVTZ-JKFIT
	 Reference Energy          =    -682.4550356170174155 [Eh]
	 Singles Energy            =      -0.0000000000000000 [Eh]
	 Same-Spin Energy          =      -0.6623567318941166 [Eh]
	 Opposite-Spin Energy      =      -2.0100324846784590 [Eh]
	 Correlation Energy        =      -2.6723892165725758 [Eh]
	 Total Energy              =    -685.1274248335899983 [Eh]

	 ================> DF-SCS-MP2 Energies <==================
	-----------------------------------------------------------
	 SCS Same-Spin Scale       =       0.3333333333333333 [-]
	 SCS Opposite-Spin Scale   =       1.2000000000000000 [-]
	 SCS Same-Spin Energy      =      -0.2207855772980389 [Eh]
	 SCS Opposite-Spin Energy  =      -2.4120389816141508 [Eh]
	 SCS Correlation Energy    =      -2.6328245589121897 [Eh]
	 SCS Total Energy          =    -685.0878601759295634 [Eh]
	-----------------------------------------------------------

  Dipole Moment: [D]
     X:     3.3399      Y:     0.4217      Z:    -0.2663     Total:     3.3769

*** Psi4 exiting successfully. Buy a developer a beer!
