                               Psi4 1.4a3.dev225

  ==> Input File <==

--------------------------------------------------------------------------
#psi4
#
memory 32 gb

molecule  {
0 1
  O        0.3445260    -1.4915130    -0.1284710
  O        1.3620620     2.0495660    -0.4184890
  O       -1.2647860     2.3345150     0.4675600
  O       -2.9390480     0.0425350    -0.1674130
  O        2.8793210    -0.7013140     0.9576500
  O       -1.7069560    -2.3717120     0.0066660
  C        0.6456770     0.9144350     0.0711800
  C       -0.8241260     1.1660500    -0.2009330
  C        1.0869890    -0.3499130    -0.6435990
  C       -1.6195880    -0.0062280     0.3304940
  C        2.5464540    -0.6897970    -0.4256590
  C       -0.9885697    -1.4203508     0.0027519
  H        0.7972300     0.7916990     1.1507440
  H       -0.9848220     1.2466540    -1.2883090
  H        0.8858480    -0.2577880    -1.7199730
  H       -1.6065420     0.0748220     1.4324700
  H        3.1677010     0.0783010    -0.8925020
  H        2.7689760    -1.6509780    -0.9066980
  H        2.1781240     2.1240460     0.1069910
  H       -0.6426700     3.0335460     0.1906150
  H       -3.3011060    -0.8556610    -0.0346520
  H        2.3748870    -1.4344510     1.3537630
units angstrom
no_reorient  #important for SAPT in psi4, default
symmetry c1  #important for SAPT in psi4, default
}

set PROPERTIES_ORIGIN ["COM"]
properties('MP2/aug-cc-pvtz', properties = ['dipole'])
--------------------------------------------------------------------------

    Molecular point group: c1
  Charge       = 0
  Multiplicity = 1
  Basis Set: AUG-CC-PVTZ
    Blend: AUG-CC-PVTZ
  Basis Set: (AUG-CC-PVTZ AUX)
    Blend: AUG-CC-PVTZ-JKFIT

    Orbital Energies [Eh]
    ---------------------

    Doubly Occupied:

       1A    -20.630670     2A    -20.600192     3A    -20.588454
       4A    -20.572724     5A    -20.572425     6A    -20.569229
       7A    -11.403152     8A    -11.328688     9A    -11.317832
      10A    -11.313894    11A    -11.308664    12A    -11.304320
      13A     -1.487571    14A     -1.410622    15A     -1.403296
      16A     -1.384563    17A     -1.378607    18A     -1.362351
      19A     -1.098223    20A     -1.054264    21A     -0.950723
      22A     -0.873967    23A     -0.868444    24A     -0.801117
      25A     -0.760921    26A     -0.741305    27A     -0.721377
      28A     -0.707034    29A     -0.695224    30A     -0.690304
      31A     -0.662794    32A     -0.644945    33A     -0.630132
      34A     -0.618742    35A     -0.614111    36A     -0.588774
      37A     -0.585677    38A     -0.559098    39A     -0.540437
      40A     -0.534888    41A     -0.520145    42A     -0.508636
      43A     -0.481531    44A     -0.480003    45A     -0.472373
      46A     -0.461502    47A     -0.438512

  @DF-RHF Final Energy:  -682.45621694165141

   => Energetics <=

    Nuclear Repulsion Energy =            801.2047614092725780
    One-Electron Energy =               -2528.8370449073345299
    Two-Electron Energy =                1045.1760665564106603
    Total Energy =                       -682.4562169416512916
  Basis Set: (AUG-CC-PVTZ AUX)
    Blend: AUG-CC-PVTZ-RI
    Molecular point group: c1

    Geometry (in Angstrom), charge = 0, multiplicity = 1:

       Center              X                  Y                   Z               Mass
    ------------   -----------------  -----------------  -----------------  -----------------
         O            0.374560542027    -1.470951818425    -0.131138334746    15.994914619570
         O            1.392096542027     2.070127181575    -0.421156334746    15.994914619570
         O           -1.234751457973     2.355076181575     0.464892665254    15.994914619570
         O           -2.909013457973     0.063096181575    -0.170080334746    15.994914619570
         O            2.909355542027    -0.680752818425     0.954982665254    15.994914619570
         O           -1.676921457973    -2.351150818425     0.003998665254    15.994914619570
         C            0.675711542027     0.934996181575     0.068512665254    12.000000000000
         C           -0.794091457973     1.186611181575    -0.203600334746    12.000000000000
         C            1.117023542027    -0.329351818425    -0.646266334746    12.000000000000
         C           -1.589553457973     0.014333181575     0.327826665254    12.000000000000
         C            2.576488542027    -0.669235818425    -0.428326334746    12.000000000000
         C           -0.958535157973    -1.399789618425     0.000084565254    12.000000000000
         H            0.827264542027     0.812260181575     1.148076665254     1.007825032230
         H           -0.954787457973     1.267215181575    -1.290976334746     1.007825032230
         H            0.915882542027    -0.237226818425    -1.722640334746     1.007825032230
         H           -1.576507457973     0.095383181575     1.429802665254     1.007825032230
         H            3.197735542027     0.098862181575    -0.895169334746     1.007825032230
         H            2.799010542027    -1.630416818425    -0.909365334746     1.007825032230
         H            2.208158542027     2.144607181575     0.104323665254     1.007825032230
         H           -0.612635457973     3.054107181575     0.187947665254     1.007825032230
         H           -3.271071457973    -0.835099818425    -0.037319334746     1.007825032230
         H            2.404921542027    -1.413889818425     1.351095665254     1.007825032230

  Basis Set: AUG-CC-PVTZ
    Blend: AUG-CC-PVTZ
  Basis Set: (AUG-CC-PVTZ AUX)
    Blend: AUG-CC-PVTZ-JKFIT
	 Reference Energy          =    -682.4562169416514053 [Eh]
	 Singles Energy            =      -0.0000000000000000 [Eh]
	 Same-Spin Energy          =      -0.6614198506836700 [Eh]
	 Opposite-Spin Energy      =      -2.0085727284716670 [Eh]
	 Correlation Energy        =      -2.6699925791553372 [Eh]
	 Total Energy              =    -685.1262095208066967 [Eh]

	 ================> DF-SCS-MP2 Energies <==================
	-----------------------------------------------------------
	 SCS Same-Spin Scale       =       0.3333333333333333 [-]
	 SCS Opposite-Spin Scale   =       1.2000000000000000 [-]
	 SCS Same-Spin Energy      =      -0.2204732835612233 [Eh]
	 SCS Opposite-Spin Energy  =      -2.4102872741660004 [Eh]
	 SCS Correlation Energy    =      -2.6307605577272239 [Eh]
	 SCS Total Energy          =    -685.0869774993785768 [Eh]
	-----------------------------------------------------------

  Dipole Moment: [D]
     X:     3.5357      Y:     0.3770      Z:    -0.3249     Total:     3.5706

*** Psi4 exiting successfully. Buy a developer a beer!
