                               Psi4 1.4a3.dev225

  ==> Input File <==

--------------------------------------------------------------------------
#psi4
#
memory 32 gb

molecule  {
0 1
  O        0.3445260    -1.4915130    -0.1284710
  O        1.3620620     2.0495660    -0.4184890
  O       -1.2910128     2.3708591     0.3794344
  O       -2.9390480     0.0425350    -0.1674130
  O        2.8793210    -0.7013140     0.9576500
  O       -1.7069560    -2.3717120     0.0066660
  C        0.6456770     0.9144350     0.0711800
  C       -0.8241260     1.1660500    -0.2009330
  C        1.0869890    -0.3499130    -0.6435990
  C       -1.6195880    -0.0062280     0.3304940
  C        2.5464540    -0.6897970    -0.4256590
  C       -1.0085030    -1.3756800     0.0131050
  H        0.7972300     0.7916990     1.1507440
  H       -0.9848220     1.2466540    -1.2883090
  H        0.8858480    -0.2577880    -1.7199730
  H       -1.6065420     0.0748220     1.4324700
  H        3.1677010     0.0783010    -0.8925020
  H        2.7689760    -1.6509780    -0.9066980
  H        2.1781240     2.1240460     0.1069910
  H       -0.6426700     3.0335460     0.1906150
  H       -3.3011060    -0.8556610    -0.0346520
  H        2.3748870    -1.4344510     1.3537630
units angstrom
no_reorient  #important for SAPT in psi4, default
symmetry c1  #important for SAPT in psi4, default
}

set PROPERTIES_ORIGIN ["COM"]
properties('MP2/aug-cc-pvtz', properties = ['dipole'])
--------------------------------------------------------------------------

    Molecular point group: c1
  Charge       = 0
  Multiplicity = 1
  Basis Set: AUG-CC-PVTZ
    Blend: AUG-CC-PVTZ
  Basis Set: (AUG-CC-PVTZ AUX)
    Blend: AUG-CC-PVTZ-JKFIT

    Orbital Energies [Eh]
    ---------------------

    Doubly Occupied:

       1A    -20.630546     2A    -20.601266     3A    -20.588263
       4A    -20.575794     5A    -20.570581     6A    -20.570156
       7A    -11.408136     8A    -11.327355     9A    -11.322392
      10A    -11.316440    11A    -11.308229    12A    -11.307299
      13A     -1.478491    14A     -1.410419    15A     -1.399961
      16A     -1.384583    17A     -1.376906    18A     -1.364742
      19A     -1.099923    20A     -1.059618    21A     -0.957136
      22A     -0.879007    23A     -0.869225    24A     -0.801660
      25A     -0.763056    26A     -0.742600    27A     -0.721900
      28A     -0.707099    29A     -0.699949    30A     -0.686730
      31A     -0.665175    32A     -0.644359    33A     -0.629617
      34A     -0.618278    35A     -0.615657    36A     -0.590110
      37A     -0.583081    38A     -0.561763    39A     -0.540187
      40A     -0.535821    41A     -0.519237    42A     -0.505053
      43A     -0.486272    44A     -0.478421    45A     -0.469558
      46A     -0.463963    47A     -0.447357

  @DF-RHF Final Energy:  -682.45537585330692

   => Energetics <=

    Nuclear Repulsion Energy =            800.9129579552660516
    One-Electron Energy =               -2528.1699273173999245
    Two-Electron Energy =                1044.8015935088271817
    Total Energy =                       -682.4553758533068049
  Basis Set: (AUG-CC-PVTZ AUX)
    Blend: AUG-CC-PVTZ-RI
    Molecular point group: c1

    Geometry (in Angstrom), charge = 0, multiplicity = 1:

       Center              X                  Y                   Z               Mass
    ------------   -----------------  -----------------  -----------------  -----------------
         O            0.378260083700    -1.477227497009    -0.123919348075    15.994914619570
         O            1.395796083700     2.063851502991    -0.413937348075    15.994914619570
         O           -1.257278716300     2.385144602991     0.383986051925    15.994914619570
         O           -2.905313916300     0.056820502991    -0.162861348075    15.994914619570
         O            2.913055083700    -0.687028497009     0.962201651925    15.994914619570
         O           -1.673221916300    -2.357426497009     0.011217651925    15.994914619570
         C            0.679411083700     0.928720502991     0.075731651925    12.000000000000
         C           -0.790391916300     1.180335502991    -0.196381348075    12.000000000000
         C            1.120723083700    -0.335627497009    -0.639047348075    12.000000000000
         C           -1.585853916300     0.008057502991     0.335045651925    12.000000000000
         C            2.580188083700    -0.675511497009    -0.421107348075    12.000000000000
         C           -0.974768916300    -1.361394497009     0.017656651925    12.000000000000
         H            0.830964083700     0.805984502991     1.155295651925     1.007825032230
         H           -0.951087916300     1.260939502991    -1.283757348075     1.007825032230
         H            0.919582083700    -0.243502497009    -1.715421348075     1.007825032230
         H           -1.572807916300     0.089107502991     1.437021651925     1.007825032230
         H            3.201435083700     0.092586502991    -0.887950348075     1.007825032230
         H            2.802710083700    -1.636692497009    -0.902146348075     1.007825032230
         H            2.211858083700     2.138331502991     0.111542651925     1.007825032230
         H           -0.608935916300     3.047831502991     0.195166651925     1.007825032230
         H           -3.267371916300    -0.841375497009    -0.030100348075     1.007825032230
         H            2.408621083700    -1.420165497009     1.358314651925     1.007825032230

  Basis Set: AUG-CC-PVTZ
    Blend: AUG-CC-PVTZ
  Basis Set: (AUG-CC-PVTZ AUX)
    Blend: AUG-CC-PVTZ-JKFIT
	 Reference Energy          =    -682.4553758533069185 [Eh]
	 Singles Energy            =      -0.0000000000000000 [Eh]
	 Same-Spin Energy          =      -0.6619567426460018 [Eh]
	 Opposite-Spin Energy      =      -2.0097112616780750 [Eh]
	 Correlation Energy        =      -2.6716680043240766 [Eh]
	 Total Energy              =    -685.1270438576309516 [Eh]

	 ================> DF-SCS-MP2 Energies <==================
	-----------------------------------------------------------
	 SCS Same-Spin Scale       =       0.3333333333333333 [-]
	 SCS Opposite-Spin Scale   =       1.2000000000000000 [-]
	 SCS Same-Spin Energy      =      -0.2206522475486672 [Eh]
	 SCS Opposite-Spin Energy  =      -2.4116535140136901 [Eh]
	 SCS Correlation Energy    =      -2.6323057615623573 [Eh]
	 SCS Total Energy          =    -685.0876816148693251 [Eh]
	-----------------------------------------------------------

  Dipole Moment: [D]
     X:     3.4964      Y:     0.4576      Z:    -0.1028     Total:     3.5277

*** Psi4 exiting successfully. Buy a developer a beer!
