                               Psi4 1.4a3.dev225

  ==> Input File <==

--------------------------------------------------------------------------
#psi4
#
memory 32 gb

molecule  {
0 1
  O        0.3445260    -1.4915130    -0.1284710
  O        1.3620620     2.0495660    -0.4184890
  O       -1.2321732     2.3607974     0.4412903
  O       -2.9390480     0.0425350    -0.1674130
  O        2.8793210    -0.7013140     0.9576500
  O       -1.7069560    -2.3717120     0.0066660
  C        0.6456770     0.9144350     0.0711800
  C       -0.8241260     1.1660500    -0.2009330
  C        1.0869890    -0.3499130    -0.6435990
  C       -1.6195880    -0.0062280     0.3304940
  C        2.5464540    -0.6897970    -0.4256590
  C       -1.0085030    -1.3756800     0.0131050
  H        0.7972300     0.7916990     1.1507440
  H       -0.9848220     1.2466540    -1.2883090
  H        0.8858480    -0.2577880    -1.7199730
  H       -1.6065420     0.0748220     1.4324700
  H        3.1677010     0.0783010    -0.8925020
  H        2.7689760    -1.6509780    -0.9066980
  H        2.1781240     2.1240460     0.1069910
  H       -0.6426700     3.0335460     0.1906150
  H       -3.3011060    -0.8556610    -0.0346520
  H        2.3748870    -1.4344510     1.3537630
units angstrom
no_reorient  #important for SAPT in psi4, default
symmetry c1  #important for SAPT in psi4, default
}

set PROPERTIES_ORIGIN ["COM"]
properties('MP2/aug-cc-pvtz', properties = ['dipole'])
--------------------------------------------------------------------------

    Molecular point group: c1
  Charge       = 0
  Multiplicity = 1
  Basis Set: AUG-CC-PVTZ
    Blend: AUG-CC-PVTZ
  Basis Set: (AUG-CC-PVTZ AUX)
    Blend: AUG-CC-PVTZ-JKFIT

    Orbital Energies [Eh]
    ---------------------

    Doubly Occupied:

       1A    -20.630150     2A    -20.599862     3A    -20.587528
       4A    -20.576357     5A    -20.570190     6A    -20.569013
       7A    -11.408185     8A    -11.326027     9A    -11.322811
      10A    -11.314230    11A    -11.308248    12A    -11.307327
      13A     -1.478237    14A     -1.411092    15A     -1.400173
      16A     -1.384038    17A     -1.377842    18A     -1.365988
      19A     -1.099638    20A     -1.059606    21A     -0.956548
      22A     -0.880221    23A     -0.868615    24A     -0.801503
      25A     -0.762515    26A     -0.742276    27A     -0.724714
      28A     -0.708729    29A     -0.698803    30A     -0.687234
      31A     -0.664980    32A     -0.643895    33A     -0.628731
      34A     -0.618599    35A     -0.615260    36A     -0.590928
      37A     -0.583586    38A     -0.559640    39A     -0.540055
      40A     -0.534786    41A     -0.519451    42A     -0.504577
      43A     -0.485847    44A     -0.478230    45A     -0.471995
      46A     -0.465064    47A     -0.445617

  @DF-RHF Final Energy:  -682.45576351013733

   => Energetics <=

    Nuclear Repulsion Energy =            801.4733131422849510
    One-Electron Energy =               -2529.3002723336567215
    Two-Electron Energy =                1045.3711956812344397
    Total Energy =                       -682.4557635101373307
  Basis Set: (AUG-CC-PVTZ AUX)
    Blend: AUG-CC-PVTZ-RI
    Molecular point group: c1

    Geometry (in Angstrom), charge = 0, multiplicity = 1:

       Center              X                  Y                   Z               Mass
    ------------   -----------------  -----------------  -----------------  -----------------
         O            0.372974229532    -1.476323604411    -0.129476171487    15.994914619570
         O            1.390510229532     2.064755395589    -0.419494171487    15.994914619570
         O           -1.203724970468     2.375986795589     0.440285128513    15.994914619570
         O           -2.910599770468     0.057724395589    -0.168418171487    15.994914619570
         O            2.907769229532    -0.686124604411     0.956644828513    15.994914619570
         O           -1.678507770468    -2.356522604411     0.005660828513    15.994914619570
         C            0.674125229532     0.929624395589     0.070174828513    12.000000000000
         C           -0.795677770468     1.181239395589    -0.201938171487    12.000000000000
         C            1.115437229532    -0.334723604411    -0.644604171487    12.000000000000
         C           -1.591139770468     0.008961395589     0.329488828513    12.000000000000
         C            2.574902229532    -0.674607604411    -0.426664171487    12.000000000000
         C           -0.980054770468    -1.360490604411     0.012099828513    12.000000000000
         H            0.825678229532     0.806888395589     1.149738828513     1.007825032230
         H           -0.956373770468     1.261843395589    -1.289314171487     1.007825032230
         H            0.914296229532    -0.242598604411    -1.720978171487     1.007825032230
         H           -1.578093770468     0.090011395589     1.431464828513     1.007825032230
         H            3.196149229532     0.093490395589    -0.893507171487     1.007825032230
         H            2.797424229532    -1.635788604411    -0.907703171487     1.007825032230
         H            2.206572229532     2.139235395589     0.105985828513     1.007825032230
         H           -0.614221770468     3.048735395589     0.189609828513     1.007825032230
         H           -3.272657770468    -0.840471604411    -0.035657171487     1.007825032230
         H            2.403335229532    -1.419261604411     1.352757828513     1.007825032230

  Basis Set: AUG-CC-PVTZ
    Blend: AUG-CC-PVTZ
  Basis Set: (AUG-CC-PVTZ AUX)
    Blend: AUG-CC-PVTZ-JKFIT
	 Reference Energy          =    -682.4557635101373307 [Eh]
	 Singles Energy            =      -0.0000000000000000 [Eh]
	 Same-Spin Energy          =      -0.6617225321838819 [Eh]
	 Opposite-Spin Energy      =      -2.0091072499143090 [Eh]
	 Correlation Energy        =      -2.6708297820981910 [Eh]
	 Total Energy              =    -685.1265932922354978 [Eh]

	 ================> DF-SCS-MP2 Energies <==================
	-----------------------------------------------------------
	 SCS Same-Spin Scale       =       0.3333333333333333 [-]
	 SCS Opposite-Spin Scale   =       1.2000000000000000 [-]
	 SCS Same-Spin Energy      =      -0.2205741773946273 [Eh]
	 SCS Opposite-Spin Energy  =      -2.4109286998971706 [Eh]
	 SCS Correlation Energy    =      -2.6315028772917981 [Eh]
	 SCS Total Energy          =    -685.0872663874291675 [Eh]
	-----------------------------------------------------------

  Dipole Moment: [D]
     X:     3.3494      Y:     0.5033      Z:    -0.2336     Total:     3.3951

*** Psi4 exiting successfully. Buy a developer a beer!
