                               Psi4 1.4a3.dev225

  ==> Input File <==

--------------------------------------------------------------------------
#psi4
#
memory 32 gb

molecule  {
0 1
  O        0.3418770    -1.5148103    -0.1327204
  O        1.3620620     2.0495660    -0.4184890
  O       -1.2647860     2.3345150     0.4675600
  O       -2.9390480     0.0425350    -0.1674130
  O        2.8793210    -0.7013140     0.9576500
  O       -1.7069560    -2.3717120     0.0066660
  C        0.6456770     0.9144350     0.0711800
  C       -0.8241260     1.1660500    -0.2009330
  C        1.0869890    -0.3499130    -0.6435990
  C       -1.6195880    -0.0062280     0.3304940
  C        2.5464540    -0.6897970    -0.4256590
  C       -1.0085030    -1.3756800     0.0131050
  H        0.7972300     0.7916990     1.1507440
  H       -0.9848220     1.2466540    -1.2883090
  H        0.8858480    -0.2577880    -1.7199730
  H       -1.6065420     0.0748220     1.4324700
  H        3.1677010     0.0783010    -0.8925020
  H        2.7689760    -1.6509780    -0.9066980
  H        2.1781240     2.1240460     0.1069910
  H       -0.6426700     3.0335460     0.1906150
  H       -3.3011060    -0.8556610    -0.0346520
  H        2.3748870    -1.4344510     1.3537630
units angstrom
no_reorient  #important for SAPT in psi4, default
symmetry c1  #important for SAPT in psi4, default
}

set PROPERTIES_ORIGIN ["COM"]
properties('MP2/aug-cc-pvtz', properties = ['dipole'])
--------------------------------------------------------------------------

    Molecular point group: c1
  Charge       = 0
  Multiplicity = 1
  Basis Set: AUG-CC-PVTZ
    Blend: AUG-CC-PVTZ
  Basis Set: (AUG-CC-PVTZ AUX)
    Blend: AUG-CC-PVTZ-JKFIT

    Orbital Energies [Eh]
    ---------------------

    Doubly Occupied:

       1A    -20.629803     2A    -20.601739     3A    -20.587826
       4A    -20.575845     5A    -20.575243     6A    -20.567284
       7A    -11.405403     8A    -11.327585     9A    -11.321865
      10A    -11.315825    11A    -11.307978    12A    -11.307743
      13A     -1.474938    14A     -1.410077    15A     -1.397880
      16A     -1.384181    17A     -1.373744    18A     -1.362226
      19A     -1.099328    20A     -1.057185    21A     -0.956775
      22A     -0.876925    23A     -0.865408    24A     -0.800953
      25A     -0.762385    26A     -0.741845    27A     -0.720594
      28A     -0.707687    29A     -0.694322    30A     -0.684558
      31A     -0.662050    32A     -0.643530    33A     -0.629294
      34A     -0.616880    35A     -0.615140    36A     -0.590630
      37A     -0.582441    38A     -0.560475    39A     -0.541526
      40A     -0.534258    41A     -0.519663    42A     -0.503295
      43A     -0.484197    44A     -0.478193    45A     -0.472669
      46A     -0.465052    47A     -0.446185

  @DF-RHF Final Energy:  -682.45376200330679

   => Energetics <=

    Nuclear Repulsion Energy =            800.7427754729766320
    One-Electron Energy =               -2527.9118126987445976
    Two-Electron Energy =                1044.7152752224612868
    Total Energy =                       -682.4537620033067924
  Basis Set: (AUG-CC-PVTZ AUX)
    Blend: AUG-CC-PVTZ-RI
    Molecular point group: c1

    Geometry (in Angstrom), charge = 0, multiplicity = 1:

       Center              X                  Y                   Z               Mass
    ------------   -----------------  -----------------  -----------------  -----------------
         O            0.373492972557    -1.495166913155    -0.135703764651    15.994914619570
         O            1.393677972557     2.069209386845    -0.421472364651    15.994914619570
         O           -1.233170027443     2.354158386845     0.464576635349    15.994914619570
         O           -2.907432027443     0.062178386845    -0.170396364651    15.994914619570
         O            2.910936972557    -0.681670613155     0.954666635349    15.994914619570
         O           -1.675340027443    -2.352068613155     0.003682635349    15.994914619570
         C            0.677292972557     0.934078386845     0.068196635349    12.000000000000
         C           -0.792510027443     1.185693386845    -0.203916364651    12.000000000000
         C            1.118604972557    -0.330269613155    -0.646582364651    12.000000000000
         C           -1.587972027443     0.013415386845     0.327510635349    12.000000000000
         C            2.578069972557    -0.670153613155    -0.428642364651    12.000000000000
         C           -0.976887027443    -1.356036613155     0.010121635349    12.000000000000
         H            0.828845972557     0.811342386845     1.147760635349     1.007825032230
         H           -0.953206027443     1.266297386845    -1.291292364651     1.007825032230
         H            0.917463972557    -0.238144613155    -1.722956364651     1.007825032230
         H           -1.574926027443     0.094465386845     1.429486635349     1.007825032230
         H            3.199316972557     0.097944386845    -0.895485364651     1.007825032230
         H            2.800591972557    -1.631334613155    -0.909681364651     1.007825032230
         H            2.209739972557     2.143689386845     0.104007635349     1.007825032230
         H           -0.611054027443     3.053189386845     0.187631635349     1.007825032230
         H           -3.269490027443    -0.836017613155    -0.037635364651     1.007825032230
         H            2.406502972557    -1.414807613155     1.350779635349     1.007825032230

  Basis Set: AUG-CC-PVTZ
    Blend: AUG-CC-PVTZ
  Basis Set: (AUG-CC-PVTZ AUX)
    Blend: AUG-CC-PVTZ-JKFIT
	 Reference Energy          =    -682.4537620033067924 [Eh]
	 Singles Energy            =      -0.0000000000000000 [Eh]
	 Same-Spin Energy          =      -0.6625398408465071 [Eh]
	 Opposite-Spin Energy      =      -2.0112868446143208 [Eh]
	 Correlation Energy        =      -2.6738266854608277 [Eh]
	 Total Energy              =    -685.1275886887676734 [Eh]

	 ================> DF-SCS-MP2 Energies <==================
	-----------------------------------------------------------
	 SCS Same-Spin Scale       =       0.3333333333333333 [-]
	 SCS Opposite-Spin Scale   =       1.2000000000000000 [-]
	 SCS Same-Spin Energy      =      -0.2208466136155023 [Eh]
	 SCS Opposite-Spin Energy  =      -2.4135442135371847 [Eh]
	 SCS Correlation Energy    =      -2.6343908271526870 [Eh]
	 SCS Total Energy          =    -685.0881528304595349 [Eh]
	-----------------------------------------------------------

  Dipole Moment: [D]
     X:     3.4239      Y:     0.6457      Z:    -0.2644     Total:     3.4943

*** Psi4 exiting successfully. Buy a developer a beer!
