                               Psi4 1.4a3.dev225

  ==> Input File <==

--------------------------------------------------------------------------
#psi4
#
memory 32 gb

molecule  {
0 1
  O        0.3445260    -1.4915130    -0.1284710
  O        1.3620620     2.0495660    -0.4184890
  O       -1.2647860     2.3345150     0.4675600
  O       -2.9390480     0.0425350    -0.1674130
  O        2.8793210    -0.7013140     0.9576500
  O       -1.7069560    -2.3717120     0.0066660
  C        0.6456770     0.9144350     0.0711800
  C       -0.8241260     1.1660500    -0.2009330
  C        1.0869890    -0.3499130    -0.6435990
  C       -1.6195880    -0.0062280     0.3304940
  C        2.5464540    -0.6897970    -0.4256590
  C       -0.9589538    -1.3799219     0.0079204
  H        0.7972300     0.7916990     1.1507440
  H       -0.9848220     1.2466540    -1.2883090
  H        0.8858480    -0.2577880    -1.7199730
  H       -1.6065420     0.0748220     1.4324700
  H        3.1677010     0.0783010    -0.8925020
  H        2.7689760    -1.6509780    -0.9066980
  H        2.1781240     2.1240460     0.1069910
  H       -0.6426700     3.0335460     0.1906150
  H       -3.3011060    -0.8556610    -0.0346520
  H        2.3748870    -1.4344510     1.3537630
units angstrom
no_reorient  #important for SAPT in psi4, default
symmetry c1  #important for SAPT in psi4, default
}

set PROPERTIES_ORIGIN ["COM"]
properties('MP2/aug-cc-pvtz', properties = ['dipole'])
--------------------------------------------------------------------------

    Molecular point group: c1
  Charge       = 0
  Multiplicity = 1
  Basis Set: AUG-CC-PVTZ
    Blend: AUG-CC-PVTZ
  Basis Set: (AUG-CC-PVTZ AUX)
    Blend: AUG-CC-PVTZ-JKFIT

    Orbital Energies [Eh]
    ---------------------

    Doubly Occupied:

       1A    -20.640479     2A    -20.602921     3A    -20.591124
       4A    -20.574267     5A    -20.573231     6A    -20.559716
       7A    -11.406384     8A    -11.332598     9A    -11.320054
      10A    -11.317161    11A    -11.311485    12A    -11.306234
      13A     -1.494239    14A     -1.410528    15A     -1.395671
      16A     -1.386217    17A     -1.370800    18A     -1.355353
      19A     -1.103382    20A     -1.060119    21A     -0.955103
      22A     -0.879728    23A     -0.873478    24A     -0.805750
      25A     -0.763694    26A     -0.744456    27A     -0.722606
      28A     -0.707969    29A     -0.697511    30A     -0.686776
      31A     -0.664525    32A     -0.640579    33A     -0.631516
      34A     -0.620622    35A     -0.617115    36A     -0.589419
      37A     -0.585672    38A     -0.561091    39A     -0.542300
      40A     -0.533144    41A     -0.519727    42A     -0.499857
      43A     -0.481222    44A     -0.478723    45A     -0.469703
      46A     -0.463270    47A     -0.444009

  @DF-RHF Final Energy:  -682.45150369099156

   => Energetics <=

    Nuclear Repulsion Energy =            801.6166711756984569
    One-Electron Energy =               -2529.5532869177445718
    Two-Electron Energy =                1045.4851120510545570
    Total Energy =                       -682.4515036909915580
  Basis Set: (AUG-CC-PVTZ AUX)
    Blend: AUG-CC-PVTZ-RI
    Molecular point group: c1

    Geometry (in Angstrom), charge = 0, multiplicity = 1:

       Center              X                  Y                   Z               Mass
    ------------   -----------------  -----------------  -----------------  -----------------
         O            0.372564499820    -1.473676631475    -0.131486679525    15.994914619570
         O            1.390100499820     2.067402368525    -0.421504679525    15.994914619570
         O           -1.236747500180     2.352351368525     0.464544320475    15.994914619570
         O           -2.911009500180     0.060371368525    -0.170428679525    15.994914619570
         O            2.907359499820    -0.683477631475     0.954634320475    15.994914619570
         O           -1.678917500180    -2.353875631475     0.003650320475    15.994914619570
         C            0.673715499820     0.932271368525     0.068164320475    12.000000000000
         C           -0.796087500180     1.183886368525    -0.203948679525    12.000000000000
         C            1.115027499820    -0.332076631475    -0.646614679525    12.000000000000
         C           -1.591549500180     0.011608368525     0.327478320475    12.000000000000
         C            2.574492499820    -0.671960631475    -0.428674679525    12.000000000000
         C           -0.930915300180    -1.362085531475     0.004904720475    12.000000000000
         H            0.825268499820     0.809535368525     1.147728320475     1.007825032230
         H           -0.956783500180     1.264490368525    -1.291324679525     1.007825032230
         H            0.913886499820    -0.239951631475    -1.722988679525     1.007825032230
         H           -1.578503500180     0.092658368525     1.429454320475     1.007825032230
         H            3.195739499820     0.096137368525    -0.895517679525     1.007825032230
         H            2.797014499820    -1.633141631475    -0.909713679525     1.007825032230
         H            2.206162499820     2.141882368525     0.103975320475     1.007825032230
         H           -0.614631500180     3.051382368525     0.187599320475     1.007825032230
         H           -3.273067500180    -0.837824631475    -0.037667679525     1.007825032230
         H            2.402925499820    -1.416614631475     1.350747320475     1.007825032230

  Basis Set: AUG-CC-PVTZ
    Blend: AUG-CC-PVTZ
  Basis Set: (AUG-CC-PVTZ AUX)
    Blend: AUG-CC-PVTZ-JKFIT
	 Reference Energy          =    -682.4515036909915580 [Eh]
	 Singles Energy            =      -0.0000000000000000 [Eh]
	 Same-Spin Energy          =      -0.6626529276622598 [Eh]
	 Opposite-Spin Energy      =      -2.0109946040560840 [Eh]
	 Correlation Energy        =      -2.6736475317183439 [Eh]
	 Total Energy              =    -685.1251512227098601 [Eh]

	 ================> DF-SCS-MP2 Energies <==================
	-----------------------------------------------------------
	 SCS Same-Spin Scale       =       0.3333333333333333 [-]
	 SCS Opposite-Spin Scale   =       1.2000000000000000 [-]
	 SCS Same-Spin Energy      =      -0.2208843092207532 [Eh]
	 SCS Opposite-Spin Energy  =      -2.4131935248673009 [Eh]
	 SCS Correlation Energy    =      -2.6340778340880542 [Eh]
	 SCS Total Energy          =    -685.0855815250796468 [Eh]
	-----------------------------------------------------------

  Dipole Moment: [D]
     X:     3.8477      Y:     0.6643      Z:    -0.3240     Total:     3.9180

*** Psi4 exiting successfully. Buy a developer a beer!
