                               Psi4 1.4a3.dev225

  ==> Input File <==

--------------------------------------------------------------------------
#psi4
#
memory 32 gb

molecule  {
0 1
  O        0.3445260    -1.4915130    -0.1284710
  O        1.3620620     2.0495660    -0.4184890
  O       -1.2647860     2.3345150     0.4675600
  O       -2.9390480     0.0425350    -0.1674130
  O        2.8793210    -0.7013140     0.9576500
  O       -1.7069560    -2.3717120     0.0066660
  C        0.6456770     0.9144350     0.0711800
  C       -0.8188300     1.1676152    -0.2268057
  C        1.0869890    -0.3499130    -0.6435990
  C       -1.6195880    -0.0062280     0.3304940
  C        2.5464540    -0.6897970    -0.4256590
  C       -1.0085030    -1.3756800     0.0131050
  H        0.7972300     0.7916990     1.1507440
  H       -0.9848220     1.2466540    -1.2883090
  H        0.8858480    -0.2577880    -1.7199730
  H       -1.6065420     0.0748220     1.4324700
  H        3.1677010     0.0783010    -0.8925020
  H        2.7689760    -1.6509780    -0.9066980
  H        2.1781240     2.1240460     0.1069910
  H       -0.6426700     3.0335460     0.1906150
  H       -3.3011060    -0.8556610    -0.0346520
  H        2.3748870    -1.4344510     1.3537630
units angstrom
no_reorient  #important for SAPT in psi4, default
symmetry c1  #important for SAPT in psi4, default
}

set PROPERTIES_ORIGIN ["COM"]
properties('MP2/aug-cc-pvtz', properties = ['dipole'])
--------------------------------------------------------------------------

    Molecular point group: c1
  Charge       = 0
  Multiplicity = 1
  Basis Set: AUG-CC-PVTZ
    Blend: AUG-CC-PVTZ
  Basis Set: (AUG-CC-PVTZ AUX)
    Blend: AUG-CC-PVTZ-JKFIT

    Orbital Energies [Eh]
    ---------------------

    Doubly Occupied:

       1A    -20.629742     2A    -20.600353     3A    -20.587772
       4A    -20.575292     5A    -20.573922     6A    -20.568989
       7A    -11.406352     8A    -11.326213     9A    -11.321523
      10A    -11.314830    11A    -11.307521    12A    -11.306502
      13A     -1.477566    14A     -1.408552    15A     -1.398536
      16A     -1.383873    17A     -1.373073    18A     -1.360806
      19A     -1.097908    20A     -1.057182    21A     -0.956127
      22A     -0.877533    23A     -0.867808    24A     -0.802649
      25A     -0.761499    26A     -0.741841    27A     -0.719990
      28A     -0.708177    29A     -0.693581    30A     -0.685938
      31A     -0.661347    32A     -0.644414    33A     -0.628916
      34A     -0.616145    35A     -0.613501    36A     -0.589418
      37A     -0.583110    38A     -0.559876    39A     -0.541198
      40A     -0.533768    41A     -0.519298    42A     -0.504241
      43A     -0.483294    44A     -0.478982    45A     -0.475086
      46A     -0.465041    47A     -0.444744

  @DF-RHF Final Energy:  -682.45385446194700

   => Energetics <=

    Nuclear Repulsion Energy =            801.1443278274373370
    One-Electron Energy =               -2528.7283062324049752
    Two-Electron Energy =                1045.1301239430206351
    Total Energy =                       -682.4538544619470031
  Basis Set: (AUG-CC-PVTZ AUX)
    Blend: AUG-CC-PVTZ-RI
    Molecular point group: c1

    Geometry (in Angstrom), charge = 0, multiplicity = 1:

       Center              X                  Y                   Z               Mass
    ------------   -----------------  -----------------  -----------------  -----------------
         O            0.375547061721    -1.474068016396    -0.130092350101    15.994914619570
         O            1.393083061721     2.067010983604    -0.420110350101    15.994914619570
         O           -1.233764938279     2.351959983604     0.465938649899    15.994914619570
         O           -2.908026938279     0.059979983604    -0.169034350101    15.994914619570
         O            2.910342061721    -0.683869016396     0.956028649899    15.994914619570
         O           -1.675934938279    -2.354267016396     0.005044649899    15.994914619570
         C            0.676698061721     0.931879983604     0.069558649899    12.000000000000
         C           -0.787808938279     1.185060183604    -0.228427050101    12.000000000000
         C            1.118010061721    -0.332468016396    -0.645220350101    12.000000000000
         C           -1.588566938279     0.011216983604     0.328872649899    12.000000000000
         C            2.577475061721    -0.672352016396    -0.427280350101    12.000000000000
         C           -0.977481938279    -1.358235016396     0.011483649899    12.000000000000
         H            0.828251061721     0.809143983604     1.149122649899     1.007825032230
         H           -0.953800938279     1.264098983604    -1.289930350101     1.007825032230
         H            0.916869061721    -0.240343016396    -1.721594350101     1.007825032230
         H           -1.575520938279     0.092266983604     1.430848649899     1.007825032230
         H            3.198722061721     0.095745983604    -0.894123350101     1.007825032230
         H            2.799997061721    -1.633533016396    -0.908319350101     1.007825032230
         H            2.209145061721     2.141490983604     0.105369649899     1.007825032230
         H           -0.611648938279     3.050990983604     0.188993649899     1.007825032230
         H           -3.270084938279    -0.838216016396    -0.036273350101     1.007825032230
         H            2.405908061721    -1.417006016396     1.352141649899     1.007825032230

  Basis Set: AUG-CC-PVTZ
    Blend: AUG-CC-PVTZ
  Basis Set: (AUG-CC-PVTZ AUX)
    Blend: AUG-CC-PVTZ-JKFIT
	 Reference Energy          =    -682.4538544619470031 [Eh]
	 Singles Energy            =      -0.0000000000000000 [Eh]
	 Same-Spin Energy          =      -0.6623917322131324 [Eh]
	 Opposite-Spin Energy      =      -2.0110083337835141 [Eh]
	 Correlation Energy        =      -2.6734000659966464 [Eh]
	 Total Energy              =    -685.1272545279437054 [Eh]

	 ================> DF-SCS-MP2 Energies <==================
	-----------------------------------------------------------
	 SCS Same-Spin Scale       =       0.3333333333333333 [-]
	 SCS Opposite-Spin Scale   =       1.2000000000000000 [-]
	 SCS Same-Spin Energy      =      -0.2207972440710441 [Eh]
	 SCS Opposite-Spin Energy  =      -2.4132100005402166 [Eh]
	 SCS Correlation Energy    =      -2.6340072446112606 [Eh]
	 SCS Total Energy          =    -685.0878617065582148 [Eh]
	-----------------------------------------------------------

  Dipole Moment: [D]
     X:     3.4030      Y:     0.5531      Z:    -0.3021     Total:     3.4608

*** Psi4 exiting successfully. Buy a developer a beer!
