                               Psi4 1.4a3.dev225

  ==> Input File <==

--------------------------------------------------------------------------
#psi4
#
memory 32 gb

molecule  {
0 1
  O        0.3445260    -1.4915130    -0.1284710
  O        1.3620620     2.0495660    -0.4184890
  O       -1.2647860     2.3345150     0.4675600
  O       -2.9390480     0.0425350    -0.1674130
  O        2.8793210    -0.7013140     0.9576500
  O       -1.7069560    -2.3717120     0.0066660
  C        0.6456770     0.9144350     0.0711800
  C       -0.8241260     1.1660500    -0.2009330
  C        1.0869890    -0.3499130    -0.6435990
  C       -1.6195880    -0.0062280     0.3304940
  C        2.5464540    -0.6897970    -0.4256590
  C       -1.0085030    -1.3756800     0.0131050
  H        0.7972300     0.7916990     1.1507440
  H       -0.9994024     1.2539674    -1.3869697
  H        0.8858480    -0.2577880    -1.7199730
  H       -1.6065420     0.0748220     1.4324700
  H        3.1677010     0.0783010    -0.8925020
  H        2.7689760    -1.6509780    -0.9066980
  H        2.1781240     2.1240460     0.1069910
  H       -0.6426700     3.0335460     0.1906150
  H       -3.3011060    -0.8556610    -0.0346520
  H        2.3748870    -1.4344510     1.3537630
units angstrom
no_reorient  #important for SAPT in psi4, default
symmetry c1  #important for SAPT in psi4, default
}

set PROPERTIES_ORIGIN ["COM"]
properties('MP2/aug-cc-pvtz', properties = ['dipole'])
--------------------------------------------------------------------------

    Molecular point group: c1
  Charge       = 0
  Multiplicity = 1
  Basis Set: AUG-CC-PVTZ
    Blend: AUG-CC-PVTZ
  Basis Set: (AUG-CC-PVTZ AUX)
    Blend: AUG-CC-PVTZ-JKFIT

    Orbital Energies [Eh]
    ---------------------

    Doubly Occupied:

       1A    -20.629789     2A    -20.600783     3A    -20.587659
       4A    -20.577121     5A    -20.575504     6A    -20.569420
       7A    -11.407172     8A    -11.326055     9A    -11.322199
      10A    -11.318628    11A    -11.315639    12A    -11.307455
      13A     -1.477730    14A     -1.409609    15A     -1.399288
      16A     -1.384016    17A     -1.375409    18A     -1.363381
      19A     -1.097231    20A     -1.057813    21A     -0.956629
      22A     -0.871969    23A     -0.867829    24A     -0.797468
      25A     -0.762341    26A     -0.741494    27A     -0.720873
      28A     -0.705650    29A     -0.694435    30A     -0.685311
      31A     -0.661972    32A     -0.642385    33A     -0.627950
      34A     -0.617527    35A     -0.612994    36A     -0.589518
      37A     -0.582122    38A     -0.559411    39A     -0.540867
      40A     -0.534409    41A     -0.519421    42A     -0.504364
      43A     -0.484522    44A     -0.477548    45A     -0.469416
      46A     -0.462562    47A     -0.445237

  @DF-RHF Final Energy:  -682.44796543278051

   => Energetics <=

    Nuclear Repulsion Energy =            800.7829239787624829
    One-Electron Energy =               -2527.9855227006710265
    Two-Electron Energy =                1044.7546332891279235
    Total Energy =                       -682.4479654327806202
  Basis Set: (AUG-CC-PVTZ AUX)
    Blend: AUG-CC-PVTZ-RI
    Molecular point group: c1

    Geometry (in Angstrom), charge = 0, multiplicity = 1:

       Center              X                  Y                   Z               Mass
    ------------   -----------------  -----------------  -----------------  -----------------
         O            0.375986530893    -1.474003922505    -0.131277648377    15.994914619570
         O            1.393522530893     2.067075077495    -0.421295648377    15.994914619570
         O           -1.233325469107     2.352024077495     0.464753351623    15.994914619570
         O           -2.907587469107     0.060044077495    -0.170219648377    15.994914619570
         O            2.910781530893    -0.683804922505     0.954843351623    15.994914619570
         O           -1.675495469107    -2.354202922505     0.003859351623    15.994914619570
         C            0.677137530893     0.931944077495     0.068373351623    12.000000000000
         C           -0.792665469107     1.183559077495    -0.203739648377    12.000000000000
         C            1.118449530893    -0.332403922505    -0.646405648377    12.000000000000
         C           -1.588127469107     0.011281077495     0.327687351623    12.000000000000
         C            2.577914530893    -0.672287922505    -0.428465648377    12.000000000000
         C           -0.977042469107    -1.358170922505     0.010298351623    12.000000000000
         H            0.828690530893     0.809208077495     1.147937351623     1.007825032230
         H           -0.967941869107     1.271476477495    -1.389776348377     1.007825032230
         H            0.917308530893    -0.240278922505    -1.722779648377     1.007825032230
         H           -1.575081469107     0.092331077495     1.429663351623     1.007825032230
         H            3.199161530893     0.095810077495    -0.895308648377     1.007825032230
         H            2.800436530893    -1.633468922505    -0.909504648377     1.007825032230
         H            2.209584530893     2.141555077495     0.104184351623     1.007825032230
         H           -0.611209469107     3.051055077495     0.187808351623     1.007825032230
         H           -3.269645469107    -0.838151922505    -0.037458648377     1.007825032230
         H            2.406347530893    -1.416941922505     1.350956351623     1.007825032230

  Basis Set: AUG-CC-PVTZ
    Blend: AUG-CC-PVTZ
  Basis Set: (AUG-CC-PVTZ AUX)
    Blend: AUG-CC-PVTZ-JKFIT
	 Reference Energy          =    -682.4479654327805065 [Eh]
	 Singles Energy            =      -0.0000000000000000 [Eh]
	 Same-Spin Energy          =      -0.6627229674947304 [Eh]
	 Opposite-Spin Energy      =      -2.0118200816557614 [Eh]
	 Correlation Energy        =      -2.6745430491504916 [Eh]
	 Total Energy              =    -685.1225084819310496 [Eh]

	 ================> DF-SCS-MP2 Energies <==================
	-----------------------------------------------------------
	 SCS Same-Spin Scale       =       0.3333333333333333 [-]
	 SCS Opposite-Spin Scale   =       1.2000000000000000 [-]
	 SCS Same-Spin Energy      =      -0.2209076558315768 [Eh]
	 SCS Opposite-Spin Energy  =      -2.4141840979869138 [Eh]
	 SCS Correlation Energy    =      -2.6350917538184904 [Eh]
	 SCS Total Energy          =    -685.0830571865990350 [Eh]
	-----------------------------------------------------------

  Dipole Moment: [D]
     X:     3.3912      Y:     0.5937      Z:    -0.2026     Total:     3.4487

*** Psi4 exiting successfully. Buy a developer a beer!
