                               Psi4 1.4a3.dev225

  ==> Input File <==

--------------------------------------------------------------------------
#psi4
#
memory 32 gb

molecule  {
0 1
  O        0.3445260    -1.4915130    -0.1284710
  O        1.3620620     2.0495660    -0.4184890
  O       -1.2647860     2.3345150     0.4675600
  O       -2.9390480     0.0425350    -0.1674130
  O        2.8793210    -0.7013140     0.9576500
  O       -1.7069560    -2.3717120     0.0066660
  C        0.6456770     0.9144350     0.0711800
  C       -0.8241260     1.1660500    -0.2009330
  C        1.0869890    -0.3499130    -0.6435990
  C       -1.6195880    -0.0062280     0.3304940
  C        2.5511329    -0.6899589    -0.4062147
  C       -1.0085030    -1.3756800     0.0131050
  H        0.7972300     0.7916990     1.1507440
  H       -0.9848220     1.2466540    -1.2883090
  H        0.8858480    -0.2577880    -1.7199730
  H       -1.6065420     0.0748220     1.4324700
  H        3.1677010     0.0783010    -0.8925020
  H        2.7689760    -1.6509780    -0.9066980
  H        2.1781240     2.1240460     0.1069910
  H       -0.6426700     3.0335460     0.1906150
  H       -3.3011060    -0.8556610    -0.0346520
  H        2.3748870    -1.4344510     1.3537630
units angstrom
no_reorient  #important for SAPT in psi4, default
symmetry c1  #important for SAPT in psi4, default
}

set PROPERTIES_ORIGIN ["COM"]
properties('MP2/aug-cc-pvtz', properties = ['dipole'])
--------------------------------------------------------------------------

    Molecular point group: c1
  Charge       = 0
  Multiplicity = 1
  Basis Set: AUG-CC-PVTZ
    Blend: AUG-CC-PVTZ
  Basis Set: (AUG-CC-PVTZ AUX)
    Blend: AUG-CC-PVTZ-JKFIT

    Orbital Energies [Eh]
    ---------------------

    Doubly Occupied:

       1A    -20.629413     2A    -20.600446     3A    -20.589776
       4A    -20.575415     5A    -20.574693     6A    -20.569067
       7A    -11.406692     8A    -11.325702     9A    -11.321002
      10A    -11.314245    11A    -11.307873    12A    -11.307095
      13A     -1.477458    14A     -1.409613    15A     -1.401411
      16A     -1.388876    17A     -1.374976    18A     -1.362833
      19A     -1.097576    20A     -1.056840    21A     -0.955289
      22A     -0.876123    23A     -0.868369    24A     -0.801248
      25A     -0.761907    26A     -0.742027    27A     -0.723361
      28A     -0.708574    29A     -0.694851    30A     -0.686655
      31A     -0.662152    32A     -0.645075    33A     -0.629270
      34A     -0.618486    35A     -0.615780    36A     -0.589939
      37A     -0.583515    38A     -0.559724    39A     -0.540618
      40A     -0.533998    41A     -0.518573    42A     -0.504199
      43A     -0.484018    44A     -0.477085    45A     -0.472441
      46A     -0.464394    47A     -0.444016

  @DF-RHF Final Energy:  -682.45475588041086

   => Energetics <=

    Nuclear Repulsion Energy =            801.4883880937617278
    One-Electron Energy =               -2529.3809096601448800
    Two-Electron Energy =                1045.4377656859721810
    Total Energy =                       -682.4547558804108576
  Basis Set: (AUG-CC-PVTZ AUX)
    Blend: AUG-CC-PVTZ-RI
    Molecular point group: c1

    Geometry (in Angstrom), charge = 0, multiplicity = 1:

       Center              X                  Y                   Z               Mass
    ------------   -----------------  -----------------  -----------------  -----------------
         O            0.375588652813    -1.473951613906    -0.133146609627    15.994914619570
         O            1.393124652813     2.067127386094    -0.423164609627    15.994914619570
         O           -1.233723347187     2.352076386094     0.462884390373    15.994914619570
         O           -2.907985347187     0.060096386094    -0.172088609627    15.994914619570
         O            2.910383652813    -0.683752613906     0.952974390373    15.994914619570
         O           -1.675893347187    -2.354150613906     0.001990390373    15.994914619570
         C            0.676739652813     0.931996386094     0.066504390373    12.000000000000
         C           -0.793063347187     1.183611386094    -0.205608609627    12.000000000000
         C            1.118051652813    -0.332351613906    -0.648274609627    12.000000000000
         C           -1.588525347187     0.011333386094     0.325818390373    12.000000000000
         C            2.582195552813    -0.672397513906    -0.410890309627    12.000000000000
         C           -0.977440347187    -1.358118613906     0.008429390373    12.000000000000
         H            0.828292652813     0.809260386094     1.146068390373     1.007825032230
         H           -0.953759347187     1.264215386094    -1.292984609627     1.007825032230
         H            0.916910652813    -0.240226613906    -1.724648609627     1.007825032230
         H           -1.575479347187     0.092383386094     1.427794390373     1.007825032230
         H            3.198763652813     0.095862386094    -0.897177609627     1.007825032230
         H            2.800038652813    -1.633416613906    -0.911373609627     1.007825032230
         H            2.209186652813     2.141607386094     0.102315390373     1.007825032230
         H           -0.611607347187     3.051107386094     0.185939390373     1.007825032230
         H           -3.270043347187    -0.838099613906    -0.039327609627     1.007825032230
         H            2.405949652813    -1.416889613906     1.349087390373     1.007825032230

  Basis Set: AUG-CC-PVTZ
    Blend: AUG-CC-PVTZ
  Basis Set: (AUG-CC-PVTZ AUX)
    Blend: AUG-CC-PVTZ-JKFIT
	 Reference Energy          =    -682.4547558804108576 [Eh]
	 Singles Energy            =      -0.0000000000000000 [Eh]
	 Same-Spin Energy          =      -0.6624517742495758 [Eh]
	 Opposite-Spin Energy      =      -2.0105535234254477 [Eh]
	 Correlation Energy        =      -2.6730052976750236 [Eh]
	 Total Energy              =    -685.1277611780858479 [Eh]

	 ================> DF-SCS-MP2 Energies <==================
	-----------------------------------------------------------
	 SCS Same-Spin Scale       =       0.3333333333333333 [-]
	 SCS Opposite-Spin Scale   =       1.2000000000000000 [-]
	 SCS Same-Spin Energy      =      -0.2208172580831919 [Eh]
	 SCS Opposite-Spin Energy  =      -2.4126642281105370 [Eh]
	 SCS Correlation Energy    =      -2.6334814861937290 [Eh]
	 SCS Total Energy          =    -685.0882373666046306 [Eh]
	-----------------------------------------------------------

  Dipole Moment: [D]
     X:     3.4227      Y:     0.5654      Z:    -0.2010     Total:     3.4749

*** Psi4 exiting successfully. Buy a developer a beer!
