                               Psi4 1.4a3.dev225

  ==> Input File <==

--------------------------------------------------------------------------
#psi4
#
memory 32 gb

molecule  {
0 1
  O        0.3445260    -1.4915130    -0.1284710
  O        1.3620620     2.0495660    -0.4184890
  O       -1.2647860     2.3345150     0.4675600
  O       -2.9390480     0.0425350    -0.1674130
  O        2.8793210    -0.7013140     0.9576500
  O       -1.7069560    -2.3717120     0.0066660
  C        0.6456770     0.9144350     0.0711800
  C       -0.8241260     1.1660500    -0.2009330
  C        1.0869890    -0.3499130    -0.6435990
  C       -1.6195880    -0.0062280     0.3304940
  C        2.5464540    -0.6897970    -0.4256590
  C       -1.0085030    -1.3756800     0.0131050
  H        0.7972300     0.7916990     1.1507440
  H       -0.9775318     1.2429973    -1.2389787
  H        0.8858480    -0.2577880    -1.7199730
  H       -1.6065420     0.0748220     1.4324700
  H        3.1677010     0.0783010    -0.8925020
  H        2.7689760    -1.6509780    -0.9066980
  H        2.1781240     2.1240460     0.1069910
  H       -0.6426700     3.0335460     0.1906150
  H       -3.3011060    -0.8556610    -0.0346520
  H        2.3748870    -1.4344510     1.3537630
units angstrom
no_reorient  #important for SAPT in psi4, default
symmetry c1  #important for SAPT in psi4, default
}

set PROPERTIES_ORIGIN ["COM"]
properties('MP2/aug-cc-pvtz', properties = ['dipole'])
--------------------------------------------------------------------------

    Molecular point group: c1
  Charge       = 0
  Multiplicity = 1
  Basis Set: AUG-CC-PVTZ
    Blend: AUG-CC-PVTZ
  Basis Set: (AUG-CC-PVTZ AUX)
    Blend: AUG-CC-PVTZ-JKFIT

    Orbital Energies [Eh]
    ---------------------

    Doubly Occupied:

       1A    -20.629812     2A    -20.600622     3A    -20.587637
       4A    -20.575603     5A    -20.573951     6A    -20.569244
       7A    -11.406905     8A    -11.326394     9A    -11.320757
      10A    -11.314170    11A    -11.307575    12A    -11.301412
      13A     -1.477723    14A     -1.409315    15A     -1.399174
      16A     -1.383967    17A     -1.374703    18A     -1.362653
      19A     -1.099082    20A     -1.058809    21A     -0.956478
      22A     -0.879986    23A     -0.868488    24A     -0.803750
      25A     -0.762304    26A     -0.742272    27A     -0.721264
      28A     -0.709476    29A     -0.695112    30A     -0.686627
      31A     -0.662633    32A     -0.644787    33A     -0.629185
      34A     -0.616858    35A     -0.615715    36A     -0.590522
      37A     -0.583376    38A     -0.560307    39A     -0.541369
      40A     -0.534153    41A     -0.519843    42A     -0.504349
      43A     -0.484048    44A     -0.478821    45A     -0.474051
      46A     -0.465228    47A     -0.445098

  @DF-RHF Final Energy:  -682.45425669260885

   => Energetics <=

    Nuclear Repulsion Energy =            801.6559753083038231
    One-Electron Energy =               -2529.7092503266599124
    Two-Electron Energy =                1045.5990183257472381
    Total Energy =                       -682.4542566926088512
  Basis Set: (AUG-CC-PVTZ AUX)
    Blend: AUG-CC-PVTZ-RI
    Molecular point group: c1

    Geometry (in Angstrom), charge = 0, multiplicity = 1:

       Center              X                  Y                   Z               Mass
    ------------   -----------------  -----------------  -----------------  -----------------
         O            0.375862734105    -1.473941827128    -0.132115339639    15.994914619570
         O            1.393398734105     2.067137172872    -0.422133339639    15.994914619570
         O           -1.233449265895     2.352086172872     0.463915660361    15.994914619570
         O           -2.907711265895     0.060106172872    -0.171057339639    15.994914619570
         O            2.910657734105    -0.683742827128     0.954005660361    15.994914619570
         O           -1.675619265895    -2.354140827128     0.003021660361    15.994914619570
         C            0.677013734105     0.932006172872     0.067535660361    12.000000000000
         C           -0.792789265895     1.183621172872    -0.204577339639    12.000000000000
         C            1.118325734105    -0.332341827128    -0.647243339639    12.000000000000
         C           -1.588251265895     0.011343172872     0.326849660361    12.000000000000
         C            2.577790734105    -0.672225827128    -0.429303339639    12.000000000000
         C           -0.977166265895    -1.358108827128     0.009460660361    12.000000000000
         H            0.828566734105     0.809270172872     1.147099660361     1.007825032230
         H           -0.946195065895     1.260568472872    -1.242623039639     1.007825032230
         H            0.917184734105    -0.240216827128    -1.723617339639     1.007825032230
         H           -1.575205265895     0.092393172872     1.428825660361     1.007825032230
         H            3.199037734105     0.095872172872    -0.896146339639     1.007825032230
         H            2.800312734105    -1.633406827128    -0.910342339639     1.007825032230
         H            2.209460734105     2.141617172872     0.103346660361     1.007825032230
         H           -0.611333265895     3.051117172872     0.186970660361     1.007825032230
         H           -3.269769265895    -0.838089827128    -0.038296339639     1.007825032230
         H            2.406223734105    -1.416879827128     1.350118660361     1.007825032230

  Basis Set: AUG-CC-PVTZ
    Blend: AUG-CC-PVTZ
  Basis Set: (AUG-CC-PVTZ AUX)
    Blend: AUG-CC-PVTZ-JKFIT
	 Reference Energy          =    -682.4542566926088512 [Eh]
	 Singles Energy            =      -0.0000000000000000 [Eh]
	 Same-Spin Energy          =      -0.6623337234399675 [Eh]
	 Opposite-Spin Energy      =      -2.0104053278484075 [Eh]
	 Correlation Energy        =      -2.6727390512883753 [Eh]
	 Total Energy              =    -685.1269957438972824 [Eh]

	 ================> DF-SCS-MP2 Energies <==================
	-----------------------------------------------------------
	 SCS Same-Spin Scale       =       0.3333333333333333 [-]
	 SCS Opposite-Spin Scale   =       1.2000000000000000 [-]
	 SCS Same-Spin Energy      =      -0.2207779078133225 [Eh]
	 SCS Opposite-Spin Energy  =      -2.4124863934180891 [Eh]
	 SCS Correlation Energy    =      -2.6332643012314114 [Eh]
	 SCS Total Energy          =    -685.0875209938402577 [Eh]
	-----------------------------------------------------------

  Dipole Moment: [D]
     X:     3.4002      Y:     0.5620      Z:    -0.2896     Total:     3.4585

*** Psi4 exiting successfully. Buy a developer a beer!
