                               Psi4 1.4a3.dev225

  ==> Input File <==

--------------------------------------------------------------------------
#psi4
#
memory 32 gb

molecule  {
0 1
  O        0.3445260    -1.4915130    -0.1284710
  O        1.3620620     2.0495660    -0.4184890
  O       -1.2647860     2.3345150     0.4675600
  O       -2.9390480     0.0425350    -0.1674130
  O        2.8793210    -0.7013140     0.9576500
  O       -1.7069560    -2.3717120     0.0066660
  C        0.6456770     0.9144350     0.0711800
  C       -0.8241260     1.1660500    -0.2009330
  C        1.0869890    -0.3499130    -0.6435990
  C       -1.6195880    -0.0062280     0.3304940
  C        2.5464540    -0.6897970    -0.4256590
  C       -1.0085030    -1.3756800     0.0131050
  H        0.7972300     0.7916990     1.1507440
  H       -0.9848220     1.2466540    -1.2883090
  H        0.8675437    -0.2494044    -1.8179254
  H       -1.6065420     0.0748220     1.4324700
  H        3.1677010     0.0783010    -0.8925020
  H        2.7689760    -1.6509780    -0.9066980
  H        2.1781240     2.1240460     0.1069910
  H       -0.6426700     3.0335460     0.1906150
  H       -3.3011060    -0.8556610    -0.0346520
  H        2.3748870    -1.4344510     1.3537630
units angstrom
no_reorient  #important for SAPT in psi4, default
symmetry c1  #important for SAPT in psi4, default
}

set PROPERTIES_ORIGIN ["COM"]
properties('MP2/aug-cc-pvtz', properties = ['dipole'])
--------------------------------------------------------------------------

    Molecular point group: c1
  Charge       = 0
  Multiplicity = 1
  Basis Set: AUG-CC-PVTZ
    Blend: AUG-CC-PVTZ
  Basis Set: (AUG-CC-PVTZ AUX)
    Blend: AUG-CC-PVTZ-JKFIT

    Orbital Energies [Eh]
    ---------------------

    Doubly Occupied:

       1A    -20.631146     2A    -20.600715     3A    -20.588432
       4A    -20.575684     5A    -20.574859     6A    -20.569901
       7A    -11.407462     8A    -11.337350     9A    -11.321345
      10A    -11.315626    11A    -11.308258    12A    -11.307263
      13A     -1.478374    14A     -1.409425    15A     -1.399575
      16A     -1.384528    17A     -1.375160    18A     -1.363026
      19A     -1.096790    20A     -1.056381    21A     -0.956781
      22A     -0.876010    23A     -0.867323    24A     -0.795019
      25A     -0.761939    26A     -0.741361    27A     -0.720677
      28A     -0.705455    29A     -0.694003    30A     -0.685202
      31A     -0.661696    32A     -0.644017    33A     -0.629333
      34A     -0.617232    35A     -0.614847    36A     -0.590191
      37A     -0.576722    38A     -0.559508    39A     -0.541425
      40A     -0.534013    41A     -0.519042    42A     -0.504736
      43A     -0.483328    44A     -0.476895    45A     -0.472057
      46A     -0.464522    47A     -0.445607

  @DF-RHF Final Energy:  -682.44789669993236

   => Energetics <=

    Nuclear Repulsion Energy =            800.7781649526222054
    One-Electron Energy =               -2527.9716414935683133
    Two-Electron Energy =                1044.7455798410135230
    Total Energy =                       -682.4478966999324712
  Basis Set: (AUG-CC-PVTZ AUX)
    Blend: AUG-CC-PVTZ-RI
    Molecular point group: c1

    Geometry (in Angstrom), charge = 0, multiplicity = 1:

       Center              X                  Y                   Z               Mass
    ------------   -----------------  -----------------  -----------------  -----------------
         O            0.376007609732    -1.474009980286    -0.131281657653    15.994914619570
         O            1.393543609732     2.067069019714    -0.421299657653    15.994914619570
         O           -1.233304390268     2.352018019714     0.464749342347    15.994914619570
         O           -2.907566390268     0.060038019714    -0.170223657653    15.994914619570
         O            2.910802609732    -0.683810980286     0.954839342347    15.994914619570
         O           -1.675474390268    -2.354208980286     0.003855342347    15.994914619570
         C            0.677158609732     0.931938019714     0.068369342347    12.000000000000
         C           -0.792644390268     1.183553019714    -0.203743657653    12.000000000000
         C            1.118470609732    -0.332409980286    -0.646409657653    12.000000000000
         C           -1.588106390268     0.011275019714     0.327683342347    12.000000000000
         C            2.577935609732    -0.672293980286    -0.428469657653    12.000000000000
         C           -0.977021390268    -1.358176980286     0.010294342347    12.000000000000
         H            0.828711609732     0.809202019714     1.147933342347     1.007825032230
         H           -0.953340390268     1.264157019714    -1.291119657653     1.007825032230
         H            0.899025309732    -0.231901380286    -1.820736057653     1.007825032230
         H           -1.575060390268     0.092325019714     1.429659342347     1.007825032230
         H            3.199182609732     0.095804019714    -0.895312657653     1.007825032230
         H            2.800457609732    -1.633474980286    -0.909508657653     1.007825032230
         H            2.209605609732     2.141549019714     0.104180342347     1.007825032230
         H           -0.611188390268     3.051049019714     0.187804342347     1.007825032230
         H           -3.269624390268    -0.838157980286    -0.037462657653     1.007825032230
         H            2.406368609732    -1.416947980286     1.350952342347     1.007825032230

  Basis Set: AUG-CC-PVTZ
    Blend: AUG-CC-PVTZ
  Basis Set: (AUG-CC-PVTZ AUX)
    Blend: AUG-CC-PVTZ-JKFIT
	 Reference Energy          =    -682.4478966999323575 [Eh]
	 Singles Energy            =      -0.0000000000000000 [Eh]
	 Same-Spin Energy          =      -0.6627172179495789 [Eh]
	 Opposite-Spin Energy      =      -2.0118385322443904 [Eh]
	 Correlation Energy        =      -2.6745557501939694 [Eh]
	 Total Energy              =    -685.1224524501262749 [Eh]

	 ================> DF-SCS-MP2 Energies <==================
	-----------------------------------------------------------
	 SCS Same-Spin Scale       =       0.3333333333333333 [-]
	 SCS Opposite-Spin Scale   =       1.2000000000000000 [-]
	 SCS Same-Spin Energy      =      -0.2209057393165263 [Eh]
	 SCS Opposite-Spin Energy  =      -2.4142062386932683 [Eh]
	 SCS Correlation Energy    =      -2.6351119780097947 [Eh]
	 SCS Total Energy          =    -685.0830086779421890 [Eh]
	-----------------------------------------------------------

  Dipole Moment: [D]
     X:     3.3842      Y:     0.5553      Z:    -0.2097     Total:     3.4358

*** Psi4 exiting successfully. Buy a developer a beer!
