                               Psi4 1.4a3.dev225

  ==> Input File <==

--------------------------------------------------------------------------
#psi4
#
memory 32 gb

molecule  {
0 1
  O        0.3445260    -1.4915130    -0.1284710
  O        1.3620620     2.0495660    -0.4184890
  O       -1.2647860     2.3345150     0.4675600
  O       -2.9390480     0.0425350    -0.1674130
  O        2.8793210    -0.7013140     0.9576500
  O       -1.7069560    -2.3717120     0.0066660
  C        0.6456770     0.9144350     0.0711800
  C       -0.8241260     1.1660500    -0.2009330
  C        1.0869890    -0.3499130    -0.6435990
  C       -1.6195880    -0.0062280     0.3304940
  C        2.5464540    -0.6897970    -0.4256590
  C       -1.0085030    -1.3756800     0.0131050
  H        0.7972300     0.7916990     1.1507440
  H       -0.9848220     1.2466540    -1.2883090
  H        0.8858480    -0.2577880    -1.7199730
  H       -1.6089032     0.0601527     1.2330227
  H        3.1677010     0.0783010    -0.8925020
  H        2.7689760    -1.6509780    -0.9066980
  H        2.1781240     2.1240460     0.1069910
  H       -0.6426700     3.0335460     0.1906150
  H       -3.3011060    -0.8556610    -0.0346520
  H        2.3748870    -1.4344510     1.3537630
units angstrom
no_reorient  #important for SAPT in psi4, default
symmetry c1  #important for SAPT in psi4, default
}

set PROPERTIES_ORIGIN ["COM"]
properties('MP2/aug-cc-pvtz', properties = ['dipole'])
--------------------------------------------------------------------------

    Molecular point group: c1
  Charge       = 0
  Multiplicity = 1
  Basis Set: AUG-CC-PVTZ
    Blend: AUG-CC-PVTZ
  Basis Set: (AUG-CC-PVTZ AUX)
    Blend: AUG-CC-PVTZ-JKFIT

    Orbital Energies [Eh]
    ---------------------

    Doubly Occupied:

       1A    -20.629992     2A    -20.600890     3A    -20.587900
       4A    -20.575082     5A    -20.572436     6A    -20.570103
       7A    -11.406438     8A    -11.326489     9A    -11.315015
      10A    -11.307718    11A    -11.306213    12A    -11.297710
      13A     -1.478153    14A     -1.409613    15A     -1.399339
      16A     -1.384003    17A     -1.375246    18A     -1.362300
      19A     -1.101575    20A     -1.065503    21A     -0.966543
      22A     -0.880002    23A     -0.869514    24A     -0.811697
      25A     -0.762237    26A     -0.749526    27A     -0.721813
      28A     -0.718203    29A     -0.694993    30A     -0.687372
      31A     -0.668506    32A     -0.643819    33A     -0.629266
      34A     -0.618984    35A     -0.616316    36A     -0.590440
      37A     -0.585908    38A     -0.560153    39A     -0.541664
      40A     -0.534102    41A     -0.519834    42A     -0.504805
      43A     -0.487287    44A     -0.479390    45A     -0.473847
      46A     -0.467097    47A     -0.446343

  @DF-RHF Final Energy:  -682.42451348560451

   => Energetics <=

    Nuclear Repulsion Energy =            802.6525046087114106
    One-Electron Energy =               -2531.5512730187056150
    Two-Electron Energy =                1046.4742549243899248
    Total Energy =                       -682.4245134856043933
  Basis Set: (AUG-CC-PVTZ AUX)
    Blend: AUG-CC-PVTZ-RI
    Molecular point group: c1

    Geometry (in Angstrom), charge = 0, multiplicity = 1:

       Center              X                  Y                   Z               Mass
    ------------   -----------------  -----------------  -----------------  -----------------
         O            0.375917365085    -1.473879491183    -0.130707153859    15.994914619570
         O            1.393453365085     2.067199508817    -0.420725153859    15.994914619570
         O           -1.233394634915     2.352148508817     0.465323846141    15.994914619570
         O           -2.907656634915     0.060168508817    -0.169649153859    15.994914619570
         O            2.910712365085    -0.683680491183     0.955413846141    15.994914619570
         O           -1.675564634915    -2.354078491183     0.004429846141    15.994914619570
         C            0.677068365085     0.932068508817     0.068943846141    12.000000000000
         C           -0.792734634915     1.183683508817    -0.203169153859    12.000000000000
         C            1.118380365085    -0.332279491183    -0.645835153859    12.000000000000
         C           -1.588196634915     0.011405508817     0.328257846141    12.000000000000
         C            2.577845365085    -0.672163491183    -0.427895153859    12.000000000000
         C           -0.977111634915    -1.358046491183     0.010868846141    12.000000000000
         H            0.828621365085     0.809332508817     1.148507846141     1.007825032230
         H           -0.953430634915     1.264287508817    -1.290545153859     1.007825032230
         H            0.917239365085    -0.240154491183    -1.722209153859     1.007825032230
         H           -1.577511834915     0.077786208817     1.230786546141     1.007825032230
         H            3.199092365085     0.095934508817    -0.894738153859     1.007825032230
         H            2.800367365085    -1.633344491183    -0.908934153859     1.007825032230
         H            2.209515365085     2.141679508817     0.104754846141     1.007825032230
         H           -0.611278634915     3.051179508817     0.188378846141     1.007825032230
         H           -3.269714634915    -0.838027491183    -0.036888153859     1.007825032230
         H            2.406278365085    -1.416817491183     1.351526846141     1.007825032230

  Basis Set: AUG-CC-PVTZ
    Blend: AUG-CC-PVTZ
  Basis Set: (AUG-CC-PVTZ AUX)
    Blend: AUG-CC-PVTZ-JKFIT
	 Reference Energy          =    -682.4245134856045070 [Eh]
	 Singles Energy            =      -0.0000000000000000 [Eh]
	 Same-Spin Energy          =      -0.6621010246611402 [Eh]
	 Opposite-Spin Energy      =      -2.0098443375651716 [Eh]
	 Correlation Energy        =      -2.6719453622263116 [Eh]
	 Total Energy              =    -685.0964588478308315 [Eh]

	 ================> DF-SCS-MP2 Energies <==================
	-----------------------------------------------------------
	 SCS Same-Spin Scale       =       0.3333333333333333 [-]
	 SCS Opposite-Spin Scale   =       1.2000000000000000 [-]
	 SCS Same-Spin Energy      =      -0.2207003415537134 [Eh]
	 SCS Opposite-Spin Energy  =      -2.4118132050782060 [Eh]
	 SCS Correlation Energy    =      -2.6325135466319192 [Eh]
	 SCS Total Energy          =    -685.0570270322364195 [Eh]
	-----------------------------------------------------------

  Dipole Moment: [D]
     X:     3.4698      Y:     0.5456      Z:    -0.2366     Total:     3.5204

*** Psi4 exiting successfully. Buy a developer a beer!
