                               Psi4 1.4a3.dev225

  ==> Input File <==

--------------------------------------------------------------------------
#psi4
#
memory 32 gb

molecule  {
0 1
  O        0.3467628    -1.4681804    -0.1241785
  O        1.3620620     2.0495660    -0.4184890
  O       -1.2647860     2.3345150     0.4675600
  O       -2.9390480     0.0425350    -0.1674130
  O        2.8793210    -0.7013140     0.9576500
  O       -1.7069560    -2.3717120     0.0066660
  C        0.6456770     0.9144350     0.0711800
  C       -0.8241260     1.1660500    -0.2009330
  C        1.0869890    -0.3499130    -0.6435990
  C       -1.6195880    -0.0062280     0.3304940
  C        2.5464540    -0.6897970    -0.4256590
  C       -1.0085030    -1.3756800     0.0131050
  H        0.7972300     0.7916990     1.1507440
  H       -0.9848220     1.2466540    -1.2883090
  H        0.8858480    -0.2577880    -1.7199730
  H       -1.6065420     0.0748220     1.4324700
  H        3.1677010     0.0783010    -0.8925020
  H        2.7689760    -1.6509780    -0.9066980
  H        2.1781240     2.1240460     0.1069910
  H       -0.6426700     3.0335460     0.1906150
  H       -3.3011060    -0.8556610    -0.0346520
  H        2.3748870    -1.4344510     1.3537630
units angstrom
no_reorient  #important for SAPT in psi4, default
symmetry c1  #important for SAPT in psi4, default
}

set PROPERTIES_ORIGIN ["COM"]
properties('MP2/aug-cc-pvtz', properties = ['dipole'])
--------------------------------------------------------------------------

    Molecular point group: c1
  Charge       = 0
  Multiplicity = 1
  Basis Set: AUG-CC-PVTZ
    Blend: AUG-CC-PVTZ
  Basis Set: (AUG-CC-PVTZ AUX)
    Blend: AUG-CC-PVTZ-JKFIT

    Orbital Energies [Eh]
    ---------------------

    Doubly Occupied:

       1A    -20.629699     2A    -20.599544     3A    -20.587440
       4A    -20.575253     5A    -20.574550     6A    -20.571296
       7A    -11.408587     8A    -11.324985     9A    -11.320467
      10A    -11.313377    11A    -11.307080    12A    -11.306911
      13A     -1.480683    14A     -1.408697    15A     -1.400669
      16A     -1.383781    17A     -1.375932    18A     -1.363184
      19A     -1.097186    20A     -1.059632    21A     -0.956195
      22A     -0.875895    23A     -0.871397    24A     -0.801983
      25A     -0.762111    26A     -0.742059    27A     -0.721502
      28A     -0.708315    29A     -0.695318    30A     -0.687953
      31A     -0.662556    32A     -0.644432    33A     -0.628284
      34A     -0.617026    35A     -0.614538    36A     -0.589707
      37A     -0.583478    38A     -0.559543    39A     -0.540847
      40A     -0.534176    41A     -0.519651    42A     -0.505432
      43A     -0.484105    44A     -0.478014    45A     -0.472369
      46A     -0.464633    47A     -0.444043

  @DF-RHF Final Energy:  -682.45527061304756

   => Energetics <=

    Nuclear Repulsion Energy =            801.9674545835914614
    One-Electron Energy =               -2530.3364258672618234
    Two-Electron Energy =                1045.9137006706228021
    Total Energy =                       -682.4552706130475599
  Basis Set: (AUG-CC-PVTZ AUX)
    Blend: AUG-CC-PVTZ-RI
    Molecular point group: c1

    Geometry (in Angstrom), charge = 0, multiplicity = 1:

       Center              X                  Y                   Z               Mass
    ------------   -----------------  -----------------  -----------------  -----------------
         O            0.377939856822    -1.452726009193    -0.127929226050    15.994914619570
         O            1.393239056822     2.065020390807    -0.422239726050    15.994914619570
         O           -1.233608943178     2.349969390807     0.463809273950    15.994914619570
         O           -2.907870943178     0.057989390807    -0.171163726050    15.994914619570
         O            2.910498056822    -0.685859609193     0.953899273950    15.994914619570
         O           -1.675778943178    -2.356257609193     0.002915273950    15.994914619570
         C            0.676854056822     0.929889390807     0.067429273950    12.000000000000
         C           -0.792948943178     1.181504390807    -0.204683726050    12.000000000000
         C            1.118166056822    -0.334458609193    -0.647349726050    12.000000000000
         C           -1.588410943178     0.009226390807     0.326743273950    12.000000000000
         C            2.577631056822    -0.674342609193    -0.429409726050    12.000000000000
         C           -0.977325943178    -1.360225609193     0.009354273950    12.000000000000
         H            0.828407056822     0.807153390807     1.146993273950     1.007825032230
         H           -0.953644943178     1.262108390807    -1.292059726050     1.007825032230
         H            0.917025056822    -0.242333609193    -1.723723726050     1.007825032230
         H           -1.575364943178     0.090276390807     1.428719273950     1.007825032230
         H            3.198878056822     0.093755390807    -0.896252726050     1.007825032230
         H            2.800153056822    -1.635523609193    -0.910448726050     1.007825032230
         H            2.209301056822     2.139500390807     0.103240273950     1.007825032230
         H           -0.611492943178     3.049000390807     0.186864273950     1.007825032230
         H           -3.269928943178    -0.840206609193    -0.038402726050     1.007825032230
         H            2.406064056822    -1.418996609193     1.350012273950     1.007825032230

  Basis Set: AUG-CC-PVTZ
    Blend: AUG-CC-PVTZ
  Basis Set: (AUG-CC-PVTZ AUX)
    Blend: AUG-CC-PVTZ-JKFIT
	 Reference Energy          =    -682.4552706130475599 [Eh]
	 Singles Energy            =      -0.0000000000000000 [Eh]
	 Same-Spin Energy          =      -0.6623892929292583 [Eh]
	 Opposite-Spin Energy      =      -2.0103931682760949 [Eh]
	 Correlation Energy        =      -2.6727824612053532 [Eh]
	 Total Energy              =    -685.1280530742528754 [Eh]

	 ================> DF-SCS-MP2 Energies <==================
	-----------------------------------------------------------
	 SCS Same-Spin Scale       =       0.3333333333333333 [-]
	 SCS Opposite-Spin Scale   =       1.2000000000000000 [-]
	 SCS Same-Spin Energy      =      -0.2207964309764194 [Eh]
	 SCS Opposite-Spin Energy  =      -2.4124718019313138 [Eh]
	 SCS Correlation Energy    =      -2.6332682329077333 [Eh]
	 SCS Total Energy          =    -685.0885388459553269 [Eh]
	-----------------------------------------------------------

  Dipole Moment: [D]
     X:     3.3685      Y:     0.4980      Z:    -0.2659     Total:     3.4154

*** Psi4 exiting successfully. Buy a developer a beer!
