                               Psi4 1.4a3.dev225

  ==> Input File <==

--------------------------------------------------------------------------
#psi4
#
memory 32 gb

molecule  {
0 1
  O        0.3445260    -1.4915130    -0.1284710
  O        1.3620620     2.0495660    -0.4184890
  O       -1.2781760     2.3534103     0.4238778
  O       -2.9390480     0.0425350    -0.1674130
  O        2.8793210    -0.7013140     0.9576500
  O       -1.7069560    -2.3717120     0.0066660
  C        0.6456770     0.9144350     0.0711800
  C       -0.8241260     1.1660500    -0.2009330
  C        1.0869890    -0.3499130    -0.6435990
  C       -1.6195880    -0.0062280     0.3304940
  C        2.5464540    -0.6897970    -0.4256590
  C       -1.0085030    -1.3756800     0.0131050
  H        0.7972300     0.7916990     1.1507440
  H       -0.9848220     1.2466540    -1.2883090
  H        0.8858480    -0.2577880    -1.7199730
  H       -1.6065420     0.0748220     1.4324700
  H        3.1677010     0.0783010    -0.8925020
  H        2.7689760    -1.6509780    -0.9066980
  H        2.1781240     2.1240460     0.1069910
  H       -0.6426700     3.0335460     0.1906150
  H       -3.3011060    -0.8556610    -0.0346520
  H        2.3748870    -1.4344510     1.3537630
units angstrom
no_reorient  #important for SAPT in psi4, default
symmetry c1  #important for SAPT in psi4, default
}

set PROPERTIES_ORIGIN ["COM"]
properties('MP2/aug-cc-pvtz', properties = ['dipole'])
--------------------------------------------------------------------------

    Molecular point group: c1
  Charge       = 0
  Multiplicity = 1
  Basis Set: AUG-CC-PVTZ
    Blend: AUG-CC-PVTZ
  Basis Set: (AUG-CC-PVTZ AUX)
    Blend: AUG-CC-PVTZ-JKFIT

    Orbital Energies [Eh]
    ---------------------

    Doubly Occupied:

       1A    -20.630185     2A    -20.600963     3A    -20.587956
       4A    -20.575682     5A    -20.572611     6A    -20.569741
       7A    -11.407579     8A    -11.326833     9A    -11.321809
      10A    -11.315531    11A    -11.307889    12A    -11.307345
      13A     -1.478118    14A     -1.409907    15A     -1.399589
      16A     -1.384282    17A     -1.375924    18A     -1.363910
      19A     -1.099142    20A     -1.059032    21A     -0.956811
      22A     -0.877742    23A     -0.868828    24A     -0.801548
      25A     -0.762696    26A     -0.742261    27A     -0.721512
      28A     -0.707589    29A     -0.697422    30A     -0.686550
      31A     -0.663919    32A     -0.644184    33A     -0.629179
      34A     -0.617645    35A     -0.615363    36A     -0.590160
      37A     -0.583072    38A     -0.560868    39A     -0.540663
      40A     -0.535055    41A     -0.519469    42A     -0.504706
      43A     -0.485249    44A     -0.478206    45A     -0.470750
      46A     -0.464940    47A     -0.446281

  @DF-RHF Final Energy:  -682.45565652806442

   => Energetics <=

    Nuclear Repulsion Energy =            801.1280485922870866
    One-Electron Energy =               -2528.6340237409744987
    Two-Electron Energy =                1045.0503186206228747
    Total Energy =                       -682.4556565280645373
  Basis Set: (AUG-CC-PVTZ AUX)
    Blend: AUG-CC-PVTZ-RI
    Molecular point group: c1

    Geometry (in Angstrom), charge = 0, multiplicity = 1:

       Center              X                  Y                   Z               Mass
    ------------   -----------------  -----------------  -----------------  -----------------
         O            0.377106890055    -1.475659984446    -0.127911919933    15.994914619570
         O            1.394642890055     2.065419015554    -0.417929919933    15.994914619570
         O           -1.245595109945     2.369263315554     0.424436880067    15.994914619570
         O           -2.906467109945     0.058388015554    -0.166853919933    15.994914619570
         O            2.911901890055    -0.685460984446     0.958209080067    15.994914619570
         O           -1.674375109945    -2.355858984446     0.007225080067    15.994914619570
         C            0.678257890055     0.930288015554     0.071739080067    12.000000000000
         C           -0.791545109945     1.181903015554    -0.200373919933    12.000000000000
         C            1.119569890055    -0.334059984446    -0.643039919933    12.000000000000
         C           -1.587007109945     0.009625015554     0.331053080067    12.000000000000
         C            2.579034890055    -0.673943984446    -0.425099919933    12.000000000000
         C           -0.975922109945    -1.359826984446     0.013664080067    12.000000000000
         H            0.829810890055     0.807552015554     1.151303080067     1.007825032230
         H           -0.952241109945     1.262507015554    -1.287749919933     1.007825032230
         H            0.918428890055    -0.241934984446    -1.719413919933     1.007825032230
         H           -1.573961109945     0.090675015554     1.433029080067     1.007825032230
         H            3.200281890055     0.094154015554    -0.891942919933     1.007825032230
         H            2.801556890055    -1.635124984446    -0.906138919933     1.007825032230
         H            2.210704890055     2.139899015554     0.107550080067     1.007825032230
         H           -0.610089109945     3.049399015554     0.191174080067     1.007825032230
         H           -3.268525109945    -0.839807984446    -0.034092919933     1.007825032230
         H            2.407467890055    -1.418597984446     1.354322080067     1.007825032230

  Basis Set: AUG-CC-PVTZ
    Blend: AUG-CC-PVTZ
  Basis Set: (AUG-CC-PVTZ AUX)
    Blend: AUG-CC-PVTZ-JKFIT
	 Reference Energy          =    -682.4556565280644236 [Eh]
	 Singles Energy            =      -0.0000000000000000 [Eh]
	 Same-Spin Energy          =      -0.6621712506227199 [Eh]
	 Opposite-Spin Energy      =      -2.0101822783383527 [Eh]
	 Correlation Energy        =      -2.6723535289610725 [Eh]
	 Total Energy              =    -685.1280100570254490 [Eh]

	 ================> DF-SCS-MP2 Energies <==================
	-----------------------------------------------------------
	 SCS Same-Spin Scale       =       0.3333333333333333 [-]
	 SCS Opposite-Spin Scale   =       1.2000000000000000 [-]
	 SCS Same-Spin Energy      =      -0.2207237502075733 [Eh]
	 SCS Opposite-Spin Energy  =      -2.4122187340060233 [Eh]
	 SCS Correlation Energy    =      -2.6329424842135967 [Eh]
	 SCS Total Energy          =    -685.0885990122779958 [Eh]
	-----------------------------------------------------------

  Dipole Moment: [D]
     X:     3.4475      Y:     0.5132      Z:    -0.1862     Total:     3.4905

*** Psi4 exiting successfully. Buy a developer a beer!
