                               Psi4 1.4a3.dev225

  ==> Input File <==

--------------------------------------------------------------------------
#psi4
#
memory 32 gb

molecule  {
0 1
  O        0.3445260    -1.4915130    -0.1284710
  O        1.3620620     2.0495660    -0.4184890
  O       -1.2647860     2.3345150     0.4675600
  O       -2.9390480     0.0425350    -0.1674130
  O        2.8793210    -0.7013140     0.9576500
  O       -1.7069560    -2.3717120     0.0066660
  C        0.6456770     0.9144350     0.0711800
  C       -0.8241260     1.1660500    -0.2009330
  C        1.0869890    -0.3499130    -0.6435990
  C       -1.6195880    -0.0062280     0.3304940
  C        2.5464540    -0.6897970    -0.4256590
  C       -0.9510897    -1.2938055     0.0136343
  H        0.7972300     0.7916990     1.1507440
  H       -0.9848220     1.2466540    -1.2883090
  H        0.8858480    -0.2577880    -1.7199730
  H       -1.6065420     0.0748220     1.4324700
  H        3.1677010     0.0783010    -0.8925020
  H        2.7689760    -1.6509780    -0.9066980
  H        2.1781240     2.1240460     0.1069910
  H       -0.6426700     3.0335460     0.1906150
  H       -3.3011060    -0.8556610    -0.0346520
  H        2.3748870    -1.4344510     1.3537630
units angstrom
no_reorient  #important for SAPT in psi4, default
symmetry c1  #important for SAPT in psi4, default
}

set PROPERTIES_ORIGIN ["COM"]
properties('MP2/aug-cc-pvtz', properties = ['dipole'])
--------------------------------------------------------------------------

    Molecular point group: c1
  Charge       = 0
  Multiplicity = 1
  Basis Set: AUG-CC-PVTZ
    Blend: AUG-CC-PVTZ
  Basis Set: (AUG-CC-PVTZ AUX)
    Blend: AUG-CC-PVTZ-JKFIT

    Orbital Energies [Eh]
    ---------------------

    Doubly Occupied:

       1A    -20.649098     2A    -20.605856     3A    -20.592662
       4A    -20.577607     5A    -20.576999     6A    -20.551071
       7A    -11.413520     8A    -11.333587     9A    -11.324173
      10A    -11.320823    11A    -11.312816    12A    -11.310730
      13A     -1.495820    14A     -1.413387    15A     -1.395494
      16A     -1.388605    17A     -1.370638    18A     -1.318761
      19A     -1.108892    20A     -1.069907    21A     -0.965466
      22A     -0.885000    23A     -0.878784    24A     -0.810421
      25A     -0.768888    26A     -0.748168    27A     -0.724355
      28A     -0.711084    29A     -0.700205    30A     -0.684170
      31A     -0.667414    32A     -0.638048    33A     -0.627564
      34A     -0.623382    35A     -0.616663    36A     -0.591162
      37A     -0.582692    38A     -0.564029    39A     -0.544895
      40A     -0.534381    41A     -0.518557    42A     -0.496328
      43A     -0.482095    44A     -0.477056    45A     -0.465294
      46A     -0.454361    47A     -0.451242

  @DF-RHF Final Energy:  -682.42993371681928

   => Energetics <=

    Nuclear Repulsion Energy =            802.2728398597652131
    One-Electron Energy =               -2530.7212490169094963
    Two-Electron Energy =                1046.0184754403251191
    Total Energy =                       -682.4299337168192778
  Basis Set: (AUG-CC-PVTZ AUX)
    Blend: AUG-CC-PVTZ-RI
    Molecular point group: c1

    Geometry (in Angstrom), charge = 0, multiplicity = 1:

       Center              X                  Y                   Z               Mass
    ------------   -----------------  -----------------  -----------------  -----------------
         O            0.372034477922    -1.479480674881    -0.131871782985    15.994914619570
         O            1.389570477922     2.061598325119    -0.421889782985    15.994914619570
         O           -1.237277522078     2.346547325119     0.464159217015    15.994914619570
         O           -2.911539522078     0.054567325119    -0.170813782985    15.994914619570
         O            2.906829477922    -0.689281674881     0.954249217015    15.994914619570
         O           -1.679447522078    -2.359679674881     0.003265217015    15.994914619570
         C            0.673185477922     0.926467325119     0.067779217015    12.000000000000
         C           -0.796617522078     1.178082325119    -0.204333782985    12.000000000000
         C            1.114497477922    -0.337880674881    -0.646999782985    12.000000000000
         C           -1.592079522078     0.005804325119     0.327093217015    12.000000000000
         C            2.573962477922    -0.677764674881    -0.429059782985    12.000000000000
         C           -0.923581222078    -1.281773174881     0.010233517015    12.000000000000
         H            0.824738477922     0.803731325119     1.147343217015     1.007825032230
         H           -0.957313522078     1.258686325119    -1.291709782985     1.007825032230
         H            0.913356477922    -0.245755674881    -1.723373782985     1.007825032230
         H           -1.579033522078     0.086854325119     1.429069217015     1.007825032230
         H            3.195209477922     0.090333325119    -0.895902782985     1.007825032230
         H            2.796484477922    -1.638945674881    -0.910098782985     1.007825032230
         H            2.205632477922     2.136078325119     0.103590217015     1.007825032230
         H           -0.615161522078     3.045578325119     0.187214217015     1.007825032230
         H           -3.273597522078    -0.843628674881    -0.038052782985     1.007825032230
         H            2.402395477922    -1.422418674881     1.350362217015     1.007825032230

  Basis Set: AUG-CC-PVTZ
    Blend: AUG-CC-PVTZ
  Basis Set: (AUG-CC-PVTZ AUX)
    Blend: AUG-CC-PVTZ-JKFIT
	 Reference Energy          =    -682.4299337168192778 [Eh]
	 Singles Energy            =      -0.0000000000000000 [Eh]
	 Same-Spin Energy          =      -0.6654582458766083 [Eh]
	 Opposite-Spin Energy      =      -2.0166317321371228 [Eh]
	 Correlation Energy        =      -2.6820899780137308 [Eh]
	 Total Energy              =    -685.1120236948330557 [Eh]

	 ================> DF-SCS-MP2 Energies <==================
	-----------------------------------------------------------
	 SCS Same-Spin Scale       =       0.3333333333333333 [-]
	 SCS Opposite-Spin Scale   =       1.2000000000000000 [-]
	 SCS Same-Spin Energy      =      -0.2218194152922028 [Eh]
	 SCS Opposite-Spin Energy  =      -2.4199580785645471 [Eh]
	 SCS Correlation Energy    =      -2.6417774938567500 [Eh]
	 SCS Total Energy          =    -685.0717112106759714 [Eh]
	-----------------------------------------------------------

  Dipole Moment: [D]
     X:     3.9689      Y:     1.0610      Z:    -0.2698     Total:     4.1171

*** Psi4 exiting successfully. Buy a developer a beer!
