                               Psi4 1.4a3.dev225

  ==> Input File <==

--------------------------------------------------------------------------
#psi4
#
memory 32 gb

molecule  {
0 1
  O        0.3445260    -1.4915130    -0.1284710
  O        1.3620620     2.0495660    -0.4184890
  O       -1.2647860     2.3345150     0.4675600
  O       -2.9390480     0.0425350    -0.1674130
  O        2.8793210    -0.7013140     0.9576500
  O       -1.7069560    -2.3717120     0.0066660
  C        0.6456770     0.9144350     0.0711800
  C       -0.8241260     1.1660500    -0.2009330
  C        1.0869890    -0.3499130    -0.6435990
  C       -1.6195880    -0.0062280     0.3304940
  C        2.5464540    -0.6897970    -0.4256590
  C       -1.0085030    -1.3756800     0.0131050
  H        0.7972300     0.7916990     1.1507440
  H       -0.9848220     1.2466540    -1.2883090
  H        0.8492395    -0.2410208    -1.9158778
  H       -1.6065420     0.0748220     1.4324700
  H        3.1677010     0.0783010    -0.8925020
  H        2.7689760    -1.6509780    -0.9066980
  H        2.1781240     2.1240460     0.1069910
  H       -0.6426700     3.0335460     0.1906150
  H       -3.3011060    -0.8556610    -0.0346520
  H        2.3748870    -1.4344510     1.3537630
units angstrom
no_reorient  #important for SAPT in psi4, default
symmetry c1  #important for SAPT in psi4, default
}

set PROPERTIES_ORIGIN ["COM"]
properties('MP2/aug-cc-pvtz', properties = ['dipole'])
--------------------------------------------------------------------------

    Molecular point group: c1
  Charge       = 0
  Multiplicity = 1
  Basis Set: AUG-CC-PVTZ
    Blend: AUG-CC-PVTZ
  Basis Set: (AUG-CC-PVTZ AUX)
    Blend: AUG-CC-PVTZ-JKFIT

    Orbital Energies [Eh]
    ---------------------

    Doubly Occupied:

       1A    -20.632844     2A    -20.600864     3A    -20.589439
       4A    -20.575864     5A    -20.574872     6A    -20.570634
       7A    -11.408082     8A    -11.347514     9A    -11.321598
      10A    -11.316870    11A    -11.309183    12A    -11.307249
      13A     -1.479293    14A     -1.409599    15A     -1.400123
      16A     -1.385243    17A     -1.375556    18A     -1.363261
      19A     -1.096127    20A     -1.055242    21A     -0.957244
      22A     -0.876143    23A     -0.867026    24A     -0.790667
      25A     -0.761891    26A     -0.741069    27A     -0.720857
      28A     -0.703850    29A     -0.693445    30A     -0.683759
      31A     -0.661089    32A     -0.644232    33A     -0.630075
      34A     -0.617657    35A     -0.614943    36A     -0.590423
      37A     -0.571225    38A     -0.558515    39A     -0.541749
      40A     -0.533739    41A     -0.518337    42A     -0.505256
      43A     -0.483053    44A     -0.475953    45A     -0.470470
      46A     -0.463046    47A     -0.446178

  @DF-RHF Final Energy:  -682.43417634362697

   => Energetics <=

    Nuclear Repulsion Energy =            800.2465919878047771
    One-Electron Energy =               -2526.8788393535710384
    Two-Electron Energy =                1044.1980710221394020
    Total Energy =                       -682.4341763436268593
  Basis Set: (AUG-CC-PVTZ AUX)
    Blend: AUG-CC-PVTZ-RI
    Molecular point group: c1

    Geometry (in Angstrom), charge = 0, multiplicity = 1:

       Center              X                  Y                   Z               Mass
    ------------   -----------------  -----------------  -----------------  -----------------
         O            0.376111219198    -1.474057434986    -0.130727205898    15.994914619570
         O            1.393647219198     2.067021565014    -0.420745205898    15.994914619570
         O           -1.233200780802     2.351970565014     0.465303794102    15.994914619570
         O           -2.907462780802     0.059990565014    -0.169669205898    15.994914619570
         O            2.910906219198    -0.683858434986     0.955393794102    15.994914619570
         O           -1.675370780802    -2.354256434986     0.004409794102    15.994914619570
         C            0.677262219198     0.931890565014     0.068923794102    12.000000000000
         C           -0.792540780802     1.183505565014    -0.203189205898    12.000000000000
         C            1.118574219198    -0.332457434986    -0.645855205898    12.000000000000
         C           -1.588002780802     0.011227565014     0.328237794102    12.000000000000
         C            2.578039219198    -0.672341434986    -0.427915205898    12.000000000000
         C           -0.976917780802    -1.358224434986     0.010848794102    12.000000000000
         H            0.828815219198     0.809154565014     1.148487794102     1.007825032230
         H           -0.953236780802     1.264109565014    -1.290565205898     1.007825032230
         H            0.880824719198    -0.223565234986    -1.918134005898     1.007825032230
         H           -1.574956780802     0.092277565014     1.430213794102     1.007825032230
         H            3.199286219198     0.095756565014    -0.894758205898     1.007825032230
         H            2.800561219198    -1.633522434986    -0.908954205898     1.007825032230
         H            2.209709219198     2.141501565014     0.104734794102     1.007825032230
         H           -0.611084780802     3.051001565014     0.188358794102     1.007825032230
         H           -3.269520780802    -0.838205434986    -0.036908205898     1.007825032230
         H            2.406472219198    -1.416995434986     1.351506794102     1.007825032230

  Basis Set: AUG-CC-PVTZ
    Blend: AUG-CC-PVTZ
  Basis Set: (AUG-CC-PVTZ AUX)
    Blend: AUG-CC-PVTZ-JKFIT
	 Reference Energy          =    -682.4341763436269730 [Eh]
	 Singles Energy            =      -0.0000000000000000 [Eh]
	 Same-Spin Energy          =      -0.6630171327330830 [Eh]
	 Opposite-Spin Energy      =      -2.0130650774391627 [Eh]
	 Correlation Energy        =      -2.6760822101722459 [Eh]
	 Total Energy              =    -685.1102585537992127 [Eh]

	 ================> DF-SCS-MP2 Energies <==================
	-----------------------------------------------------------
	 SCS Same-Spin Scale       =       0.3333333333333333 [-]
	 SCS Opposite-Spin Scale   =       1.2000000000000000 [-]
	 SCS Same-Spin Energy      =      -0.2210057109110277 [Eh]
	 SCS Opposite-Spin Energy  =      -2.4156780929269952 [Eh]
	 SCS Correlation Energy    =      -2.6366838038380229 [Eh]
	 SCS Total Energy          =    -685.0708601474649413 [Eh]
	-----------------------------------------------------------

  Dipole Moment: [D]
     X:     3.3710      Y:     0.5359      Z:    -0.1370     Total:     3.4161

*** Psi4 exiting successfully. Buy a developer a beer!
