                               Psi4 1.4a3.dev225

  ==> Input File <==

--------------------------------------------------------------------------
#psi4
#
memory 32 gb

molecule  {
0 1
  O        0.3445260    -1.4915130    -0.1284710
  O        1.3620620     2.0495660    -0.4184890
  O       -1.2647860     2.3345150     0.4675600
  O       -2.9390480     0.0425350    -0.1674130
  O        2.8793210    -0.7013140     0.9576500
  O       -1.7069560    -2.3717120     0.0066660
  C        0.6456770     0.9144350     0.0711800
  C       -0.8241260     1.1660500    -0.2009330
  C        1.0869890    -0.3499130    -0.6435990
  C       -1.6195880    -0.0062280     0.3304940
  C        2.5464540    -0.6897970    -0.4256590
  C       -0.9686365    -1.4650216    -0.0076011
  H        0.7972300     0.7916990     1.1507440
  H       -0.9848220     1.2466540    -1.2883090
  H        0.8858480    -0.2577880    -1.7199730
  H       -1.6065420     0.0748220     1.4324700
  H        3.1677010     0.0783010    -0.8925020
  H        2.7689760    -1.6509780    -0.9066980
  H        2.1781240     2.1240460     0.1069910
  H       -0.6426700     3.0335460     0.1906150
  H       -3.3011060    -0.8556610    -0.0346520
  H        2.3748870    -1.4344510     1.3537630
units angstrom
no_reorient  #important for SAPT in psi4, default
symmetry c1  #important for SAPT in psi4, default
}

set PROPERTIES_ORIGIN ["COM"]
properties('MP2/aug-cc-pvtz', properties = ['dipole'])
--------------------------------------------------------------------------

    Molecular point group: c1
  Charge       = 0
  Multiplicity = 1
  Basis Set: AUG-CC-PVTZ
    Blend: AUG-CC-PVTZ
  Basis Set: (AUG-CC-PVTZ AUX)
    Blend: AUG-CC-PVTZ-JKFIT

    Orbital Energies [Eh]
    ---------------------

    Doubly Occupied:

       1A    -20.631899     2A    -20.599722     3A    -20.589315
       4A    -20.570382     5A    -20.569674     6A    -20.569165
       7A    -11.400273     8A    -11.331222     9A    -11.313260
      10A    -11.313150    11A    -11.309851    12A    -11.301191
      13A     -1.497594    14A     -1.418290    15A     -1.405562
      16A     -1.386562    17A     -1.377888    18A     -1.360120
      19A     -1.099361    20A     -1.050352    21A     -0.945745
      22A     -0.878269    23A     -0.861748    24A     -0.801091
      25A     -0.759224    26A     -0.741021    27A     -0.721953
      28A     -0.707036    29A     -0.695138    30A     -0.694988
      31A     -0.663260    32A     -0.645764    33A     -0.631918
      34A     -0.620445    35A     -0.612667    36A     -0.589940
      37A     -0.585097    38A     -0.558106    39A     -0.539893
      40A     -0.535970    41A     -0.520775    42A     -0.513110
      43A     -0.483509    44A     -0.478043    45A     -0.470767
      46A     -0.458379    47A     -0.428471

  @DF-RHF Final Energy:  -682.45149461202163

   => Energetics <=

    Nuclear Repulsion Energy =            801.0637312373999066
    One-Electron Energy =               -2528.5561306684357987
    Two-Electron Energy =                1045.0409048190142585
    Total Energy =                       -682.4514946120216337
  Basis Set: (AUG-CC-PVTZ AUX)
    Blend: AUG-CC-PVTZ-RI
    Molecular point group: c1

    Geometry (in Angstrom), charge = 0, multiplicity = 1:

       Center              X                  Y                   Z               Mass
    ------------   -----------------  -----------------  -----------------  -----------------
         O            0.373217091093    -1.467941111264    -0.130440566825    15.994914619570
         O            1.390753091093     2.073137888736    -0.420458566825    15.994914619570
         O           -1.236094908907     2.358086888736     0.465590433175    15.994914619570
         O           -2.910356908907     0.066106888736    -0.169382566825    15.994914619570
         O            2.908012091093    -0.677742111264     0.955680433175    15.994914619570
         O           -1.678264908907    -2.348140111264     0.004696433175    15.994914619570
         C            0.674368091093     0.938006888736     0.069210433175    12.000000000000
         C           -0.795434908907     1.189621888736    -0.202902566825    12.000000000000
         C            1.115680091093    -0.326341111264    -0.645568566825    12.000000000000
         C           -1.590896908907     0.017343888736     0.328524433175    12.000000000000
         C            2.575145091093    -0.666225111264    -0.427628566825    12.000000000000
         C           -0.939945408907    -1.441449711264    -0.009570666825    12.000000000000
         H            0.825921091093     0.815270888736     1.148774433175     1.007825032230
         H           -0.956130908907     1.270225888736    -1.290278566825     1.007825032230
         H            0.914539091093    -0.234216111264    -1.721942566825     1.007825032230
         H           -1.577850908907     0.098393888736     1.430500433175     1.007825032230
         H            3.196392091093     0.101872888736    -0.894471566825     1.007825032230
         H            2.797667091093    -1.627406111264    -0.908667566825     1.007825032230
         H            2.206815091093     2.147617888736     0.105021433175     1.007825032230
         H           -0.613978908907     3.057117888736     0.188645433175     1.007825032230
         H           -3.272414908907    -0.832089111264    -0.036621566825     1.007825032230
         H            2.403578091093    -1.410879111264     1.351793433175     1.007825032230

  Basis Set: AUG-CC-PVTZ
    Blend: AUG-CC-PVTZ
  Basis Set: (AUG-CC-PVTZ AUX)
    Blend: AUG-CC-PVTZ-JKFIT
	 Reference Energy          =    -682.4514946120216337 [Eh]
	 Singles Energy            =      -0.0000000000000000 [Eh]
	 Same-Spin Energy          =      -0.6607110466196169 [Eh]
	 Opposite-Spin Energy      =      -2.0069457308653367 [Eh]
	 Correlation Energy        =      -2.6676567774849538 [Eh]
	 Total Energy              =    -685.1191513895065555 [Eh]

	 ================> DF-SCS-MP2 Energies <==================
	-----------------------------------------------------------
	 SCS Same-Spin Scale       =       0.3333333333333333 [-]
	 SCS Opposite-Spin Scale   =       1.2000000000000000 [-]
	 SCS Same-Spin Energy      =      -0.2202370155398723 [Eh]
	 SCS Opposite-Spin Energy  =      -2.4083348770384041 [Eh]
	 SCS Correlation Energy    =      -2.6285718925782762 [Eh]
	 SCS Total Energy          =    -685.0800665045999267 [Eh]
	-----------------------------------------------------------

  Dipole Moment: [D]
     X:     3.6800      Y:     0.1594      Z:    -0.3867     Total:     3.7037

*** Psi4 exiting successfully. Buy a developer a beer!
