                               Psi4 1.4a3.dev225

  ==> Input File <==

--------------------------------------------------------------------------
#psi4
#
memory 32 gb

molecule  {
0 1
  O        0.3445260    -1.4915130    -0.1284710
  O        1.3620620     2.0495660    -0.4184890
  O       -1.2647860     2.3345150     0.4675600
  O       -2.9390480     0.0425350    -0.1674130
  O        2.8793210    -0.7013140     0.9576500
  O       -1.7069560    -2.3717120     0.0066660
  C        0.6456770     0.9144350     0.0711800
  C       -0.8241260     1.1660500    -0.2009330
  C        1.0869890    -0.3499130    -0.6435990
  C       -1.6195880    -0.0062280     0.3304940
  C        2.5464540    -0.6897970    -0.4256590
  C       -1.0085030    -1.3756800     0.0131050
  H        0.7972300     0.7916990     1.1507440
  H       -0.9848220     1.2466540    -1.2883090
  H        0.8858480    -0.2577880    -1.7199730
  H       -1.6059517     0.0784893     1.4823318
  H        3.1677010     0.0783010    -0.8925020
  H        2.7689760    -1.6509780    -0.9066980
  H        2.1781240     2.1240460     0.1069910
  H       -0.6426700     3.0335460     0.1906150
  H       -3.3011060    -0.8556610    -0.0346520
  H        2.3748870    -1.4344510     1.3537630
units angstrom
no_reorient  #important for SAPT in psi4, default
symmetry c1  #important for SAPT in psi4, default
}

set PROPERTIES_ORIGIN ["COM"]
properties('MP2/aug-cc-pvtz', properties = ['dipole'])
--------------------------------------------------------------------------

    Molecular point group: c1
  Charge       = 0
  Multiplicity = 1
  Basis Set: AUG-CC-PVTZ
    Blend: AUG-CC-PVTZ
  Basis Set: (AUG-CC-PVTZ AUX)
    Blend: AUG-CC-PVTZ-JKFIT

    Orbital Energies [Eh]
    ---------------------

    Doubly Occupied:

       1A    -20.629800     2A    -20.600608     3A    -20.587568
       4A    -20.576617     5A    -20.574876     6A    -20.569196
       7A    -11.407252     8A    -11.326702     9A    -11.326251
      10A    -11.314526    11A    -11.307759    12A    -11.307496
      13A     -1.477680    14A     -1.409320    15A     -1.399312
      16A     -1.384035    17A     -1.374839    18A     -1.363129
      19A     -1.097900    20A     -1.057327    21A     -0.954915
      22A     -0.876048    23A     -0.868141    24A     -0.799773
      25A     -0.762371    26A     -0.741129    27A     -0.721009
      28A     -0.705215    29A     -0.694848    30A     -0.685927
      31A     -0.660383    32A     -0.644004    33A     -0.628662
      34A     -0.617071    35A     -0.613954    36A     -0.590251
      37A     -0.581951    38A     -0.560013    39A     -0.541087
      40A     -0.534312    41A     -0.519692    42A     -0.504288
      43A     -0.483644    44A     -0.477792    45A     -0.472144
      46A     -0.463827    47A     -0.444670

  @DF-RHF Final Energy:  -682.45249285842192

   => Energetics <=

    Nuclear Repulsion Energy =            801.0641848853288138
    One-Electron Energy =               -2528.5547269744706682
    Two-Electron Energy =                1045.0380492307199347
    Total Energy =                       -682.4524928584219197
  Basis Set: (AUG-CC-PVTZ AUX)
    Blend: AUG-CC-PVTZ-RI
    Molecular point group: c1

    Geometry (in Angstrom), charge = 0, multiplicity = 1:

       Center              X                  Y                   Z               Mass
    ------------   -----------------  -----------------  -----------------  -----------------
         O            0.375900658355    -1.473983284046    -0.132118348152    15.994914619570
         O            1.393436658355     2.067095715954    -0.422136348152    15.994914619570
         O           -1.233411341645     2.352044715954     0.463912651848    15.994914619570
         O           -2.907673341645     0.060064715954    -0.171060348152    15.994914619570
         O            2.910695658355    -0.683784284046     0.954002651848    15.994914619570
         O           -1.675581341645    -2.354182284046     0.003018651848    15.994914619570
         C            0.677051658355     0.931964715954     0.067532651848    12.000000000000
         C           -0.792751341645     1.183579715954    -0.204580348152    12.000000000000
         C            1.118363658355    -0.332383284046    -0.647246348152    12.000000000000
         C           -1.588213341645     0.011301715954     0.326846651848    12.000000000000
         C            2.577828658355    -0.672267284046    -0.429306348152    12.000000000000
         C           -0.977128341645    -1.358150284046     0.009457651848    12.000000000000
         H            0.828604658355     0.809228715954     1.147096651848     1.007825032230
         H           -0.953447341645     1.264183715954    -1.291956348152     1.007825032230
         H            0.917222658355    -0.240258284046    -1.723620348152     1.007825032230
         H           -1.574577041645     0.096019015954     1.478684451848     1.007825032230
         H            3.199075658355     0.095830715954    -0.896149348152     1.007825032230
         H            2.800350658355    -1.633448284046    -0.910345348152     1.007825032230
         H            2.209498658355     2.141575715954     0.103343651848     1.007825032230
         H           -0.611295341645     3.051075715954     0.186967651848     1.007825032230
         H           -3.269731341645    -0.838131284046    -0.038299348152     1.007825032230
         H            2.406261658355    -1.416921284046     1.350115651848     1.007825032230

  Basis Set: AUG-CC-PVTZ
    Blend: AUG-CC-PVTZ
  Basis Set: (AUG-CC-PVTZ AUX)
    Blend: AUG-CC-PVTZ-JKFIT
	 Reference Energy          =    -682.4524928584219197 [Eh]
	 Singles Energy            =      -0.0000000000000000 [Eh]
	 Same-Spin Energy          =      -0.6625887765679545 [Eh]
	 Opposite-Spin Energy      =      -2.0112785875844699 [Eh]
	 Correlation Energy        =      -2.6738673641524242 [Eh]
	 Total Energy              =    -685.1263602225743625 [Eh]

	 ================> DF-SCS-MP2 Energies <==================
	-----------------------------------------------------------
	 SCS Same-Spin Scale       =       0.3333333333333333 [-]
	 SCS Opposite-Spin Scale   =       1.2000000000000000 [-]
	 SCS Same-Spin Energy      =      -0.2208629255226515 [Eh]
	 SCS Opposite-Spin Energy  =      -2.4135343051013636 [Eh]
	 SCS Correlation Energy    =      -2.6343972306240149 [Eh]
	 SCS Total Energy          =    -685.0868900890459372 [Eh]
	-----------------------------------------------------------

  Dipole Moment: [D]
     X:     3.3770      Y:     0.5787      Z:    -0.2833     Total:     3.4379

*** Psi4 exiting successfully. Buy a developer a beer!
