                               Psi4 1.4a3.dev225

  ==> Input File <==

--------------------------------------------------------------------------
#psi4
#
memory 32 gb

molecule  {
0 1
  O        0.3445260    -1.4915130    -0.1284710
  O        1.3620620     2.0495660    -0.4184890
  O       -1.2647860     2.3345150     0.4675600
  O       -2.9390480     0.0425350    -0.1674130
  O        2.8793210    -0.7013140     0.9576500
  O       -1.7069560    -2.3717120     0.0066660
  C        0.6456770     0.9144350     0.0711800
  C       -0.8241260     1.1660500    -0.2009330
  C        1.0869890    -0.3499130    -0.6435990
  C       -1.6195880    -0.0062280     0.3304940
  C        2.5464540    -0.6897970    -0.4256590
  C       -1.0085030    -1.3756800     0.0131050
  H        0.7972300     0.7916990     1.1507440
  H       -0.9848220     1.2466540    -1.2883090
  H        0.8766959    -0.2535962    -1.7689492
  H       -1.6065420     0.0748220     1.4324700
  H        3.1677010     0.0783010    -0.8925020
  H        2.7689760    -1.6509780    -0.9066980
  H        2.1781240     2.1240460     0.1069910
  H       -0.6426700     3.0335460     0.1906150
  H       -3.3011060    -0.8556610    -0.0346520
  H        2.3748870    -1.4344510     1.3537630
units angstrom
no_reorient  #important for SAPT in psi4, default
symmetry c1  #important for SAPT in psi4, default
}

set PROPERTIES_ORIGIN ["COM"]
properties('MP2/aug-cc-pvtz', properties = ['dipole'])
--------------------------------------------------------------------------

    Molecular point group: c1
  Charge       = 0
  Multiplicity = 1
  Basis Set: AUG-CC-PVTZ
    Blend: AUG-CC-PVTZ
  Basis Set: (AUG-CC-PVTZ AUX)
    Blend: AUG-CC-PVTZ-JKFIT

    Orbital Energies [Eh]
    ---------------------

    Doubly Occupied:

       1A    -20.630425     2A    -20.600673     3A    -20.588005
       4A    -20.575613     5A    -20.574872     6A    -20.569579
       7A    -11.407201     8A    -11.331919     9A    -11.321248
      10A    -11.315089    11A    -11.307867    12A    -11.307290
      13A     -1.478009    14A     -1.409378    15A     -1.399358
      16A     -1.384227    17A     -1.375004    18A     -1.362935
      19A     -1.097400    20A     -1.057257    21A     -0.956606
      22A     -0.876112    23A     -0.867748    24A     -0.797954
      25A     -0.762071    26A     -0.741606    27A     -0.720780
      28A     -0.706616    29A     -0.694414    30A     -0.685783
      31A     -0.662013    32A     -0.643954    33A     -0.629024
      34A     -0.617086    35A     -0.614855    36A     -0.590143
      37A     -0.579856    38A     -0.559804    39A     -0.541298
      40A     -0.534124    41A     -0.519370    42A     -0.504521
      43A     -0.483681    44A     -0.477545    45A     -0.472417
      46A     -0.464762    47A     -0.445369

  @DF-RHF Final Energy:  -682.45248772186960

   => Energetics <=

    Nuclear Repulsion Energy =            801.0595198961651704
    One-Electron Energy =               -2528.5382875472191699
    Two-Electron Energy =                1045.0262799291845113
    Total Energy =                       -682.4524877218696020
  Basis Set: (AUG-CC-PVTZ AUX)
    Blend: AUG-CC-PVTZ-RI
    Molecular point group: c1

    Geometry (in Angstrom), charge = 0, multiplicity = 1:

       Center              X                  Y                   Z               Mass
    ------------   -----------------  -----------------  -----------------  -----------------
         O            0.375955804434    -1.473986252937    -0.131558883530    15.994914619570
         O            1.393491804434     2.067092747063    -0.421576883530    15.994914619570
         O           -1.233356195566     2.352041747063     0.464472116470    15.994914619570
         O           -2.907618195566     0.060061747063    -0.170500883530    15.994914619570
         O            2.910750804434    -0.683787252937     0.954562116470    15.994914619570
         O           -1.675526195566    -2.354185252937     0.003578116470    15.994914619570
         C            0.677106804434     0.931961747063     0.068092116470    12.000000000000
         C           -0.792696195566     1.183576747063    -0.204020883530    12.000000000000
         C            1.118418804434    -0.332386252937    -0.646686883530    12.000000000000
         C           -1.588158195566     0.011298747063     0.327406116470    12.000000000000
         C            2.577883804434    -0.672270252937    -0.428746883530    12.000000000000
         C           -0.977073195566    -1.358153252937     0.010017116470    12.000000000000
         H            0.828659804434     0.809225747063     1.147656116470     1.007825032230
         H           -0.953392195566     1.264180747063    -1.291396883530     1.007825032230
         H            0.908125704434    -0.236069452937    -1.772037083530     1.007825032230
         H           -1.575112195566     0.092348747063     1.429382116470     1.007825032230
         H            3.199130804434     0.095827747063    -0.895589883530     1.007825032230
         H            2.800405804434    -1.633451252937    -0.909785883530     1.007825032230
         H            2.209553804434     2.141572747063     0.103903116470     1.007825032230
         H           -0.611240195566     3.051072747063     0.187527116470     1.007825032230
         H           -3.269676195566    -0.838134252937    -0.037739883530     1.007825032230
         H            2.406316804434    -1.416924252937     1.350675116470     1.007825032230

  Basis Set: AUG-CC-PVTZ
    Blend: AUG-CC-PVTZ
  Basis Set: (AUG-CC-PVTZ AUX)
    Blend: AUG-CC-PVTZ-JKFIT
	 Reference Energy          =    -682.4524877218696020 [Eh]
	 Singles Energy            =      -0.0000000000000000 [Eh]
	 Same-Spin Energy          =      -0.6625786120727574 [Eh]
	 Opposite-Spin Energy      =      -2.0112963306064060 [Eh]
	 Correlation Energy        =      -2.6738749426791633 [Eh]
	 Total Energy              =    -685.1263626645487648 [Eh]

	 ================> DF-SCS-MP2 Energies <==================
	-----------------------------------------------------------
	 SCS Same-Spin Scale       =       0.3333333333333333 [-]
	 SCS Opposite-Spin Scale   =       1.2000000000000000 [-]
	 SCS Same-Spin Energy      =      -0.2208595373575858 [Eh]
	 SCS Opposite-Spin Energy  =      -2.4135555967276869 [Eh]
	 SCS Correlation Energy    =      -2.6344151340852728 [Eh]
	 SCS Total Energy          =    -685.0869028559549179 [Eh]
	-----------------------------------------------------------

  Dipole Moment: [D]
     X:     3.3905      Y:     0.5643      Z:    -0.2397     Total:     3.4454

*** Psi4 exiting successfully. Buy a developer a beer!
