                               Psi4 1.4a3.dev225

  ==> Input File <==

--------------------------------------------------------------------------
#psi4
#
memory 32 gb

molecule  {
0 1
  O        0.3445260    -1.4915130    -0.1284710
  O        1.3620620     2.0495660    -0.4184890
  O       -1.2647860     2.3345150     0.4675600
  O       -2.9390480     0.0425350    -0.1674130
  O        2.8793210    -0.7013140     0.9576500
  O       -1.7069560    -2.3717120     0.0066660
  C        0.6456770     0.9144350     0.0711800
  C       -0.8241260     1.1660500    -0.2009330
  C        1.0869890    -0.3499130    -0.6435990
  C       -1.6195880    -0.0062280     0.3304940
  C        2.5464540    -0.6897970    -0.4256590
  C       -1.0085030    -1.3756800     0.0131050
  H        0.7972300     0.7916990     1.1507440
  H       -0.9848220     1.2466540    -1.2883090
  H        0.8858480    -0.2577880    -1.7199730
  H       -1.6065420     0.0748220     1.4324700
  H        3.1677010     0.0783010    -0.8925020
  H        2.7689760    -1.6509780    -0.9066980
  H        2.1781240     2.1240460     0.1069910
  H       -0.7064182     2.9619163     0.2189936
  H       -3.3011060    -0.8556610    -0.0346520
  H        2.3748870    -1.4344510     1.3537630
units angstrom
no_reorient  #important for SAPT in psi4, default
symmetry c1  #important for SAPT in psi4, default
}

set PROPERTIES_ORIGIN ["COM"]
properties('MP2/aug-cc-pvtz', properties = ['dipole'])
--------------------------------------------------------------------------

    Molecular point group: c1
  Charge       = 0
  Multiplicity = 1
  Basis Set: AUG-CC-PVTZ
    Blend: AUG-CC-PVTZ
  Basis Set: (AUG-CC-PVTZ AUX)
    Blend: AUG-CC-PVTZ-JKFIT

    Orbital Energies [Eh]
    ---------------------

    Doubly Occupied:

       1A    -20.630152     2A    -20.600163     3A    -20.587835
       4A    -20.576133     5A    -20.569698     6A    -20.566586
       7A    -11.407385     8A    -11.326690     9A    -11.321868
      10A    -11.315240    11A    -11.308747    12A    -11.307772
      13A     -1.478150    14A     -1.418380    15A     -1.401698
      16A     -1.386389    17A     -1.383089    18A     -1.367396
      19A     -1.101375    20A     -1.060482    21A     -0.956928
      22A     -0.883233    23A     -0.869187    24A     -0.802411
      25A     -0.764979    26A     -0.742281    27A     -0.727745
      28A     -0.710150    29A     -0.699859    30A     -0.687528
      31A     -0.667668    32A     -0.644414    33A     -0.629159
      34A     -0.618640    35A     -0.615719    36A     -0.591105
      37A     -0.583773    38A     -0.563307    39A     -0.543505
      40A     -0.534984    41A     -0.520497    42A     -0.504661
      43A     -0.485863    44A     -0.478908    45A     -0.474125
      46A     -0.465921    47A     -0.446356

  @DF-RHF Final Energy:  -682.45018795603755

   => Energetics <=

    Nuclear Repulsion Energy =            802.0069311737277076
    One-Electron Energy =               -2530.2579671160210637
    Two-Electron Energy =                1045.8008479862558033
    Total Energy =                       -682.4501879560375528
  Basis Set: (AUG-CC-PVTZ AUX)
    Blend: AUG-CC-PVTZ-RI
    Molecular point group: c1

    Geometry (in Angstrom), charge = 0, multiplicity = 1:

       Center              X                  Y                   Z               Mass
    ------------   -----------------  -----------------  -----------------  -----------------
         O            0.376264841307    -1.473557071378    -0.131996744211    15.994914619570
         O            1.393800841307     2.067521928622    -0.422014744211    15.994914619570
         O           -1.233047158693     2.352470928622     0.464034255789    15.994914619570
         O           -2.907309158693     0.060490928622    -0.170938744211    15.994914619570
         O            2.911059841307    -0.683358071378     0.954124255789    15.994914619570
         O           -1.675217158693    -2.353756071378     0.003140255789    15.994914619570
         C            0.677415841307     0.932390928622     0.067654255789    12.000000000000
         C           -0.792387158693     1.184005928622    -0.204458744211    12.000000000000
         C            1.118727841307    -0.331957071378    -0.647124744211    12.000000000000
         C           -1.587849158693     0.011727928622     0.326968255789    12.000000000000
         C            2.578192841307    -0.671841071378    -0.429184744211    12.000000000000
         C           -0.976764158693    -1.357724071378     0.009579255789    12.000000000000
         H            0.828968841307     0.809654928622     1.147218255789     1.007825032230
         H           -0.953083158693     1.264609928622    -1.291834744211     1.007825032230
         H            0.917586841307    -0.239832071378    -1.723498744211     1.007825032230
         H           -1.574803158693     0.092777928622     1.428944255789     1.007825032230
         H            3.199439841307     0.096256928622    -0.896027744211     1.007825032230
         H            2.800714841307    -1.633022071378    -0.910223744211     1.007825032230
         H            2.209862841307     2.142001928622     0.103465255789     1.007825032230
         H           -0.674679358693     2.979872228622     0.215467855789     1.007825032230
         H           -3.269367158693    -0.837705071378    -0.038177744211     1.007825032230
         H            2.406625841307    -1.416495071378     1.350237255789     1.007825032230

  Basis Set: AUG-CC-PVTZ
    Blend: AUG-CC-PVTZ
  Basis Set: (AUG-CC-PVTZ AUX)
    Blend: AUG-CC-PVTZ-JKFIT
	 Reference Energy          =    -682.4501879560375528 [Eh]
	 Singles Energy            =      -0.0000000000000000 [Eh]
	 Same-Spin Energy          =      -0.6611474361542815 [Eh]
	 Opposite-Spin Energy      =      -2.0077962384109624 [Eh]
	 Correlation Energy        =      -2.6689436745652442 [Eh]
	 Total Energy              =    -685.1191316306028511 [Eh]

	 ================> DF-SCS-MP2 Energies <==================
	-----------------------------------------------------------
	 SCS Same-Spin Scale       =       0.3333333333333333 [-]
	 SCS Opposite-Spin Scale   =       1.2000000000000000 [-]
	 SCS Same-Spin Energy      =      -0.2203824787180938 [Eh]
	 SCS Opposite-Spin Energy  =      -2.4093554860931548 [Eh]
	 SCS Correlation Energy    =      -2.6297379648112487 [Eh]
	 SCS Total Energy          =    -685.0799259208488365 [Eh]
	-----------------------------------------------------------

  Dipole Moment: [D]
     X:     3.3424      Y:     0.4826      Z:    -0.2497     Total:     3.3863

*** Psi4 exiting successfully. Buy a developer a beer!
