                               Psi4 1.4a3.dev225

  ==> Input File <==

--------------------------------------------------------------------------
#psi4
#
memory 32 gb

molecule  {
0 1
  O        0.3445260    -1.4915130    -0.1284710
  O        1.3620620     2.0495660    -0.4184890
  O       -1.2647860     2.3345150     0.4675600
  O       -2.9390480     0.0425350    -0.1674130
  O        2.8793210    -0.7013140     0.9576500
  O       -1.7069560    -2.3717120     0.0066660
  C        0.6456770     0.9144350     0.0711800
  C       -0.8241260     1.1660500    -0.2009330
  C        1.0869890    -0.3499130    -0.6435990
  C       -1.6195880    -0.0062280     0.3304940
  C        2.5464540    -0.6897970    -0.4256590
  C       -1.0085030    -1.3756800     0.0131050
  H        0.7972300     0.7916990     1.1507440
  H       -0.9848220     1.2466540    -1.2883090
  H        0.8858480    -0.2577880    -1.7199730
  H       -1.6063059     0.0762889     1.4524147
  H        3.1677010     0.0783010    -0.8925020
  H        2.7689760    -1.6509780    -0.9066980
  H        2.1781240     2.1240460     0.1069910
  H       -0.6426700     3.0335460     0.1906150
  H       -3.3011060    -0.8556610    -0.0346520
  H        2.3748870    -1.4344510     1.3537630
units angstrom
no_reorient  #important for SAPT in psi4, default
symmetry c1  #important for SAPT in psi4, default
}

set PROPERTIES_ORIGIN ["COM"]
properties('MP2/aug-cc-pvtz', properties = ['dipole'])
--------------------------------------------------------------------------

    Molecular point group: c1
  Charge       = 0
  Multiplicity = 1
  Basis Set: AUG-CC-PVTZ
    Blend: AUG-CC-PVTZ
  Basis Set: (AUG-CC-PVTZ AUX)
    Blend: AUG-CC-PVTZ-JKFIT

    Orbital Energies [Eh]
    ---------------------

    Doubly Occupied:

       1A    -20.629791     2A    -20.600633     3A    -20.587606
       4A    -20.575964     5A    -20.574886     6A    -20.569245
       7A    -11.407078     8A    -11.326263     9A    -11.323407
      10A    -11.314577    11A    -11.307514    12A    -11.307494
      13A     -1.477694    14A     -1.409341    15A     -1.399225
      16A     -1.383989    17A     -1.374858    18A     -1.362964
      19A     -1.098099    20A     -1.057916    21A     -0.955807
      22A     -0.876244    23A     -0.868279    24A     -0.800745
      25A     -0.762306    26A     -0.741556    27A     -0.721031
      28A     -0.706826    29A     -0.694847    30A     -0.686116
      31A     -0.661562    32A     -0.643949    33A     -0.628718
      34A     -0.617010    35A     -0.614527    36A     -0.590200
      37A     -0.582588    38A     -0.560016    39A     -0.541150
      40A     -0.534252    41A     -0.519680    42A     -0.504314
      43A     -0.483938    44A     -0.477972    45A     -0.472410
      46A     -0.464496    47A     -0.444984

  @DF-RHF Final Energy:  -682.45420123404347

   => Energetics <=

    Nuclear Repulsion Energy =            801.2358731601456157
    One-Electron Energy =               -2528.8920126140264983
    Two-Electron Energy =                1045.2019382198373023
    Total Energy =                       -682.4542012340434667
  Basis Set: (AUG-CC-PVTZ AUX)
    Blend: AUG-CC-PVTZ-RI
    Molecular point group: c1

    Geometry (in Angstrom), charge = 0, multiplicity = 1:

       Center              X                  Y                   Z               Mass
    ------------   -----------------  -----------------  -----------------  -----------------
         O            0.375902663276    -1.473970828857    -0.131949004792    15.994914619570
         O            1.393438663276     2.067108171143    -0.421967004792    15.994914619570
         O           -1.233409336724     2.352057171143     0.464081995208    15.994914619570
         O           -2.907671336724     0.060077171143    -0.170891004792    15.994914619570
         O            2.910697663276    -0.683771828857     0.954171995208    15.994914619570
         O           -1.675579336724    -2.354169828857     0.003187995208    15.994914619570
         C            0.677053663276     0.931977171143     0.067701995208    12.000000000000
         C           -0.792749336724     1.183592171143    -0.204411004792    12.000000000000
         C            1.118365663276    -0.332370828857    -0.647077004792    12.000000000000
         C           -1.588211336724     0.011314171143     0.327015995208    12.000000000000
         C            2.577830663276    -0.672254828857    -0.429137004792    12.000000000000
         C           -0.977126336724    -1.358137828857     0.009626995208    12.000000000000
         H            0.828606663276     0.809241171143     1.147265995208     1.007825032230
         H           -0.953445336724     1.264196171143    -1.291787004792     1.007825032230
         H            0.917224663276    -0.240245828857    -1.723451004792     1.007825032230
         H           -1.574929236724     0.093831071143     1.448936695208     1.007825032230
         H            3.199077663276     0.095843171143    -0.895980004792     1.007825032230
         H            2.800352663276    -1.633435828857    -0.910176004792     1.007825032230
         H            2.209500663276     2.141588171143     0.103512995208     1.007825032230
         H           -0.611293336724     3.051088171143     0.187136995208     1.007825032230
         H           -3.269729336724    -0.838118828857    -0.038130004792     1.007825032230
         H            2.406263663276    -1.416908828857     1.350284995208     1.007825032230

  Basis Set: AUG-CC-PVTZ
    Blend: AUG-CC-PVTZ
  Basis Set: (AUG-CC-PVTZ AUX)
    Blend: AUG-CC-PVTZ-JKFIT
	 Reference Energy          =    -682.4542012340434667 [Eh]
	 Singles Energy            =      -0.0000000000000000 [Eh]
	 Same-Spin Energy          =      -0.6625039389421454 [Eh]
	 Opposite-Spin Energy      =      -2.0109899645015266 [Eh]
	 Correlation Energy        =      -2.6734939034436720 [Eh]
	 Total Energy              =    -685.1276951374871942 [Eh]

	 ================> DF-SCS-MP2 Energies <==================
	-----------------------------------------------------------
	 SCS Same-Spin Scale       =       0.3333333333333333 [-]
	 SCS Opposite-Spin Scale   =       1.2000000000000000 [-]
	 SCS Same-Spin Energy      =      -0.2208346463140485 [Eh]
	 SCS Opposite-Spin Energy  =      -2.4131879574018318 [Eh]
	 SCS Correlation Energy    =      -2.6340226037158803 [Eh]
	 SCS Total Energy          =    -685.0882238377593012 [Eh]
	-----------------------------------------------------------

  Dipole Moment: [D]
     X:     3.3887      Y:     0.5751      Z:    -0.2719     Total:     3.4479

*** Psi4 exiting successfully. Buy a developer a beer!
