                               Psi4 1.4a3.dev225

  ==> Input File <==

--------------------------------------------------------------------------
#psi4
#
memory 32 gb

molecule  {
0 1
  O        0.3445260    -1.4915130    -0.1284710
  O        1.3620620     2.0495660    -0.4184890
  O       -1.2647860     2.3345150     0.4675600
  O       -2.9390480     0.0425350    -0.1674130
  O        2.8793210    -0.7013140     0.9576500
  O       -1.7069560    -2.3717120     0.0066660
  C        0.6456770     0.9144350     0.0711800
  C       -0.8241260     1.1660500    -0.2009330
  C        1.0869890    -0.3499130    -0.6435990
  C       -1.6195880    -0.0062280     0.3304940
  C        2.5464540    -0.6897970    -0.4256590
  C       -1.0085030    -1.3756800     0.0131050
  H        0.7972300     0.7916990     1.1507440
  H       -0.9848220     1.2466540    -1.2883090
  H        0.8858480    -0.2577880    -1.7199730
  H       -1.6041808     0.0894913     1.6319173
  H        3.1677010     0.0783010    -0.8925020
  H        2.7689760    -1.6509780    -0.9066980
  H        2.1781240     2.1240460     0.1069910
  H       -0.6426700     3.0335460     0.1906150
  H       -3.3011060    -0.8556610    -0.0346520
  H        2.3748870    -1.4344510     1.3537630
units angstrom
no_reorient  #important for SAPT in psi4, default
symmetry c1  #important for SAPT in psi4, default
}

set PROPERTIES_ORIGIN ["COM"]
properties('MP2/aug-cc-pvtz', properties = ['dipole'])
--------------------------------------------------------------------------

    Molecular point group: c1
  Charge       = 0
  Multiplicity = 1
  Basis Set: AUG-CC-PVTZ
    Blend: AUG-CC-PVTZ
  Basis Set: (AUG-CC-PVTZ AUX)
    Blend: AUG-CC-PVTZ-JKFIT

    Orbital Energies [Eh]
    ---------------------

    Doubly Occupied:

       1A    -20.629989     2A    -20.600540     3A    -20.587396
       4A    -20.580482     5A    -20.574909     6A    -20.569237
       7A    -11.408414     8A    -11.341921     9A    -11.326279
      10A    -11.314342    11A    -11.309367    12A    -11.307459
      13A     -1.477810    14A     -1.409297    15A     -1.400143
      16A     -1.384418    17A     -1.374896    18A     -1.364177
      19A     -1.097422    20A     -1.055500    21A     -0.951911
      22A     -0.875813    23A     -0.867686    24A     -0.796307
      25A     -0.762899    26A     -0.740491    27A     -0.721006
      28A     -0.699238    29A     -0.694930    30A     -0.685029
      31A     -0.654534    32A     -0.644438    33A     -0.628487
      34A     -0.617700    35A     -0.611221    36A     -0.590732
      37A     -0.578328    38A     -0.560065    39A     -0.540827
      40A     -0.534773    41A     -0.519879    42A     -0.504329
      43A     -0.482877    44A     -0.477236    45A     -0.471169
      46A     -0.458999    47A     -0.441605

  @DF-RHF Final Energy:  -682.43461997854297

   => Energetics <=

    Nuclear Repulsion Energy =            800.2627356434715011
    One-Electron Energy =               -2526.9416937863411476
    Two-Electron Energy =                1044.2443381643267912
    Total Energy =                       -682.4346199785429690
  Basis Set: (AUG-CC-PVTZ AUX)
    Blend: AUG-CC-PVTZ-RI
    Molecular point group: c1

    Geometry (in Angstrom), charge = 0, multiplicity = 1:

       Center              X                  Y                   Z               Mass
    ------------   -----------------  -----------------  -----------------  -----------------
         O            0.375890634316    -1.474045559990    -0.132965064954    15.994914619570
         O            1.393426634316     2.067033440010    -0.422983064954    15.994914619570
         O           -1.233421365684     2.351982440010     0.463065935046    15.994914619570
         O           -2.907683365684     0.060002440010    -0.171907064954    15.994914619570
         O            2.910685634316    -0.683846559990     0.953155935046    15.994914619570
         O           -1.675591365684    -2.354244559990     0.002171935046    15.994914619570
         C            0.677041634316     0.931902440010     0.066685935046    12.000000000000
         C           -0.792761365684     1.183517440010    -0.205427064954    12.000000000000
         C            1.118353634316    -0.332445559990    -0.648093064954    12.000000000000
         C           -1.588223365684     0.011239440010     0.325999935046    12.000000000000
         C            2.577818634316    -0.672329559990    -0.430153064954    12.000000000000
         C           -0.977138365684    -1.358212559990     0.008610935046    12.000000000000
         H            0.828594634316     0.809166440010     1.146249935046     1.007825032230
         H           -0.953457365684     1.264121440010    -1.292803064954     1.007825032230
         H            0.917212634316    -0.240320559990    -1.724467064954     1.007825032230
         H           -1.572816165684     0.106958740010     1.627423235046     1.007825032230
         H            3.199065634316     0.095768440010    -0.896996064954     1.007825032230
         H            2.800340634316    -1.633510559990    -0.911192064954     1.007825032230
         H            2.209488634316     2.141513440010     0.102496935046     1.007825032230
         H           -0.611305365684     3.051013440010     0.186120935046     1.007825032230
         H           -3.269741365684    -0.838193559990    -0.039146064954     1.007825032230
         H            2.406251634316    -1.416983559990     1.349268935046     1.007825032230

  Basis Set: AUG-CC-PVTZ
    Blend: AUG-CC-PVTZ
  Basis Set: (AUG-CC-PVTZ AUX)
    Blend: AUG-CC-PVTZ-JKFIT
	 Reference Energy          =    -682.4346199785429690 [Eh]
	 Singles Energy            =      -0.0000000000000000 [Eh]
	 Same-Spin Energy          =      -0.6630756292099982 [Eh]
	 Opposite-Spin Energy      =      -2.0130389191109819 [Eh]
	 Correlation Energy        =      -2.6761145483209798 [Eh]
	 Total Energy              =    -685.1107345268638937 [Eh]

	 ================> DF-SCS-MP2 Energies <==================
	-----------------------------------------------------------
	 SCS Same-Spin Scale       =       0.3333333333333333 [-]
	 SCS Opposite-Spin Scale   =       1.2000000000000000 [-]
	 SCS Same-Spin Energy      =      -0.2210252097366661 [Eh]
	 SCS Opposite-Spin Energy  =      -2.4156467029331781 [Eh]
	 SCS Correlation Energy    =      -2.6366719126698439 [Eh]
	 SCS Total Energy          =    -685.0712918912128089 [Eh]
	-----------------------------------------------------------

  Dipole Moment: [D]
     X:     3.3165      Y:     0.5946      Z:    -0.3652     Total:     3.3891

*** Psi4 exiting successfully. Buy a developer a beer!
