                               Psi4 1.4a3.dev225

  ==> Input File <==

--------------------------------------------------------------------------
#psi4
#
memory 32 gb

molecule  {
0 1
  O        0.3445260    -1.4915130    -0.1284710
  O        1.3620620     2.0495660    -0.4184890
  O       -1.2647860     2.3345150     0.4675600
  O       -2.9390480     0.0425350    -0.1674130
  O        2.8793210    -0.7013140     0.9576500
  O       -1.7069560    -2.3717120     0.0066660
  C        0.6456770     0.9144350     0.0711800
  C       -0.8241260     1.1660500    -0.2009330
  C        1.0869890    -0.3499130    -0.6435990
  C       -1.6195880    -0.0062280     0.3304940
  C        2.5464540    -0.6897970    -0.4256590
  C       -1.0085030    -1.3756800     0.0131050
  H        0.7972300     0.7916990     1.1507440
  H       -0.9877381     1.2481167    -1.3080411
  H        0.8858480    -0.2577880    -1.7199730
  H       -1.6065420     0.0748220     1.4324700
  H        3.1677010     0.0783010    -0.8925020
  H        2.7689760    -1.6509780    -0.9066980
  H        2.1781240     2.1240460     0.1069910
  H       -0.6426700     3.0335460     0.1906150
  H       -3.3011060    -0.8556610    -0.0346520
  H        2.3748870    -1.4344510     1.3537630
units angstrom
no_reorient  #important for SAPT in psi4, default
symmetry c1  #important for SAPT in psi4, default
}

set PROPERTIES_ORIGIN ["COM"]
properties('MP2/aug-cc-pvtz', properties = ['dipole'])
--------------------------------------------------------------------------

    Molecular point group: c1
  Charge       = 0
  Multiplicity = 1
  Basis Set: AUG-CC-PVTZ
    Blend: AUG-CC-PVTZ
  Basis Set: (AUG-CC-PVTZ AUX)
    Blend: AUG-CC-PVTZ-JKFIT

    Orbital Energies [Eh]
    ---------------------

    Doubly Occupied:

       1A    -20.629786     2A    -20.600669     3A    -20.587633
       4A    -20.575537     5A    -20.575306     6A    -20.569309
       7A    -11.407005     8A    -11.326227     9A    -11.321351
      10A    -11.314812    11A    -11.309641    12A    -11.307510
      13A     -1.477708    14A     -1.409390    15A     -1.399193
      16A     -1.383969    17A     -1.374962    18A     -1.362957
      19A     -1.097990    20A     -1.058212    21A     -0.956482
      22A     -0.875242    23A     -0.868313    24A     -0.800588
      25A     -0.762270    26A     -0.741801    27A     -0.720993
      28A     -0.707406    29A     -0.694751    30A     -0.686070
      31A     -0.662228    32A     -0.643583    33A     -0.628588
      34A     -0.617075    35A     -0.614530    36A     -0.590039
      37A     -0.582825    38A     -0.559900    39A     -0.541125
      40A     -0.534250    41A     -0.519617    42A     -0.504337
      43A     -0.484221    44A     -0.477918    45A     -0.471898
      46A     -0.464649    47A     -0.445190

  @DF-RHF Final Energy:  -682.45420742791396

   => Energetics <=

    Nuclear Repulsion Energy =            801.2350844433919974
    One-Electron Energy =               -2528.8884707809747852
    Two-Electron Energy =                1045.1991789096689445
    Total Energy =                       -682.4542074279138433
  Basis Set: (AUG-CC-PVTZ AUX)
    Blend: AUG-CC-PVTZ-RI
    Molecular point group: c1

    Geometry (in Angstrom), charge = 0, multiplicity = 1:

       Center              X                  Y                   Z               Mass
    ------------   -----------------  -----------------  -----------------  -----------------
         O            0.375920506052    -1.473970805084    -0.131724417427    15.994914619570
         O            1.393456506052     2.067108194916    -0.421742417427    15.994914619570
         O           -1.233391493948     2.352057194916     0.464306582573    15.994914619570
         O           -2.907653493948     0.060077194916    -0.170666417427    15.994914619570
         O            2.910715506052    -0.683771805084     0.954396582573    15.994914619570
         O           -1.675561493948    -2.354169805084     0.003412582573    15.994914619570
         C            0.677071506052     0.931977194916     0.067926582573    12.000000000000
         C           -0.792731493948     1.183592194916    -0.204186417427    12.000000000000
         C            1.118383506052    -0.332370805084    -0.646852417427    12.000000000000
         C           -1.588193493948     0.011314194916     0.327240582573    12.000000000000
         C            2.577848506052    -0.672254805084    -0.428912417427    12.000000000000
         C           -0.977108493948    -1.358137805084     0.009851582573    12.000000000000
         H            0.828624506052     0.809241194916     1.147490582573     1.007825032230
         H           -0.956343593948     1.265658894916    -1.311294517427     1.007825032230
         H            0.917242506052    -0.240245805084    -1.723226417427     1.007825032230
         H           -1.575147493948     0.092364194916     1.429216582573     1.007825032230
         H            3.199095506052     0.095843194916    -0.895755417427     1.007825032230
         H            2.800370506052    -1.633435805084    -0.909951417427     1.007825032230
         H            2.209518506052     2.141588194916     0.103737582573     1.007825032230
         H           -0.611275493948     3.051088194916     0.187361582573     1.007825032230
         H           -3.269711493948    -0.838118805084    -0.037905417427     1.007825032230
         H            2.406281506052    -1.416908805084     1.350509582573     1.007825032230

  Basis Set: AUG-CC-PVTZ
    Blend: AUG-CC-PVTZ
  Basis Set: (AUG-CC-PVTZ AUX)
    Blend: AUG-CC-PVTZ-JKFIT
	 Reference Energy          =    -682.4542074279139570 [Eh]
	 Singles Energy            =      -0.0000000000000000 [Eh]
	 Same-Spin Energy          =      -0.6625012559563943 [Eh]
	 Opposite-Spin Energy      =      -2.0109944095170760 [Eh]
	 Correlation Energy        =      -2.6734956654734701 [Eh]
	 Total Energy              =    -685.1277030933874812 [Eh]

	 ================> DF-SCS-MP2 Energies <==================
	-----------------------------------------------------------
	 SCS Same-Spin Scale       =       0.3333333333333333 [-]
	 SCS Opposite-Spin Scale   =       1.2000000000000000 [-]
	 SCS Same-Spin Energy      =      -0.2208337519854648 [Eh]
	 SCS Opposite-Spin Energy  =      -2.4131932914204910 [Eh]
	 SCS Correlation Energy    =      -2.6340270434059558 [Eh]
	 SCS Total Energy          =    -685.0882344713198790 [Eh]
	-----------------------------------------------------------

  Dipole Moment: [D]
     X:     3.3952      Y:     0.5770      Z:    -0.2542     Total:     3.4532

*** Psi4 exiting successfully. Buy a developer a beer!
