                               Psi4 1.4a3.dev225

  ==> Input File <==

--------------------------------------------------------------------------
#psi4
#
memory 32 gb

molecule  {
0 1
  O        0.3445260    -1.4915130    -0.1284710
  O        1.3620620     2.0495660    -0.4184890
  O       -1.2647860     2.3345150     0.4675600
  O       -2.9390480     0.0425350    -0.1674130
  O        2.8793210    -0.7013140     0.9576500
  O       -1.7069560    -2.3717120     0.0066660
  C        0.6456770     0.9144350     0.0711800
  C       -0.8047330     1.1627301    -0.1973427
  C        1.0869890    -0.3499130    -0.6435990
  C       -1.6195880    -0.0062280     0.3304940
  C        2.5464540    -0.6897970    -0.4256590
  C       -1.0085030    -1.3756800     0.0131050
  H        0.7972300     0.7916990     1.1507440
  H       -0.9848220     1.2466540    -1.2883090
  H        0.8858480    -0.2577880    -1.7199730
  H       -1.6065420     0.0748220     1.4324700
  H        3.1677010     0.0783010    -0.8925020
  H        2.7689760    -1.6509780    -0.9066980
  H        2.1781240     2.1240460     0.1069910
  H       -0.6426700     3.0335460     0.1906150
  H       -3.3011060    -0.8556610    -0.0346520
  H        2.3748870    -1.4344510     1.3537630
units angstrom
no_reorient  #important for SAPT in psi4, default
symmetry c1  #important for SAPT in psi4, default
}

set PROPERTIES_ORIGIN ["COM"]
properties('MP2/aug-cc-pvtz', properties = ['dipole'])
--------------------------------------------------------------------------

    Molecular point group: c1
  Charge       = 0
  Multiplicity = 1
  Basis Set: AUG-CC-PVTZ
    Blend: AUG-CC-PVTZ
  Basis Set: (AUG-CC-PVTZ AUX)
    Blend: AUG-CC-PVTZ-JKFIT

    Orbital Energies [Eh]
    ---------------------

    Doubly Occupied:

       1A    -20.629996     2A    -20.601003     3A    -20.587915
       4A    -20.575953     5A    -20.574498     6A    -20.569108
       7A    -11.406686     8A    -11.326815     9A    -11.321647
      10A    -11.314591    11A    -11.307870    12A    -11.307461
      13A     -1.477846    14A     -1.409728    15A     -1.398956
      16A     -1.384130    17A     -1.373985    18A     -1.361992
      19A     -1.100707    20A     -1.058356    21A     -0.958168
      22A     -0.875775    23A     -0.868415    24A     -0.801817
      25A     -0.762734    26A     -0.742332    27A     -0.720745
      28A     -0.707222    29A     -0.694638    30A     -0.686394
      31A     -0.662062    32A     -0.644119    33A     -0.629108
      34A     -0.616575    35A     -0.614245    36A     -0.590275
      37A     -0.583114    38A     -0.559607    39A     -0.541876
      40A     -0.533947    41A     -0.520504    42A     -0.504479
      43A     -0.484339    44A     -0.478116    45A     -0.471470
      46A     -0.465735    47A     -0.446813

  @DF-RHF Final Energy:  -682.45413414203142

   => Energetics <=

    Nuclear Repulsion Energy =            801.5273435833478288
    One-Electron Energy =               -2529.4552204110800631
    Two-Electron Energy =                1045.4737426857006994
    Total Energy =                       -682.4541341420315348
  Basis Set: (AUG-CC-PVTZ AUX)
    Blend: AUG-CC-PVTZ-RI
    Molecular point group: c1

    Geometry (in Angstrom), charge = 0, multiplicity = 1:

       Center              X                  Y                   Z               Mass
    ------------   -----------------  -----------------  -----------------  -----------------
         O            0.374596956980    -1.473738772112    -0.132078087207    15.994914619570
         O            1.392132956980     2.067340227888    -0.422096087207    15.994914619570
         O           -1.234715043020     2.352289227888     0.463952912793    15.994914619570
         O           -2.908977043020     0.060309227888    -0.171020087207    15.994914619570
         O            2.909391956980    -0.683539772112     0.954042912793    15.994914619570
         O           -1.676885043020    -2.353937772112     0.003058912793    15.994914619570
         C            0.675747956980     0.932209227888     0.067572912793    12.000000000000
         C           -0.774662043020     1.180504327888    -0.200949787207    12.000000000000
         C            1.117059956980    -0.332138772112    -0.647206087207    12.000000000000
         C           -1.589517043020     0.011546227888     0.326886912793    12.000000000000
         C            2.576524956980    -0.672022772112    -0.429266087207    12.000000000000
         C           -0.978432043020    -1.357905772112     0.009497912793    12.000000000000
         H            0.827300956980     0.809473227888     1.147136912793     1.007825032230
         H           -0.954751043020     1.264428227888    -1.291916087207     1.007825032230
         H            0.915918956980    -0.240013772112    -1.723580087207     1.007825032230
         H           -1.576471043020     0.092596227888     1.428862912793     1.007825032230
         H            3.197771956980     0.096075227888    -0.896109087207     1.007825032230
         H            2.799046956980    -1.633203772112    -0.910305087207     1.007825032230
         H            2.208194956980     2.141820227888     0.103383912793     1.007825032230
         H           -0.612599043020     3.051320227888     0.187007912793     1.007825032230
         H           -3.271035043020    -0.837886772112    -0.038259087207     1.007825032230
         H            2.404957956980    -1.416676772112     1.350155912793     1.007825032230

  Basis Set: AUG-CC-PVTZ
    Blend: AUG-CC-PVTZ
  Basis Set: (AUG-CC-PVTZ AUX)
    Blend: AUG-CC-PVTZ-JKFIT
	 Reference Energy          =    -682.4541341420314211 [Eh]
	 Singles Energy            =      -0.0000000000000000 [Eh]
	 Same-Spin Energy          =      -0.6625787735194199 [Eh]
	 Opposite-Spin Energy      =      -2.0110606998908658 [Eh]
	 Correlation Energy        =      -2.6736394734102857 [Eh]
	 Total Energy              =    -685.1277736154416971 [Eh]

	 ================> DF-SCS-MP2 Energies <==================
	-----------------------------------------------------------
	 SCS Same-Spin Scale       =       0.3333333333333333 [-]
	 SCS Opposite-Spin Scale   =       1.2000000000000000 [-]
	 SCS Same-Spin Energy      =      -0.2208595911731399 [Eh]
	 SCS Opposite-Spin Energy  =      -2.4132728398690388 [Eh]
	 SCS Correlation Energy    =      -2.6341324310421790 [Eh]
	 SCS Total Energy          =    -685.0882665730736107 [Eh]
	-----------------------------------------------------------

  Dipole Moment: [D]
     X:     3.4208      Y:     0.5501      Z:    -0.2649     Total:     3.4749

*** Psi4 exiting successfully. Buy a developer a beer!
