                               Psi4 1.4a3.dev225

  ==> Input File <==

--------------------------------------------------------------------------
#psi4
#
memory 32 gb

molecule  {
0 1
  O        0.3445260    -1.4915130    -0.1284710
  O        1.3620620     2.0495660    -0.4184890
  O       -1.2647860     2.3345150     0.4675600
  O       -2.9390480     0.0425350    -0.1674130
  O        2.8793210    -0.7013140     0.9576500
  O       -1.7069560    -2.3717120     0.0066660
  C        0.6456770     0.9144350     0.0711800
  C       -0.8241260     1.1660500    -0.2009330
  C        1.0869890    -0.3499130    -0.6435990
  C       -1.6195880    -0.0062280     0.3304940
  C        2.5464540    -0.6897970    -0.4256590
  C       -0.9886833    -1.3773768     0.0110311
  H        0.7972300     0.7916990     1.1507440
  H       -0.9848220     1.2466540    -1.2883090
  H        0.8858480    -0.2577880    -1.7199730
  H       -1.6065420     0.0748220     1.4324700
  H        3.1677010     0.0783010    -0.8925020
  H        2.7689760    -1.6509780    -0.9066980
  H        2.1781240     2.1240460     0.1069910
  H       -0.6426700     3.0335460     0.1906150
  H       -3.3011060    -0.8556610    -0.0346520
  H        2.3748870    -1.4344510     1.3537630
units angstrom
no_reorient  #important for SAPT in psi4, default
symmetry c1  #important for SAPT in psi4, default
}

set PROPERTIES_ORIGIN ["COM"]
properties('MP2/aug-cc-pvtz', properties = ['dipole'])
--------------------------------------------------------------------------

    Molecular point group: c1
  Charge       = 0
  Multiplicity = 1
  Basis Set: AUG-CC-PVTZ
    Blend: AUG-CC-PVTZ
  Basis Set: (AUG-CC-PVTZ AUX)
    Blend: AUG-CC-PVTZ-JKFIT

    Orbital Energies [Eh]
    ---------------------

    Doubly Occupied:

       1A    -20.634091     2A    -20.601547     3A    -20.589020
       4A    -20.574635     5A    -20.574607     6A    -20.565525
       7A    -11.406752     8A    -11.328791     9A    -11.320688
      10A    -11.315618    11A    -11.309105    12A    -11.306877
      13A     -1.483152    14A     -1.409661    15A     -1.397833
      16A     -1.385020    17A     -1.373314    18A     -1.360585
      19A     -1.100123    20A     -1.059112    21A     -0.955893
      22A     -0.875952    23A     -0.872051    24A     -0.803040
      25A     -0.762905    26A     -0.742814    27A     -0.721584
      28A     -0.707737    29A     -0.695551    30A     -0.686853
      31A     -0.662793    32A     -0.642773    33A     -0.629739
      34A     -0.618467    35A     -0.615915    36A     -0.589843
      37A     -0.583981    38A     -0.560417    39A     -0.541640
      40A     -0.533691    41A     -0.519891    42A     -0.502371
      43A     -0.482830    44A     -0.478579    45A     -0.471785
      46A     -0.464350    47A     -0.445030

  @DF-RHF Final Energy:  -682.45423204138410

   => Energetics <=

    Nuclear Repulsion Energy =            801.4522222635361004
    One-Electron Energy =               -2529.2838490339554482
    Two-Electron Energy =                1045.3773947290353590
    Total Energy =                       -682.4542320413841026
  Basis Set: (AUG-CC-PVTZ AUX)
    Blend: AUG-CC-PVTZ-RI
    Molecular point group: c1

    Geometry (in Angstrom), charge = 0, multiplicity = 1:

       Center              X                  Y                   Z               Mass
    ------------   -----------------  -----------------  -----------------  -----------------
         O            0.374568198400    -1.473848165246    -0.131696333410    15.994914619570
         O            1.392104198400     2.067230834754    -0.421714333410    15.994914619570
         O           -1.234743801600     2.352179834754     0.464334666590    15.994914619570
         O           -2.909005801600     0.060199834754    -0.170638333410    15.994914619570
         O            2.909363198400    -0.683649165246     0.954424666590    15.994914619570
         O           -1.676913801600    -2.354047165246     0.003440666590    15.994914619570
         C            0.675719198400     0.932099834754     0.067954666590    12.000000000000
         C           -0.794083801600     1.183714834754    -0.204158333410    12.000000000000
         C            1.117031198400    -0.332248165246    -0.646824333410    12.000000000000
         C           -1.589545801600     0.011436834754     0.327268666590    12.000000000000
         C            2.576496198400    -0.672132165246    -0.428884333410    12.000000000000
         C           -0.958641101600    -1.359711965246     0.007805766590    12.000000000000
         H            0.827272198400     0.809363834754     1.147518666590     1.007825032230
         H           -0.954779801600     1.264318834754    -1.291534333410     1.007825032230
         H            0.915890198400    -0.240123165246    -1.723198333410     1.007825032230
         H           -1.576499801600     0.092486834754     1.429244666590     1.007825032230
         H            3.197743198400     0.095965834754    -0.895727333410     1.007825032230
         H            2.799018198400    -1.633313165246    -0.909923333410     1.007825032230
         H            2.208166198400     2.141710834754     0.103765666590     1.007825032230
         H           -0.612627801600     3.051210834754     0.187389666590     1.007825032230
         H           -3.271063801600    -0.837996165246    -0.037877333410     1.007825032230
         H            2.404929198400    -1.416786165246     1.350537666590     1.007825032230

  Basis Set: AUG-CC-PVTZ
    Blend: AUG-CC-PVTZ
  Basis Set: (AUG-CC-PVTZ AUX)
    Blend: AUG-CC-PVTZ-JKFIT
	 Reference Energy          =    -682.4542320413841026 [Eh]
	 Singles Energy            =      -0.0000000000000000 [Eh]
	 Same-Spin Energy          =      -0.6625109969232327 [Eh]
	 Opposite-Spin Energy      =      -2.0108483113489508 [Eh]
	 Correlation Energy        =      -2.6733593082721834 [Eh]
	 Total Energy              =    -685.1275913496563135 [Eh]

	 ================> DF-SCS-MP2 Energies <==================
	-----------------------------------------------------------
	 SCS Same-Spin Scale       =       0.3333333333333333 [-]
	 SCS Opposite-Spin Scale   =       1.2000000000000000 [-]
	 SCS Same-Spin Energy      =      -0.2208369989744109 [Eh]
	 SCS Opposite-Spin Energy  =      -2.4130179736187407 [Eh]
	 SCS Correlation Energy    =      -2.6338549725931517 [Eh]
	 SCS Total Energy          =    -685.0880870139772014 [Eh]
	-----------------------------------------------------------

  Dipole Moment: [D]
     X:     3.5775      Y:     0.6081      Z:    -0.2889     Total:     3.6403

*** Psi4 exiting successfully. Buy a developer a beer!
