                               Psi4 1.4a3.dev225

  ==> Input File <==

--------------------------------------------------------------------------
#psi4
#
memory 32 gb

molecule  {
0 1
  O        0.3445260    -1.4915130    -0.1284710
  O        1.3620620     2.0495660    -0.4184890
  O       -1.2647860     2.3345150     0.4675600
  O       -2.9390480     0.0425350    -0.1674130
  O        2.8793210    -0.7013140     0.9576500
  O       -1.7069560    -2.3717120     0.0066660
  C        0.6456770     0.9144350     0.0711800
  C       -0.8241260     1.1660500    -0.2009330
  C        1.0869890    -0.3499130    -0.6435990
  C       -1.6195880    -0.0062280     0.3304940
  C        2.5464540    -0.6897970    -0.4256590
  C       -0.8936764    -1.2119310     0.0141636
  H        0.7972300     0.7916990     1.1507440
  H       -0.9848220     1.2466540    -1.2883090
  H        0.8858480    -0.2577880    -1.7199730
  H       -1.6065420     0.0748220     1.4324700
  H        3.1677010     0.0783010    -0.8925020
  H        2.7689760    -1.6509780    -0.9066980
  H        2.1781240     2.1240460     0.1069910
  H       -0.6426700     3.0335460     0.1906150
  H       -3.3011060    -0.8556610    -0.0346520
  H        2.3748870    -1.4344510     1.3537630
units angstrom
no_reorient  #important for SAPT in psi4, default
symmetry c1  #important for SAPT in psi4, default
}

set PROPERTIES_ORIGIN ["COM"]
properties('MP2/aug-cc-pvtz', properties = ['dipole'])
--------------------------------------------------------------------------

    Molecular point group: c1
  Charge       = 0
  Multiplicity = 1
  Basis Set: AUG-CC-PVTZ
    Blend: AUG-CC-PVTZ
  Basis Set: (AUG-CC-PVTZ AUX)
    Blend: AUG-CC-PVTZ-JKFIT

    Orbital Energies [Eh]
    ---------------------

    Doubly Occupied:

       1A    -20.667276     2A    -20.610945     3A    -20.597370
       4A    -20.580055     5A    -20.578599     6A    -20.531896
       7A    -11.418794     8A    -11.340356     9A    -11.327189
      10A    -11.326887    11A    -11.317653    12A    -11.313907
      13A     -1.523680    14A     -1.418203    15A     -1.398194
      16A     -1.391804    17A     -1.372213    18A     -1.264455
      19A     -1.120812    20A     -1.079773    21A     -0.974070
      22A     -0.892993    23A     -0.888141    24A     -0.819969
      25A     -0.776460    26A     -0.755422    27A     -0.728356
      28A     -0.716497    29A     -0.707484    30A     -0.687954
      31A     -0.675611    32A     -0.643043    33A     -0.630867
      34A     -0.628898    35A     -0.612101    36A     -0.594506
      37A     -0.576386    38A     -0.568177    39A     -0.546629
      40A     -0.537820    41A     -0.514510    42A     -0.494382
      43A     -0.484169    44A     -0.479555    45A     -0.463568
      46A     -0.439382    47A     -0.424454

  @DF-RHF Final Energy:  -682.38217436082732

   => Energetics <=

    Nuclear Repulsion Energy =            803.3940763524519753
    One-Electron Energy =               -2532.6695695961848287
    Two-Electron Energy =                1046.8933188829055325
    Total Energy =                       -682.3821743608273209
  Basis Set: (AUG-CC-PVTZ AUX)
    Blend: AUG-CC-PVTZ-RI
    Molecular point group: c1

    Geometry (in Angstrom), charge = 0, multiplicity = 1:

       Center              X                  Y                   Z               Mass
    ------------   -----------------  -----------------  -----------------  -----------------
         O            0.368164956143    -1.484998824175    -0.131907456564    15.994914619570
         O            1.385700956143     2.056080175825    -0.421925456564    15.994914619570
         O           -1.241147043857     2.341029175825     0.464123543436    15.994914619570
         O           -2.915409043857     0.049049175825    -0.170849456564    15.994914619570
         O            2.902959956143    -0.694799824175     0.954213543436    15.994914619570
         O           -1.683317043857    -2.365197824175     0.003229543436    15.994914619570
         C            0.669315956143     0.920949175825     0.067743543436    12.000000000000
         C           -0.800487043857     1.172564175825    -0.204369456564    12.000000000000
         C            1.110627956143    -0.343398824175    -0.647035456564    12.000000000000
         C           -1.595949043857     0.000286175825     0.327057543436    12.000000000000
         C            2.570092956143    -0.683282824175    -0.429095456564    12.000000000000
         C           -0.870037443857    -1.205416824175     0.010727143436    12.000000000000
         H            0.820868956143     0.798213175825     1.147307543436     1.007825032230
         H           -0.961183043857     1.253168175825    -1.291745456564     1.007825032230
         H            0.909486956143    -0.251273824175    -1.723409456564     1.007825032230
         H           -1.582903043857     0.081336175825     1.429033543436     1.007825032230
         H            3.191339956143     0.084815175825    -0.895938456564     1.007825032230
         H            2.792614956143    -1.644463824175    -0.910134456564     1.007825032230
         H            2.201762956143     2.130560175825     0.103554543436     1.007825032230
         H           -0.619031043857     3.040060175825     0.187178543436     1.007825032230
         H           -3.277467043857    -0.849146824175    -0.038088456564     1.007825032230
         H            2.398525956143    -1.427936824175     1.350326543436     1.007825032230

  Basis Set: AUG-CC-PVTZ
    Blend: AUG-CC-PVTZ
  Basis Set: (AUG-CC-PVTZ AUX)
    Blend: AUG-CC-PVTZ-JKFIT
	 Reference Energy          =    -682.3821743608273209 [Eh]
	 Singles Energy            =      -0.0000000000000000 [Eh]
	 Same-Spin Energy          =      -0.6690562694985797 [Eh]
	 Opposite-Spin Energy      =      -2.0232832890798615 [Eh]
	 Correlation Energy        =      -2.6923395585784413 [Eh]
	 Total Energy              =    -685.0745139194057174 [Eh]

	 ================> DF-SCS-MP2 Energies <==================
	-----------------------------------------------------------
	 SCS Same-Spin Scale       =       0.3333333333333333 [-]
	 SCS Opposite-Spin Scale   =       1.2000000000000000 [-]
	 SCS Same-Spin Energy      =      -0.2230187564995265 [Eh]
	 SCS Opposite-Spin Energy  =      -2.4279399468958336 [Eh]
	 SCS Correlation Energy    =      -2.6509587033953603 [Eh]
	 SCS Total Energy          =    -685.0331330642226249 [Eh]
	-----------------------------------------------------------

  Dipole Moment: [D]
     X:     4.4589      Y:     1.4670      Z:    -0.2654     Total:     4.7016

*** Psi4 exiting successfully. Buy a developer a beer!
