                               Psi4 1.4a3.dev225

  ==> Input File <==

--------------------------------------------------------------------------
#psi4
#
memory 32 gb

molecule  {
0 1
  O        0.3445260    -1.4915130    -0.1284710
  O        1.3620620     2.0495660    -0.4184890
  O       -1.2647860     2.3345150     0.4675600
  O       -2.9390480     0.0425350    -0.1674130
  O        2.8793210    -0.7013140     0.9576500
  O       -1.7069560    -2.3717120     0.0066660
  C        0.6456770     0.9144350     0.0711800
  C       -0.8130879     1.1691033    -0.2525876
  C        1.0869890    -0.3499130    -0.6435990
  C       -1.6195880    -0.0062280     0.3304940
  C        2.5464540    -0.6897970    -0.4256590
  C       -1.0085030    -1.3756800     0.0131050
  H        0.7972300     0.7916990     1.1507440
  H       -0.9848220     1.2466540    -1.2883090
  H        0.8858480    -0.2577880    -1.7199730
  H       -1.6065420     0.0748220     1.4324700
  H        3.1677010     0.0783010    -0.8925020
  H        2.7689760    -1.6509780    -0.9066980
  H        2.1781240     2.1240460     0.1069910
  H       -0.6426700     3.0335460     0.1906150
  H       -3.3011060    -0.8556610    -0.0346520
  H        2.3748870    -1.4344510     1.3537630
units angstrom
no_reorient  #important for SAPT in psi4, default
symmetry c1  #important for SAPT in psi4, default
}

set PROPERTIES_ORIGIN ["COM"]
properties('MP2/aug-cc-pvtz', properties = ['dipole'])
--------------------------------------------------------------------------

    Molecular point group: c1
  Charge       = 0
  Multiplicity = 1
  Basis Set: AUG-CC-PVTZ
    Blend: AUG-CC-PVTZ
  Basis Set: (AUG-CC-PVTZ AUX)
    Blend: AUG-CC-PVTZ-JKFIT

    Orbital Energies [Eh]
    ---------------------

    Doubly Occupied:

       1A    -20.629706     2A    -20.600082     3A    -20.587926
       4A    -20.575045     5A    -20.572997     6A    -20.568699
       7A    -11.405751     8A    -11.326175     9A    -11.321968
      10A    -11.315181    11A    -11.307527    12A    -11.305854
      13A     -1.477436    14A     -1.407967    15A     -1.397948
      16A     -1.383816    17A     -1.371601    18A     -1.358181
      19A     -1.097692    20A     -1.056049    21A     -0.955834
      22A     -0.879069    23A     -0.867325    24A     -0.803756
      25A     -0.760745    26A     -0.741867    27A     -0.719064
      28A     -0.708567    29A     -0.692653    30A     -0.685374
      31A     -0.660324    32A     -0.644992    33A     -0.629080
      34A     -0.616643    35A     -0.611169    36A     -0.588367
      37A     -0.583274    38A     -0.559832    39A     -0.541112
      40A     -0.533356    41A     -0.518843    42A     -0.504161
      43A     -0.483242    44A     -0.480262    45A     -0.476111
      46A     -0.464678    47A     -0.444260

  @DF-RHF Final Energy:  -682.45114850789923

   => Energetics <=

    Nuclear Repulsion Energy =            800.9314647380743963
    One-Electron Energy =               -2528.3221084679667001
    Two-Electron Energy =                1044.9394952219931838
    Total Energy =                       -682.4511485078992337
  Basis Set: (AUG-CC-PVTZ AUX)
    Blend: AUG-CC-PVTZ-RI
    Molecular point group: c1

    Geometry (in Angstrom), charge = 0, multiplicity = 1:

       Center              X                  Y                   Z               Mass
    ------------   -----------------  -----------------  -----------------  -----------------
         O            0.375160057647    -1.474168310846    -0.128354710503    15.994914619570
         O            1.392696057647     2.066910689154    -0.418372710503    15.994914619570
         O           -1.234151942353     2.351859689154     0.467676289497    15.994914619570
         O           -2.908413942353     0.059879689154    -0.167296710503    15.994914619570
         O            2.909955057647    -0.683969310846     0.957766289497    15.994914619570
         O           -1.676321942353    -2.354367310846     0.006782289497    15.994914619570
         C            0.676311057647     0.931779689154     0.071296289497    12.000000000000
         C           -0.782453842353     1.186447989154    -0.252471310503    12.000000000000
         C            1.117623057647    -0.332568310846    -0.643482710503    12.000000000000
         C           -1.588953942353     0.011116689154     0.330610289497    12.000000000000
         C            2.577088057647    -0.672452310846    -0.425542710503    12.000000000000
         C           -0.977868942353    -1.358335310846     0.013221289497    12.000000000000
         H            0.827864057647     0.809043689154     1.150860289497     1.007825032230
         H           -0.954187942353     1.263998689154    -1.288192710503     1.007825032230
         H            0.916482057647    -0.240443310846    -1.719856710503     1.007825032230
         H           -1.575907942353     0.092166689154     1.432586289497     1.007825032230
         H            3.198335057647     0.095645689154    -0.892385710503     1.007825032230
         H            2.799610057647    -1.633633310846    -0.906581710503     1.007825032230
         H            2.208758057647     2.141390689154     0.107107289497     1.007825032230
         H           -0.612035942353     3.050890689154     0.190731289497     1.007825032230
         H           -3.270471942353    -0.838316310846    -0.034535710503     1.007825032230
         H            2.405521057647    -1.417106310846     1.353879289497     1.007825032230

  Basis Set: AUG-CC-PVTZ
    Blend: AUG-CC-PVTZ
  Basis Set: (AUG-CC-PVTZ AUX)
    Blend: AUG-CC-PVTZ-JKFIT
	 Reference Energy          =    -682.4511485078992337 [Eh]
	 Singles Energy            =      -0.0000000000000000 [Eh]
	 Same-Spin Energy          =      -0.6623762088103274 [Eh]
	 Opposite-Spin Energy      =      -2.0113180221380889 [Eh]
	 Correlation Energy        =      -2.6736942309484162 [Eh]
	 Total Energy              =    -685.1248427388476330 [Eh]

	 ================> DF-SCS-MP2 Energies <==================
	-----------------------------------------------------------
	 SCS Same-Spin Scale       =       0.3333333333333333 [-]
	 SCS Opposite-Spin Scale   =       1.2000000000000000 [-]
	 SCS Same-Spin Energy      =      -0.2207920696034425 [Eh]
	 SCS Opposite-Spin Energy  =      -2.4135816265657066 [Eh]
	 SCS Correlation Energy    =      -2.6343736961691491 [Eh]
	 SCS Total Energy          =    -685.0855222040684112 [Eh]
	-----------------------------------------------------------

  Dipole Moment: [D]
     X:     3.4104      Y:     0.5336      Z:    -0.3354     Total:     3.4682

*** Psi4 exiting successfully. Buy a developer a beer!
