                               Psi4 1.4a3.dev225

  ==> Input File <==

--------------------------------------------------------------------------
#psi4
#
memory 32 gb

molecule  {
0 1
  O        0.3445260    -1.4915130    -0.1284710
  O        1.3620620     2.0495660    -0.4184890
  O       -1.2647860     2.3345150     0.4675600
  O       -2.9390480     0.0425350    -0.1674130
  O        2.8793210    -0.7013140     0.9576500
  O       -1.7069560    -2.3717120     0.0066660
  C        0.6456770     0.9144350     0.0711800
  C       -0.7856954     1.1742758    -0.3546511
  C        1.0869890    -0.3499130    -0.6435990
  C       -1.6195880    -0.0062280     0.3304940
  C        2.5464540    -0.6897970    -0.4256590
  C       -1.0085030    -1.3756800     0.0131050
  H        0.7972300     0.7916990     1.1507440
  H       -0.9848220     1.2466540    -1.2883090
  H        0.8858480    -0.2577880    -1.7199730
  H       -1.6065420     0.0748220     1.4324700
  H        3.1677010     0.0783010    -0.8925020
  H        2.7689760    -1.6509780    -0.9066980
  H        2.1781240     2.1240460     0.1069910
  H       -0.6426700     3.0335460     0.1906150
  H       -3.3011060    -0.8556610    -0.0346520
  H        2.3748870    -1.4344510     1.3537630
units angstrom
no_reorient  #important for SAPT in psi4, default
symmetry c1  #important for SAPT in psi4, default
}

set PROPERTIES_ORIGIN ["COM"]
properties('MP2/aug-cc-pvtz', properties = ['dipole'])
--------------------------------------------------------------------------

    Molecular point group: c1
  Charge       = 0
  Multiplicity = 1
  Basis Set: AUG-CC-PVTZ
    Blend: AUG-CC-PVTZ
  Basis Set: (AUG-CC-PVTZ AUX)
    Blend: AUG-CC-PVTZ-JKFIT

    Orbital Energies [Eh]
    ---------------------

    Doubly Occupied:

       1A    -20.629691     2A    -20.599257     3A    -20.588663
       4A    -20.574212     5A    -20.569573     6A    -20.567638
       7A    -11.403591     8A    -11.326268     9A    -11.324538
      10A    -11.317884    11A    -11.307664    12A    -11.304934
      13A     -1.477051    14A     -1.406981    15A     -1.396274
      16A     -1.383779    17A     -1.368325    18A     -1.343849
      19A     -1.098013    20A     -1.052215    21A     -0.955115
      22A     -0.889982    23A     -0.866323    24A     -0.806730
      25A     -0.758082    26A     -0.743008    27A     -0.716771
      28A     -0.711532    29A     -0.691798    30A     -0.681053
      31A     -0.656755    32A     -0.647028    33A     -0.629642
      34A     -0.619488    35A     -0.606280    36A     -0.584386
      37A     -0.580062    38A     -0.560314    39A     -0.539626
      40A     -0.531976    41A     -0.516516    42A     -0.503937
      43A     -0.490404    44A     -0.478409    45A     -0.473744
      46A     -0.461386    47A     -0.441983

  @DF-RHF Final Energy:  -682.42125834591070

   => Energetics <=

    Nuclear Repulsion Energy =            800.0540604506941236
    One-Electron Energy =               -2526.5851735062910848
    Two-Electron Energy =                1044.1098547096862603
    Total Energy =                       -682.4212583459107009
  Basis Set: (AUG-CC-PVTZ AUX)
    Blend: AUG-CC-PVTZ-RI
    Molecular point group: c1

    Geometry (in Angstrom), charge = 0, multiplicity = 1:

       Center              X                  Y                   Z               Mass
    ------------   -----------------  -----------------  -----------------  -----------------
         O            0.373313867385    -1.474516925216    -0.121475869955    15.994914619570
         O            1.390849867385     2.066562074784    -0.411493869955    15.994914619570
         O           -1.235998132615     2.351511074784     0.474555130045    15.994914619570
         O           -2.910260132615     0.059531074784    -0.160417869955    15.994914619570
         O            2.908108867385    -0.684317925216     0.964645130045    15.994914619570
         O           -1.678168132615    -2.354715925216     0.013661130045    15.994914619570
         C            0.674464867385     0.931431074784     0.078175130045    12.000000000000
         C           -0.756907532615     1.191271874784    -0.347655969955    12.000000000000
         C            1.115776867385    -0.332916925216    -0.636603869955    12.000000000000
         C           -1.590800132615     0.010768074784     0.337489130045    12.000000000000
         C            2.575241867385    -0.672800925216    -0.418663869955    12.000000000000
         C           -0.979715132615    -1.358683925216     0.020100130045    12.000000000000
         H            0.826017867385     0.808695074784     1.157739130045     1.007825032230
         H           -0.956034132615     1.263650074784    -1.281313869955     1.007825032230
         H            0.914635867385    -0.240791925216    -1.712977869955     1.007825032230
         H           -1.577754132615     0.091818074784     1.439465130045     1.007825032230
         H            3.196488867385     0.095297074784    -0.885506869955     1.007825032230
         H            2.797763867385    -1.633981925216    -0.899702869955     1.007825032230
         H            2.206911867385     2.141042074784     0.113986130045     1.007825032230
         H           -0.613882132615     3.050542074784     0.197610130045     1.007825032230
         H           -3.272318132615    -0.838664925216    -0.027656869955     1.007825032230
         H            2.403674867385    -1.417454925216     1.360758130045     1.007825032230

  Basis Set: AUG-CC-PVTZ
    Blend: AUG-CC-PVTZ
  Basis Set: (AUG-CC-PVTZ AUX)
    Blend: AUG-CC-PVTZ-JKFIT
	 Reference Energy          =    -682.4212583459107009 [Eh]
	 Singles Energy            =      -0.0000000000000000 [Eh]
	 Same-Spin Energy          =      -0.6627655814933280 [Eh]
	 Opposite-Spin Energy      =      -2.0137416129234551 [Eh]
	 Correlation Energy        =      -2.6765071944167831 [Eh]
	 Total Energy              =    -685.0977655403274866 [Eh]

	 ================> DF-SCS-MP2 Energies <==================
	-----------------------------------------------------------
	 SCS Same-Spin Scale       =       0.3333333333333333 [-]
	 SCS Opposite-Spin Scale   =       1.2000000000000000 [-]
	 SCS Same-Spin Energy      =      -0.2209218604977760 [Eh]
	 SCS Opposite-Spin Energy  =      -2.4164899355081459 [Eh]
	 SCS Correlation Energy    =      -2.6374117960059218 [Eh]
	 SCS Total Energy          =    -685.0586701419166502 [Eh]
	-----------------------------------------------------------

  Dipole Moment: [D]
     X:     3.4496      Y:     0.4549      Z:    -0.4366     Total:     3.5067

*** Psi4 exiting successfully. Buy a developer a beer!
