                               Psi4 1.4a3.dev225

  ==> Input File <==

--------------------------------------------------------------------------
#psi4
#
memory 32 gb

molecule  {
0 1
  O        0.3445260    -1.4915130    -0.1284710
  O        1.3620620     2.0495660    -0.4184890
  O       -1.2647860     2.3345150     0.4675600
  O       -2.9390480     0.0425350    -0.1674130
  O        2.8793210    -0.7013140     0.9576500
  O       -1.7069560    -2.3717120     0.0066660
  C        0.6456770     0.9144350     0.0711800
  C       -0.8408188     1.1590278    -0.0966925
  C        1.0869890    -0.3499130    -0.6435990
  C       -1.6195880    -0.0062280     0.3304940
  C        2.5464540    -0.6897970    -0.4256590
  C       -1.0085030    -1.3756800     0.0131050
  H        0.7972300     0.7916990     1.1507440
  H       -0.9848220     1.2466540    -1.2883090
  H        0.8858480    -0.2577880    -1.7199730
  H       -1.6065420     0.0748220     1.4324700
  H        3.1677010     0.0783010    -0.8925020
  H        2.7689760    -1.6509780    -0.9066980
  H        2.1781240     2.1240460     0.1069910
  H       -0.6426700     3.0335460     0.1906150
  H       -3.3011060    -0.8556610    -0.0346520
  H        2.3748870    -1.4344510     1.3537630
units angstrom
no_reorient  #important for SAPT in psi4, default
symmetry c1  #important for SAPT in psi4, default
}

set PROPERTIES_ORIGIN ["COM"]
properties('MP2/aug-cc-pvtz', properties = ['dipole'])
--------------------------------------------------------------------------

    Molecular point group: c1
  Charge       = 0
  Multiplicity = 1
  Basis Set: AUG-CC-PVTZ
    Blend: AUG-CC-PVTZ
  Basis Set: (AUG-CC-PVTZ AUX)
    Blend: AUG-CC-PVTZ-JKFIT

    Orbital Energies [Eh]
    ---------------------

    Doubly Occupied:

       1A    -20.630114     2A    -20.602125     3A    -20.587200
       4A    -20.579476     5A    -20.576738     6A    -20.570552
       7A    -11.409626     8A    -11.326730     9A    -11.320761
      10A    -11.315120    11A    -11.312575    12A    -11.307659
      13A     -1.478409    14A     -1.415956    15A     -1.401858
      16A     -1.385514    17A     -1.381883    18A     -1.367145
      19A     -1.101148    20A     -1.063228    21A     -0.958356
      22A     -0.875745    23A     -0.870800    24A     -0.796590
      25A     -0.765421    26A     -0.743270    27A     -0.726761
      28A     -0.708582    29A     -0.701353    30A     -0.686490
      31A     -0.665692    32A     -0.643067    33A     -0.629083
      34A     -0.628079    35A     -0.613518    36A     -0.592021
      37A     -0.583161    38A     -0.561771    39A     -0.540562
      40A     -0.536345    41A     -0.520398    42A     -0.504908
      43A     -0.487627    44A     -0.477683    45A     -0.469982
      46A     -0.451255    47A     -0.441662

  @DF-RHF Final Energy:  -682.44345952282083

   => Energetics <=

    Nuclear Repulsion Energy =            802.1220043470455039
    One-Electron Energy =               -2530.5029233041891530
    Two-Electron Energy =                1045.9374594343228182
    Total Energy =                       -682.4434595228208309
  Basis Set: (AUG-CC-PVTZ AUX)
    Blend: AUG-CC-PVTZ-RI
    Molecular point group: c1

    Geometry (in Angstrom), charge = 0, multiplicity = 1:

       Center              X                  Y                   Z               Mass
    ------------   -----------------  -----------------  -----------------  -----------------
         O            0.377029055274    -1.473489245775    -0.138861674650    15.994914619570
         O            1.394565055274     2.067589754225    -0.428879674650    15.994914619570
         O           -1.232282944726     2.352538754225     0.457169325350    15.994914619570
         O           -2.906544944726     0.060558754225    -0.177803674650    15.994914619570
         O            2.911824055274    -0.683290245775     0.947259325350    15.994914619570
         O           -1.674452944726    -2.353688245775    -0.003724674650    15.994914619570
         C            0.678180055274     0.932458754225     0.060789325350    12.000000000000
         C           -0.808315744726     1.177051554225    -0.107083174650    12.000000000000
         C            1.119492055274    -0.331889245775    -0.653989674650    12.000000000000
         C           -1.587084944726     0.011795754225     0.320103325350    12.000000000000
         C            2.578957055274    -0.671773245775    -0.436049674650    12.000000000000
         C           -0.975999944726    -1.357656245775     0.002714325350    12.000000000000
         H            0.829733055274     0.809722754225     1.140353325350     1.007825032230
         H           -0.952318944726     1.264677754225    -1.298699674650     1.007825032230
         H            0.918351055274    -0.239764245775    -1.730363674650     1.007825032230
         H           -1.574038944726     0.092845754225     1.422079325350     1.007825032230
         H            3.200204055274     0.096324754225    -0.902892674650     1.007825032230
         H            2.801479055274    -1.632954245775    -0.917088674650     1.007825032230
         H            2.210627055274     2.142069754225     0.096600325350     1.007825032230
         H           -0.610166944726     3.051569754225     0.180224325350     1.007825032230
         H           -3.268602944726    -0.837637245775    -0.045042674650     1.007825032230
         H            2.407390055274    -1.416427245775     1.343372325350     1.007825032230

  Basis Set: AUG-CC-PVTZ
    Blend: AUG-CC-PVTZ
  Basis Set: (AUG-CC-PVTZ AUX)
    Blend: AUG-CC-PVTZ-JKFIT
	 Reference Energy          =    -682.4434595228208309 [Eh]
	 Singles Energy            =      -0.0000000000000000 [Eh]
	 Same-Spin Energy          =      -0.6630923074866638 [Eh]
	 Opposite-Spin Energy      =      -2.0110895439879757 [Eh]
	 Correlation Energy        =      -2.6741818514746396 [Eh]
	 Total Energy              =    -685.1176413742954310 [Eh]

	 ================> DF-SCS-MP2 Energies <==================
	-----------------------------------------------------------
	 SCS Same-Spin Scale       =       0.3333333333333333 [-]
	 SCS Opposite-Spin Scale   =       1.2000000000000000 [-]
	 SCS Same-Spin Energy      =      -0.2210307691622213 [Eh]
	 SCS Opposite-Spin Energy  =      -2.4133074527855709 [Eh]
	 SCS Correlation Energy    =      -2.6343382219477922 [Eh]
	 SCS Total Energy          =    -685.0777977447686453 [Eh]
	-----------------------------------------------------------

  Dipole Moment: [D]
     X:     3.3804      Y:     0.6517      Z:    -0.0801     Total:     3.4436

*** Psi4 exiting successfully. Buy a developer a beer!
