                               Psi4 1.4a3.dev225

  ==> Input File <==

--------------------------------------------------------------------------
#psi4
#
memory 32 gb

molecule  {
0 1
  O        0.3445260    -1.4915130    -0.1284710
  O        1.3620620     2.0495660    -0.4184890
  O       -1.2647860     2.3345150     0.4675600
  O       -2.9390480     0.0425350    -0.1674130
  O        2.8793210    -0.7013140     0.9576500
  O       -1.7069560    -2.3717120     0.0066660
  C        0.6456770     0.9144350     0.0711800
  C       -0.8241260     1.1660500    -0.2009330
  C        1.0869890    -0.3499130    -0.6435990
  C       -1.6195880    -0.0062280     0.3304940
  C        2.5464540    -0.6897970    -0.4256590
  C       -1.0085030    -1.3756800     0.0131050
  H        0.7972300     0.7916990     1.1507440
  H       -0.9848220     1.2466540    -1.2883090
  H        0.8950001    -0.2619798    -1.6709968
  H       -1.6065420     0.0748220     1.4324700
  H        3.1677010     0.0783010    -0.8925020
  H        2.7689760    -1.6509780    -0.9066980
  H        2.1781240     2.1240460     0.1069910
  H       -0.6426700     3.0335460     0.1906150
  H       -3.3011060    -0.8556610    -0.0346520
  H        2.3748870    -1.4344510     1.3537630
units angstrom
no_reorient  #important for SAPT in psi4, default
symmetry c1  #important for SAPT in psi4, default
}

set PROPERTIES_ORIGIN ["COM"]
properties('MP2/aug-cc-pvtz', properties = ['dipole'])
--------------------------------------------------------------------------

    Molecular point group: c1
  Charge       = 0
  Multiplicity = 1
  Basis Set: AUG-CC-PVTZ
    Blend: AUG-CC-PVTZ
  Basis Set: (AUG-CC-PVTZ AUX)
    Blend: AUG-CC-PVTZ-JKFIT

    Orbital Energies [Eh]
    ---------------------

    Doubly Occupied:

       1A    -20.629245     2A    -20.600646     3A    -20.587310
       4A    -20.575503     5A    -20.574931     6A    -20.569026
       7A    -11.406776     8A    -11.321104     9A    -11.320446
      10A    -11.314192    11A    -11.307377    12A    -11.307237
      13A     -1.477476    14A     -1.409360    15A     -1.399045
      16A     -1.383740    17A     -1.374774    18A     -1.362809
      19A     -1.099424    20A     -1.059691    21A     -0.956366
      22A     -0.877035    23A     -0.869185    24A     -0.805521
      25A     -0.762531    26A     -0.742283    27A     -0.721524
      28A     -0.709353    29A     -0.695264    30A     -0.686588
      31A     -0.662635    32A     -0.643904    33A     -0.628534
      34A     -0.616952    35A     -0.614962    36A     -0.590399
      37A     -0.585877    38A     -0.560184    39A     -0.541111
      40A     -0.534299    41A     -0.519964    42A     -0.504186
      43A     -0.484724    44A     -0.478515    45A     -0.472658
      46A     -0.464942    47A     -0.444994

  @DF-RHF Final Energy:  -682.45420180642009

   => Energetics <=

    Nuclear Repulsion Energy =            801.6592470384355238
    One-Electron Energy =               -2529.7176907647776716
    Two-Electron Energy =                1045.6042419199220603
    Total Energy =                       -682.4542018064200875
  Basis Set: (AUG-CC-PVTZ AUX)
    Blend: AUG-CC-PVTZ-RI
    Molecular point group: c1

    Geometry (in Angstrom), charge = 0, multiplicity = 1:

       Center              X                  Y                   Z               Mass
    ------------   -----------------  -----------------  -----------------  -----------------
         O            0.375852194968    -1.473938798237    -0.132113335284    15.994914619570
         O            1.393388194968     2.067140201763    -0.422131335284    15.994914619570
         O           -1.233459805032     2.352089201763     0.463917664716    15.994914619570
         O           -2.907721805032     0.060109201763    -0.171055335284    15.994914619570
         O            2.910647194968    -0.683739798237     0.954007664716    15.994914619570
         O           -1.675629805032    -2.354137798237     0.003023664716    15.994914619570
         C            0.677003194968     0.932009201763     0.067537664716    12.000000000000
         C           -0.792799805032     1.183624201763    -0.204575335284    12.000000000000
         C            1.118315194968    -0.332338798237    -0.647241335284    12.000000000000
         C           -1.588261805032     0.011346201763     0.326851664716    12.000000000000
         C            2.577780194968    -0.672222798237    -0.429301335284    12.000000000000
         C           -0.977176805032    -1.358105798237     0.009462664716    12.000000000000
         H            0.828556194968     0.809273201763     1.147101664716     1.007825032230
         H           -0.953495805032     1.264228201763    -1.291951335284     1.007825032230
         H            0.926326294968    -0.244405598237    -1.674639135284     1.007825032230
         H           -1.575215805032     0.092396201763     1.428827664716     1.007825032230
         H            3.199027194968     0.095875201763    -0.896144335284     1.007825032230
         H            2.800302194968    -1.633403798237    -0.910340335284     1.007825032230
         H            2.209450194968     2.141620201763     0.103348664716     1.007825032230
         H           -0.611343805032     3.051120201763     0.186972664716     1.007825032230
         H           -3.269779805032    -0.838086798237    -0.038294335284     1.007825032230
         H            2.406213194968    -1.416876798237     1.350120664716     1.007825032230

  Basis Set: AUG-CC-PVTZ
    Blend: AUG-CC-PVTZ
  Basis Set: (AUG-CC-PVTZ AUX)
    Blend: AUG-CC-PVTZ-JKFIT
	 Reference Energy          =    -682.4542018064200875 [Eh]
	 Singles Energy            =      -0.0000000000000000 [Eh]
	 Same-Spin Energy          =      -0.6623361011142676 [Eh]
	 Opposite-Spin Energy      =      -2.0103977206456136 [Eh]
	 Correlation Energy        =      -2.6727338217598811 [Eh]
	 Total Energy              =    -685.1269356281799219 [Eh]

	 ================> DF-SCS-MP2 Energies <==================
	-----------------------------------------------------------
	 SCS Same-Spin Scale       =       0.3333333333333333 [-]
	 SCS Opposite-Spin Scale   =       1.2000000000000000 [-]
	 SCS Same-Spin Energy      =      -0.2207787003714225 [Eh]
	 SCS Opposite-Spin Energy  =      -2.4124772647747363 [Eh]
	 SCS Correlation Energy    =      -2.6332559651461587 [Eh]
	 SCS Total Energy          =    -685.0874577715662781 [Eh]
	-----------------------------------------------------------

  Dipole Moment: [D]
     X:     3.4022      Y:     0.5806      Z:    -0.2865     Total:     3.4633

*** Psi4 exiting successfully. Buy a developer a beer!
