                               Psi4 1.4a3.dev225

  ==> Input File <==

--------------------------------------------------------------------------
#psi4
#
memory 32 gb

molecule  {
0 1
  O        0.3445260    -1.4915130    -0.1284710
  O        1.3620620     2.0495660    -0.4184890
  O       -1.2647860     2.3345150     0.4675600
  O       -2.9390480     0.0425350    -0.1674130
  O        2.8793210    -0.7013140     0.9576500
  O       -1.7069560    -2.3717120     0.0066660
  C        0.6456770     0.9144350     0.0711800
  C       -0.8241260     1.1660500    -0.2009330
  C        1.0869890    -0.3499130    -0.6435990
  C       -1.6195880    -0.0062280     0.3304940
  C        2.5464540    -0.6897970    -0.4256590
  C       -1.0164763    -1.3578117     0.0172462
  H        0.7972300     0.7916990     1.1507440
  H       -0.9848220     1.2466540    -1.2883090
  H        0.8858480    -0.2577880    -1.7199730
  H       -1.6065420     0.0748220     1.4324700
  H        3.1677010     0.0783010    -0.8925020
  H        2.7689760    -1.6509780    -0.9066980
  H        2.1781240     2.1240460     0.1069910
  H       -0.6426700     3.0335460     0.1906150
  H       -3.3011060    -0.8556610    -0.0346520
  H        2.3748870    -1.4344510     1.3537630
units angstrom
no_reorient  #important for SAPT in psi4, default
symmetry c1  #important for SAPT in psi4, default
}

set PROPERTIES_ORIGIN ["COM"]
properties('MP2/aug-cc-pvtz', properties = ['dipole'])
--------------------------------------------------------------------------

    Molecular point group: c1
  Charge       = 0
  Multiplicity = 1
  Basis Set: AUG-CC-PVTZ
    Blend: AUG-CC-PVTZ
  Basis Set: (AUG-CC-PVTZ AUX)
    Blend: AUG-CC-PVTZ-JKFIT

    Orbital Energies [Eh]
    ---------------------

    Doubly Occupied:

       1A    -20.629504     2A    -20.600836     3A    -20.587311
       4A    -20.576789     5A    -20.575733     6A    -20.569380
       7A    -11.408670     8A    -11.325339     9A    -11.322190
      10A    -11.314897    11A    -11.308518    12A    -11.307083
      13A     -1.473832    14A     -1.409372    15A     -1.398393
      16A     -1.384002    17A     -1.373092    18A     -1.361652
      19A     -1.098736    20A     -1.059998    21A     -0.958966
      22A     -0.879007    23A     -0.866671    24A     -0.801688
      25A     -0.762679    26A     -0.742228    27A     -0.721030
      28A     -0.708407    29A     -0.694689    30A     -0.684875
      31A     -0.662142    32A     -0.643429    33A     -0.628343
      34A     -0.616599    35A     -0.614611    36A     -0.590853
      37A     -0.581677    38A     -0.560343    39A     -0.541530
      40A     -0.534085    41A     -0.519608    42A     -0.502743
      43A     -0.485120    44A     -0.477647    45A     -0.472342
      46A     -0.465986    47A     -0.446998

  @DF-RHF Final Energy:  -682.45248241690979

   => Energetics <=

    Nuclear Repulsion Energy =            801.4159486951563167
    One-Electron Energy =               -2529.2376160129279015
    Two-Electron Energy =                1045.3691849008619101
    Total Energy =                       -682.4524824169097883
  Basis Set: (AUG-CC-PVTZ AUX)
    Blend: AUG-CC-PVTZ-RI
    Molecular point group: c1

    Geometry (in Angstrom), charge = 0, multiplicity = 1:

       Center              X                  Y                   Z               Mass
    ------------   -----------------  -----------------  -----------------  -----------------
         O            0.376441381422    -1.475166807103    -0.132115216575    15.994914619570
         O            1.393977381422     2.065912192897    -0.422133216575    15.994914619570
         O           -1.232870618578     2.350861192897     0.463915783425    15.994914619570
         O           -2.907132618578     0.058881192897    -0.171057216575    15.994914619570
         O            2.911236381422    -0.684967807103     0.954005783425    15.994914619570
         O           -1.675040618578    -2.355365807103     0.003021783425    15.994914619570
         C            0.677592381422     0.930781192897     0.067535783425    12.000000000000
         C           -0.792210618578     1.182396192897    -0.204577216575    12.000000000000
         C            1.118904381422    -0.333566807103    -0.647243216575    12.000000000000
         C           -1.587672618578     0.010118192897     0.326849783425    12.000000000000
         C            2.578369381422    -0.673450807103    -0.429303216575    12.000000000000
         C           -0.984560918578    -1.341465507103     0.013601983425    12.000000000000
         H            0.829145381422     0.808045192897     1.147099783425     1.007825032230
         H           -0.952906618578     1.263000192897    -1.291953216575     1.007825032230
         H            0.917763381422    -0.241441807103    -1.723617216575     1.007825032230
         H           -1.574626618578     0.091168192897     1.428825783425     1.007825032230
         H            3.199616381422     0.094647192897    -0.896146216575     1.007825032230
         H            2.800891381422    -1.634631807103    -0.910342216575     1.007825032230
         H            2.210039381422     2.140392192897     0.103346783425     1.007825032230
         H           -0.610754618578     3.049892192897     0.186970783425     1.007825032230
         H           -3.269190618578    -0.839314807103    -0.038296216575     1.007825032230
         H            2.406802381422    -1.418104807103     1.350118783425     1.007825032230

  Basis Set: AUG-CC-PVTZ
    Blend: AUG-CC-PVTZ
  Basis Set: (AUG-CC-PVTZ AUX)
    Blend: AUG-CC-PVTZ-JKFIT
	 Reference Energy          =    -682.4524824169097883 [Eh]
	 Singles Energy            =      -0.0000000000000000 [Eh]
	 Same-Spin Energy          =      -0.6629531068785444 [Eh]
	 Opposite-Spin Energy      =      -2.0118784532866330 [Eh]
	 Correlation Energy        =      -2.6748315601651775 [Eh]
	 Total Energy              =    -685.1273139770750049 [Eh]

	 ================> DF-SCS-MP2 Energies <==================
	-----------------------------------------------------------
	 SCS Same-Spin Scale       =       0.3333333333333333 [-]
	 SCS Opposite-Spin Scale   =       1.2000000000000000 [-]
	 SCS Same-Spin Energy      =      -0.2209843689595148 [Eh]
	 SCS Opposite-Spin Energy  =      -2.4142541439439595 [Eh]
	 SCS Correlation Energy    =      -2.6352385129034741 [Eh]
	 SCS Total Energy          =    -685.0877209298132584 [Eh]
	-----------------------------------------------------------

  Dipole Moment: [D]
     X:     3.3416      Y:     0.6461      Z:    -0.2418     Total:     3.4121

*** Psi4 exiting successfully. Buy a developer a beer!
