                               Psi4 1.4a3.dev225

  ==> Input File <==

--------------------------------------------------------------------------
#psi4
#
memory 32 gb

molecule  {
0 1
  O        0.3445260    -1.4915130    -0.1284710
  O        1.3620620     2.0495660    -0.4184890
  O       -1.2647860     2.3345150     0.4675600
  O       -2.9390480     0.0425350    -0.1674130
  O        2.8793210    -0.7013140     0.9576500
  O       -1.7069560    -2.3717120     0.0066660
  C        0.6456770     0.9144350     0.0711800
  C       -0.8241260     1.1660500    -0.2009330
  C        1.0869890    -0.3499130    -0.6435990
  C       -1.6195880    -0.0062280     0.3304940
  C        2.5464540    -0.6897970    -0.4256590
  C       -1.0085030    -1.3756800     0.0131050
  H        0.7972300     0.7916990     1.1507440
  H       -0.9921122     1.2503107    -1.3376393
  H        0.8858480    -0.2577880    -1.7199730
  H       -1.6065420     0.0748220     1.4324700
  H        3.1677010     0.0783010    -0.8925020
  H        2.7689760    -1.6509780    -0.9066980
  H        2.1781240     2.1240460     0.1069910
  H       -0.6426700     3.0335460     0.1906150
  H       -3.3011060    -0.8556610    -0.0346520
  H        2.3748870    -1.4344510     1.3537630
units angstrom
no_reorient  #important for SAPT in psi4, default
symmetry c1  #important for SAPT in psi4, default
}

set PROPERTIES_ORIGIN ["COM"]
properties('MP2/aug-cc-pvtz', properties = ['dipole'])
--------------------------------------------------------------------------

    Molecular point group: c1
  Charge       = 0
  Multiplicity = 1
  Basis Set: AUG-CC-PVTZ
    Blend: AUG-CC-PVTZ
  Basis Set: (AUG-CC-PVTZ AUX)
    Blend: AUG-CC-PVTZ-JKFIT

    Orbital Energies [Eh]
    ---------------------

    Doubly Occupied:

       1A    -20.629783     2A    -20.600704     3A    -20.587639
       4A    -20.575953     5A    -20.575519     6A    -20.569345
       7A    -11.407061     8A    -11.326159     9A    -11.321646
      10A    -11.315156    11A    -11.313026    12A    -11.307487
      13A     -1.477711    14A     -1.409455    15A     -1.399219
      16A     -1.383981    17A     -1.375110    18A     -1.363107
      19A     -1.097651    20A     -1.058029    21A     -0.956520
      22A     -0.873757    23A     -0.868183    24A     -0.799350
      25A     -0.762283    26A     -0.741659    27A     -0.720927
      28A     -0.706664    29A     -0.694616    30A     -0.685796
      31A     -0.662106    32A     -0.643105    33A     -0.628340
      34A     -0.617225    35A     -0.613962    36A     -0.589838
      37A     -0.582568    38A     -0.559718    39A     -0.541025
      40A     -0.534303    41A     -0.519535    42A     -0.504342
      43A     -0.484321    44A     -0.477725    45A     -0.470856
      46A     -0.464129    47A     -0.445221

  @DF-RHF Final Energy:  -682.45249696067481

   => Energetics <=

    Nuclear Repulsion Energy =            801.0621817120312471
    One-Electron Energy =               -2528.5457235876197046
    Two-Electron Energy =                1045.0310449149135366
    Total Energy =                       -682.4524969606748073
  Basis Set: (AUG-CC-PVTZ AUX)
    Blend: AUG-CC-PVTZ-RI
    Molecular point group: c1

    Geometry (in Angstrom), charge = 0, multiplicity = 1:

       Center              X                  Y                   Z               Mass
    ------------   -----------------  -----------------  -----------------  -----------------
         O            0.375945265297    -1.473983224046    -0.131556879175    15.994914619570
         O            1.393481265297     2.067095775954    -0.421574879175    15.994914619570
         O           -1.233366734703     2.352044775954     0.464474120825    15.994914619570
         O           -2.907628734703     0.060064775954    -0.170498879175    15.994914619570
         O            2.910740265297    -0.683784224046     0.954564120825    15.994914619570
         O           -1.675536734703    -2.354182224046     0.003580120825    15.994914619570
         C            0.677096265297     0.931964775954     0.068094120825    12.000000000000
         C           -0.792706734703     1.183579775954    -0.204018879175    12.000000000000
         C            1.118408265297    -0.332383224046    -0.646684879175    12.000000000000
         C           -1.588168734703     0.011301775954     0.327408120825    12.000000000000
         C            2.577873265297    -0.672267224046    -0.428744879175    12.000000000000
         C           -0.977083734703    -1.358150224046     0.010019120825    12.000000000000
         H            0.828649265297     0.809228775954     1.147658120825     1.007825032230
         H           -0.960692934703     1.267840475954    -1.340725179175     1.007825032230
         H            0.917267265297    -0.240258224046    -1.723058879175     1.007825032230
         H           -1.575122734703     0.092351775954     1.429384120825     1.007825032230
         H            3.199120265297     0.095830775954    -0.895587879175     1.007825032230
         H            2.800395265297    -1.633448224046    -0.909783879175     1.007825032230
         H            2.209543265297     2.141575775954     0.103905120825     1.007825032230
         H           -0.611250734703     3.051075775954     0.187529120825     1.007825032230
         H           -3.269686734703    -0.838131224046    -0.037737879175     1.007825032230
         H            2.406306265297    -1.416921224046     1.350677120825     1.007825032230

  Basis Set: AUG-CC-PVTZ
    Blend: AUG-CC-PVTZ
  Basis Set: (AUG-CC-PVTZ AUX)
    Blend: AUG-CC-PVTZ-JKFIT
	 Reference Energy          =    -682.4524969606748073 [Eh]
	 Singles Energy            =      -0.0000000000000000 [Eh]
	 Same-Spin Energy          =      -0.6625813023220212 [Eh]
	 Opposite-Spin Energy      =      -2.0112875921518878 [Eh]
	 Correlation Energy        =      -2.6738688944739089 [Eh]
	 Total Energy              =    -685.1263658551487197 [Eh]

	 ================> DF-SCS-MP2 Energies <==================
	-----------------------------------------------------------
	 SCS Same-Spin Scale       =       0.3333333333333333 [-]
	 SCS Opposite-Spin Scale   =       1.2000000000000000 [-]
	 SCS Same-Spin Energy      =      -0.2208604341073404 [Eh]
	 SCS Opposite-Spin Energy  =      -2.4135451105822652 [Eh]
	 SCS Correlation Energy    =      -2.6344055446896055 [Eh]
	 SCS Total Energy          =    -685.0869025053643782 [Eh]
	-----------------------------------------------------------

  Dipole Moment: [D]
     X:     3.3935      Y:     0.5833      Z:    -0.2363     Total:     3.4513

*** Psi4 exiting successfully. Buy a developer a beer!
