                               Psi4 1.4a3.dev225

  ==> Input File <==

--------------------------------------------------------------------------
#psi4
#
memory 32 gb

molecule  {
0 1
  O        0.3445260    -1.4915130    -0.1284710
  O        1.3620620     2.0495660    -0.4184890
  O       -1.2647860     2.3345150     0.4675600
  O       -2.9390480     0.0425350    -0.1674130
  O        2.8793210    -0.7013140     0.9576500
  O       -1.7069560    -2.3717120     0.0066660
  C        0.6456770     0.9144350     0.0711800
  C       -0.9210909     1.1826494    -0.2188847
  C        1.0869890    -0.3499130    -0.6435990
  C       -1.6195880    -0.0062280     0.3304940
  C        2.5464540    -0.6897970    -0.4256590
  C       -1.0085030    -1.3756800     0.0131050
  H        0.7972300     0.7916990     1.1507440
  H       -0.9848220     1.2466540    -1.2883090
  H        0.8858480    -0.2577880    -1.7199730
  H       -1.6065420     0.0748220     1.4324700
  H        3.1677010     0.0783010    -0.8925020
  H        2.7689760    -1.6509780    -0.9066980
  H        2.1781240     2.1240460     0.1069910
  H       -0.6426700     3.0335460     0.1906150
  H       -3.3011060    -0.8556610    -0.0346520
  H        2.3748870    -1.4344510     1.3537630
units angstrom
no_reorient  #important for SAPT in psi4, default
symmetry c1  #important for SAPT in psi4, default
}

set PROPERTIES_ORIGIN ["COM"]
properties('MP2/aug-cc-pvtz', properties = ['dipole'])
--------------------------------------------------------------------------

    Molecular point group: c1
  Charge       = 0
  Multiplicity = 1
  Basis Set: AUG-CC-PVTZ
    Blend: AUG-CC-PVTZ
  Basis Set: (AUG-CC-PVTZ AUX)
    Blend: AUG-CC-PVTZ-JKFIT

    Orbital Energies [Eh]
    ---------------------

    Doubly Occupied:

       1A    -20.628731     2A    -20.598739     3A    -20.586084
       4A    -20.577201     5A    -20.573791     6A    -20.570237
       7A    -11.408446     8A    -11.323549     9A    -11.319680
      10A    -11.313091    11A    -11.308134    12A    -11.305653
      13A     -1.477061    14A     -1.409370    15A     -1.400435
      16A     -1.383225    17A     -1.378929    18A     -1.365596
      19A     -1.088189    20A     -1.058461    21A     -0.948464
      22A     -0.882574    23A     -0.865141    24A     -0.800116
      25A     -0.760582    26A     -0.740259    27A     -0.725170
      28A     -0.710598    29A     -0.695735    30A     -0.685101
      31A     -0.663942    32A     -0.642778    33A     -0.627646
      34A     -0.621435    35A     -0.614439    36A     -0.589427
      37A     -0.582411    38A     -0.561506    39A     -0.539475
      40A     -0.534682    41A     -0.516915    42A     -0.503489
      43A     -0.485770    44A     -0.477622    45A     -0.473973
      46A     -0.461866    47A     -0.430233

  @DF-RHF Final Energy:  -682.44666372980032

   => Energetics <=

    Nuclear Repulsion Energy =            800.4950388373824808
    One-Electron Energy =               -2527.4514971069252169
    Two-Electron Energy =                1044.5097945397424155
    Total Energy =                       -682.4466637298003207
  Basis Set: (AUG-CC-PVTZ AUX)
    Blend: AUG-CC-PVTZ-RI
    Molecular point group: c1

    Geometry (in Angstrom), charge = 0, multiplicity = 1:

       Center              X                  Y                   Z               Mass
    ------------   -----------------  -----------------  -----------------  -----------------
         O            0.382439206566    -1.475081286219    -0.130626206926    15.994914619570
         O            1.399975206566     2.065997713781    -0.420644206926    15.994914619570
         O           -1.226872793434     2.350946713781     0.465404793074    15.994914619570
         O           -2.901134793434     0.058966713781    -0.169568206926    15.994914619570
         O            2.917234206566    -0.684882286219     0.955494793074    15.994914619570
         O           -1.669042793434    -2.355280286219     0.004510793074    15.994914619570
         C            0.683590206566     0.930866713781     0.069024793074    12.000000000000
         C           -0.883177693434     1.199081113781    -0.221039906926    12.000000000000
         C            1.124902206566    -0.333481286219    -0.645754206926    12.000000000000
         C           -1.581674793434     0.010203713781     0.328338793074    12.000000000000
         C            2.584367206566    -0.673365286219    -0.427814206926    12.000000000000
         C           -0.970589793434    -1.359248286219     0.010949793074    12.000000000000
         H            0.835143206566     0.808130713781     1.148588793074     1.007825032230
         H           -0.946908793434     1.263085713781    -1.290464206926     1.007825032230
         H            0.923761206566    -0.241356286219    -1.722128206926     1.007825032230
         H           -1.568628793434     0.091253713781     1.430314793074     1.007825032230
         H            3.205614206566     0.094732713781    -0.894657206926     1.007825032230
         H            2.806889206566    -1.634546286219    -0.908853206926     1.007825032230
         H            2.216037206566     2.140477713781     0.104835793074     1.007825032230
         H           -0.604756793434     3.049977713781     0.188459793074     1.007825032230
         H           -3.263192793434    -0.839229286219    -0.036807206926     1.007825032230
         H            2.412800206566    -1.418019286219     1.351607793074     1.007825032230

  Basis Set: AUG-CC-PVTZ
    Blend: AUG-CC-PVTZ
  Basis Set: (AUG-CC-PVTZ AUX)
    Blend: AUG-CC-PVTZ-JKFIT
	 Reference Energy          =    -682.4466637298003207 [Eh]
	 Singles Energy            =      -0.0000000000000000 [Eh]
	 Same-Spin Energy          =      -0.6624247764494103 [Eh]
	 Opposite-Spin Energy      =      -2.0106808700461851 [Eh]
	 Correlation Energy        =      -2.6731056464955953 [Eh]
	 Total Energy              =    -685.1197693762959489 [Eh]

	 ================> DF-SCS-MP2 Energies <==================
	-----------------------------------------------------------
	 SCS Same-Spin Scale       =       0.3333333333333333 [-]
	 SCS Opposite-Spin Scale   =       1.2000000000000000 [-]
	 SCS Same-Spin Energy      =      -0.2208082588164701 [Eh]
	 SCS Opposite-Spin Energy  =      -2.4128170440554220 [Eh]
	 SCS Correlation Energy    =      -2.6336253028718919 [Eh]
	 SCS Total Energy          =    -685.0802890326722263 [Eh]
	-----------------------------------------------------------

  Dipole Moment: [D]
     X:     3.2580      Y:     0.6872      Z:    -0.2661     Total:     3.3403

*** Psi4 exiting successfully. Buy a developer a beer!
