                               Psi4 1.4a3.dev225

  ==> Input File <==

--------------------------------------------------------------------------
#psi4
#
memory 32 gb

molecule  {
0 1
  O        0.3445260    -1.4915130    -0.1284710
  O        1.3620620     2.0495660    -0.4184890
  O       -1.3592476     2.2472630     0.5413594
  O       -2.9390480     0.0425350    -0.1674130
  O        2.8793210    -0.7013140     0.9576500
  O       -1.7069560    -2.3717120     0.0066660
  C        0.6456770     0.9144350     0.0711800
  C       -0.8241260     1.1660500    -0.2009330
  C        1.0869890    -0.3499130    -0.6435990
  C       -1.6195880    -0.0062280     0.3304940
  C        2.5464540    -0.6897970    -0.4256590
  C       -1.0085030    -1.3756800     0.0131050
  H        0.7972300     0.7916990     1.1507440
  H       -0.9848220     1.2466540    -1.2883090
  H        0.8858480    -0.2577880    -1.7199730
  H       -1.6065420     0.0748220     1.4324700
  H        3.1677010     0.0783010    -0.8925020
  H        2.7689760    -1.6509780    -0.9066980
  H        2.1781240     2.1240460     0.1069910
  H       -0.6426700     3.0335460     0.1906150
  H       -3.3011060    -0.8556610    -0.0346520
  H        2.3748870    -1.4344510     1.3537630
units angstrom
no_reorient  #important for SAPT in psi4, default
symmetry c1  #important for SAPT in psi4, default
}

set PROPERTIES_ORIGIN ["COM"]
properties('MP2/aug-cc-pvtz', properties = ['dipole'])
--------------------------------------------------------------------------

    Molecular point group: c1
  Charge       = 0
  Multiplicity = 1
  Basis Set: AUG-CC-PVTZ
    Blend: AUG-CC-PVTZ
  Basis Set: (AUG-CC-PVTZ AUX)
    Blend: AUG-CC-PVTZ-JKFIT

    Orbital Energies [Eh]
    ---------------------

    Doubly Occupied:

       1A    -20.628795     2A    -20.602954     3A    -20.589576
       4A    -20.587984     5A    -20.573337     6A    -20.566671
       7A    -11.403371     8A    -11.327080     9A    -11.316692
      10A    -11.315972    11A    -11.308157    12A    -11.305972
      13A     -1.476237    14A     -1.408219    15A     -1.397149
      16A     -1.383850    17A     -1.370696    18A     -1.350993
      19A     -1.095505    20A     -1.054675    21A     -0.956524
      22A     -0.871414    23A     -0.865491    24A     -0.801394
      25A     -0.761605    26A     -0.741927    27A     -0.717091
      28A     -0.706480    29A     -0.688471    30A     -0.680299
      31A     -0.648861    32A     -0.643856    33A     -0.629005
      34A     -0.614700    35A     -0.610898    36A     -0.588036
      37A     -0.580728    38A     -0.559317    39A     -0.542988
      40A     -0.532717    41A     -0.519204    42A     -0.503561
      43A     -0.478549    44A     -0.478251    45A     -0.473126
      46A     -0.464448    47A     -0.443385

  @DF-RHF Final Energy:  -682.42704181729903

   => Energetics <=

    Nuclear Repulsion Energy =            801.3002675150726191
    One-Electron Energy =               -2529.1221935979183399
    Two-Electron Energy =                1045.3948842655465796
    Total Energy =                       -682.4270418172991413
  Basis Set: (AUG-CC-PVTZ AUX)
    Blend: AUG-CC-PVTZ-RI
    Molecular point group: c1

    Geometry (in Angstrom), charge = 0, multiplicity = 1:

       Center              X                  Y                   Z               Mass
    ------------   -----------------  -----------------  -----------------  -----------------
         O            0.384389955453    -1.466124244091    -0.138465876878    15.994914619570
         O            1.401925955453     2.074954755909    -0.428483876878    15.994914619570
         O           -1.319383644547     2.272651755909     0.531364523122    15.994914619570
         O           -2.899184044547     0.067923755909    -0.177407876878    15.994914619570
         O            2.919184955453    -0.675925244091     0.947655123122    15.994914619570
         O           -1.667092044547    -2.346323244091    -0.003328876878    15.994914619570
         C            0.685540955453     0.939823755909     0.061185123122    12.000000000000
         C           -0.784262044547     1.191438755909    -0.210927876878    12.000000000000
         C            1.126852955453    -0.324524244091    -0.653593876878    12.000000000000
         C           -1.579724044547     0.019160755909     0.320499123122    12.000000000000
         C            2.586317955453    -0.664408244091    -0.435653876878    12.000000000000
         C           -0.968639044547    -1.350291244091     0.003110123122    12.000000000000
         H            0.837093955453     0.817087755909     1.140749123122     1.007825032230
         H           -0.944958044547     1.272042755909    -1.298303876878     1.007825032230
         H            0.925711955453    -0.232399244091    -1.729967876878     1.007825032230
         H           -1.566678044547     0.100210755909     1.422475123122     1.007825032230
         H            3.207564955453     0.103689755909    -0.902496876878     1.007825032230
         H            2.808839955453    -1.625589244091    -0.916692876878     1.007825032230
         H            2.217987955453     2.149434755909     0.096996123122     1.007825032230
         H           -0.602806044547     3.058934755909     0.180620123122     1.007825032230
         H           -3.261242044547    -0.830272244091    -0.044646876878     1.007825032230
         H            2.414750955453    -1.409062244091     1.343768123122     1.007825032230

  Basis Set: AUG-CC-PVTZ
    Blend: AUG-CC-PVTZ
  Basis Set: (AUG-CC-PVTZ AUX)
    Blend: AUG-CC-PVTZ-JKFIT
	 Reference Energy          =    -682.4270418172990276 [Eh]
	 Singles Energy            =      -0.0000000000000000 [Eh]
	 Same-Spin Energy          =      -0.6649545701494615 [Eh]
	 Opposite-Spin Energy      =      -2.0170138709395333 [Eh]
	 Correlation Energy        =      -2.6819684410889950 [Eh]
	 Total Energy              =    -685.1090102583880252 [Eh]

	 ================> DF-SCS-MP2 Energies <==================
	-----------------------------------------------------------
	 SCS Same-Spin Scale       =       0.3333333333333333 [-]
	 SCS Opposite-Spin Scale   =       1.2000000000000000 [-]
	 SCS Same-Spin Energy      =      -0.2216515233831538 [Eh]
	 SCS Opposite-Spin Energy  =      -2.4204166451274398 [Eh]
	 SCS Correlation Energy    =      -2.6420681685105936 [Eh]
	 SCS Total Energy          =    -685.0691099858096322 [Eh]
	-----------------------------------------------------------

  Dipole Moment: [D]
     X:     3.5247      Y:     0.7518      Z:    -0.3498     Total:     3.6209

*** Psi4 exiting successfully. Buy a developer a beer!
