                               Psi4 1.4a3.dev225

  ==> Input File <==

--------------------------------------------------------------------------
#psi4
#
memory 32 gb

molecule  {
0 1
  O        0.3445260    -1.4915130    -0.1284710
  O        1.3620620     2.0495660    -0.4184890
  O       -1.2647860     2.3345150     0.4675600
  O       -2.9390480     0.0425350    -0.1674130
  O        2.8793210    -0.7013140     0.9576500
  O       -1.7069560    -2.3717120     0.0066660
  C        0.6456770     0.9144350     0.0711800
  C       -0.8333734     1.1626901    -0.1489468
  C        1.0869890    -0.3499130    -0.6435990
  C       -1.6195880    -0.0062280     0.3304940
  C        2.5464540    -0.6897970    -0.4256590
  C       -1.0085030    -1.3756800     0.0131050
  H        0.7972300     0.7916990     1.1507440
  H       -0.9848220     1.2466540    -1.2883090
  H        0.8858480    -0.2577880    -1.7199730
  H       -1.6065420     0.0748220     1.4324700
  H        3.1677010     0.0783010    -0.8925020
  H        2.7689760    -1.6509780    -0.9066980
  H        2.1781240     2.1240460     0.1069910
  H       -0.6426700     3.0335460     0.1906150
  H       -3.3011060    -0.8556610    -0.0346520
  H        2.3748870    -1.4344510     1.3537630
units angstrom
no_reorient  #important for SAPT in psi4, default
symmetry c1  #important for SAPT in psi4, default
}

set PROPERTIES_ORIGIN ["COM"]
properties('MP2/aug-cc-pvtz', properties = ['dipole'])
--------------------------------------------------------------------------

    Molecular point group: c1
  Charge       = 0
  Multiplicity = 1
  Basis Set: AUG-CC-PVTZ
    Blend: AUG-CC-PVTZ
  Basis Set: (AUG-CC-PVTZ AUX)
    Blend: AUG-CC-PVTZ-JKFIT

    Orbital Energies [Eh]
    ---------------------

    Doubly Occupied:

       1A    -20.629926     2A    -20.601331     3A    -20.587389
       4A    -20.577031     5A    -20.576116     6A    -20.569905
       7A    -11.408268     8A    -11.326460     9A    -11.320750
      10A    -11.314584    11A    -11.309548    12A    -11.307571
      13A     -1.478033    14A     -1.411882    15A     -1.400557
      16A     -1.384354    17A     -1.378884    18A     -1.365548
      19A     -1.099386    20A     -1.060787    21A     -0.957303
      22A     -0.875309    23A     -0.869663    24A     -0.798967
      25A     -0.763842    26A     -0.742367    27A     -0.723610
      28A     -0.707978    29A     -0.697999    30A     -0.686420
      31A     -0.664122    32A     -0.643235    33A     -0.628487
      34A     -0.622847    35A     -0.614202    36A     -0.591200
      37A     -0.582939    38A     -0.560654    39A     -0.540971
      40A     -0.535225    41A     -0.520191    42A     -0.504586
      43A     -0.486017    44A     -0.477721    45A     -0.469485
      46A     -0.459237    47A     -0.445510

  @DF-RHF Final Energy:  -682.45202047584655

   => Energetics <=

    Nuclear Repulsion Energy =            801.7523044928294667
    One-Electron Energy =               -2529.8518539537080869
    Two-Electron Energy =                1045.6475289850320678
    Total Energy =                       -682.4520204758466662
  Basis Set: (AUG-CC-PVTZ AUX)
    Blend: AUG-CC-PVTZ-RI
    Molecular point group: c1

    Geometry (in Angstrom), charge = 0, multiplicity = 1:

       Center              X                  Y                   Z               Mass
    ------------   -----------------  -----------------  -----------------  -----------------
         O            0.376527252775    -1.473736076206    -0.135339857373    15.994914619570
         O            1.394063252775     2.067342923794    -0.425357857373    15.994914619570
         O           -1.232784747225     2.352291923794     0.460691142627    15.994914619570
         O           -2.907046747225     0.060311923794    -0.174281857373    15.994914619570
         O            2.911322252775    -0.683537076206     0.950781142627    15.994914619570
         O           -1.674954747225    -2.353935076206    -0.000202857373    15.994914619570
         C            0.677678252775     0.932211923794     0.064311142627    12.000000000000
         C           -0.801372147225     1.180467023794    -0.155815657373    12.000000000000
         C            1.118990252775    -0.332136076206    -0.650467857373    12.000000000000
         C           -1.587586747225     0.011548923794     0.323625142627    12.000000000000
         C            2.578455252775    -0.672020076206    -0.432527857373    12.000000000000
         C           -0.976501747225    -1.357903076206     0.006236142627    12.000000000000
         H            0.829231252775     0.809475923794     1.143875142627     1.007825032230
         H           -0.952820747225     1.264430923794    -1.295177857373     1.007825032230
         H            0.917849252775    -0.240011076206    -1.726841857373     1.007825032230
         H           -1.574540747225     0.092598923794     1.425601142627     1.007825032230
         H            3.199702252775     0.096077923794    -0.899370857373     1.007825032230
         H            2.800977252775    -1.633201076206    -0.913566857373     1.007825032230
         H            2.210125252775     2.141822923794     0.100122142627     1.007825032230
         H           -0.610668747225     3.051322923794     0.183746142627     1.007825032230
         H           -3.269104747225    -0.837884076206    -0.041520857373     1.007825032230
         H            2.406888252775    -1.416674076206     1.346894142627     1.007825032230

  Basis Set: AUG-CC-PVTZ
    Blend: AUG-CC-PVTZ
  Basis Set: (AUG-CC-PVTZ AUX)
    Blend: AUG-CC-PVTZ-JKFIT
	 Reference Energy          =    -682.4520204758465525 [Eh]
	 Singles Energy            =      -0.0000000000000000 [Eh]
	 Same-Spin Energy          =      -0.6626923317314191 [Eh]
	 Opposite-Spin Energy      =      -2.0107442077610154 [Eh]
	 Correlation Energy        =      -2.6734365394924344 [Eh]
	 Total Energy              =    -685.1254570153389523 [Eh]

	 ================> DF-SCS-MP2 Energies <==================
	-----------------------------------------------------------
	 SCS Same-Spin Scale       =       0.3333333333333333 [-]
	 SCS Opposite-Spin Scale   =       1.2000000000000000 [-]
	 SCS Same-Spin Energy      =      -0.2208974439104730 [Eh]
	 SCS Opposite-Spin Energy  =      -2.4128930493132184 [Eh]
	 SCS Correlation Energy    =      -2.6337904932236915 [Eh]
	 SCS Total Energy          =    -685.0858109690702804 [Eh]
	-----------------------------------------------------------

  Dipole Moment: [D]
     X:     3.3865      Y:     0.6121      Z:    -0.1806     Total:     3.4461

*** Psi4 exiting successfully. Buy a developer a beer!
