                               Psi4 1.4a3.dev225

  ==> Input File <==

--------------------------------------------------------------------------
#psi4
#
memory 32 gb

molecule  {
0 1
  O        0.3445260    -1.4915130    -0.1284710
  O        1.3620620     2.0495660    -0.4184890
  O       -1.2647860     2.3345150     0.4675600
  O       -2.9390480     0.0425350    -0.1674130
  O        2.8793210    -0.7013140     0.9576500
  O       -1.7069560    -2.3717120     0.0066660
  C        0.6456770     0.9144350     0.0711800
  C       -0.8241260     1.1660500    -0.2009330
  C        1.0869890    -0.3499130    -0.6435990
  C       -1.6195880    -0.0062280     0.3304940
  C        2.5347567    -0.6893923    -0.4742698
  C       -1.0085030    -1.3756800     0.0131050
  H        0.7972300     0.7916990     1.1507440
  H       -0.9848220     1.2466540    -1.2883090
  H        0.8858480    -0.2577880    -1.7199730
  H       -1.6065420     0.0748220     1.4324700
  H        3.1677010     0.0783010    -0.8925020
  H        2.7689760    -1.6509780    -0.9066980
  H        2.1781240     2.1240460     0.1069910
  H       -0.6426700     3.0335460     0.1906150
  H       -3.3011060    -0.8556610    -0.0346520
  H        2.3748870    -1.4344510     1.3537630
units angstrom
no_reorient  #important for SAPT in psi4, default
symmetry c1  #important for SAPT in psi4, default
}

set PROPERTIES_ORIGIN ["COM"]
properties('MP2/aug-cc-pvtz', properties = ['dipole'])
--------------------------------------------------------------------------

    Molecular point group: c1
  Charge       = 0
  Multiplicity = 1
  Basis Set: AUG-CC-PVTZ
    Blend: AUG-CC-PVTZ
  Basis Set: (AUG-CC-PVTZ AUX)
    Blend: AUG-CC-PVTZ-JKFIT

    Orbital Energies [Eh]
    ---------------------

    Doubly Occupied:

       1A    -20.630744     2A    -20.601161     3A    -20.582240
       4A    -20.575898     5A    -20.575404     6A    -20.569838
       7A    -11.407667     8A    -11.327720     9A    -11.321583
      10A    -11.315563    11A    -11.307909    12A    -11.307374
      13A     -1.478384    14A     -1.409560    15A     -1.397834
      16A     -1.376822    17A     -1.367828    18A     -1.361195
      19A     -1.100106    20A     -1.062079    21A     -0.959338
      22A     -0.877240    23A     -0.868723    24A     -0.802032
      25A     -0.763291    26A     -0.741977    27A     -0.717318
      28A     -0.706057    29A     -0.694946    30A     -0.684422
      31A     -0.662893    32A     -0.642554    33A     -0.628703
      34A     -0.616992    35A     -0.609763    36A     -0.590700
      37A     -0.581468    38A     -0.560551    39A     -0.542502
      40A     -0.533823    41A     -0.520652    42A     -0.504414
      43A     -0.484436    44A     -0.480106    45A     -0.472872
      46A     -0.465840    47A     -0.447489

  @DF-RHF Final Energy:  -682.45188037277956

   => Energetics <=

    Nuclear Repulsion Energy =            801.0234395266949150
    One-Electron Energy =               -2528.4746179926937657
    Two-Electron Energy =                1044.9992980932192950
    Total Energy =                       -682.4518803727796694
  Basis Set: (AUG-CC-PVTZ AUX)
    Blend: AUG-CC-PVTZ-RI
    Molecular point group: c1

    Geometry (in Angstrom), charge = 0, multiplicity = 1:

       Center              X                  Y                   Z               Mass
    ------------   -----------------  -----------------  -----------------  -----------------
         O            0.376692370289    -1.473989801418    -0.128559855485    15.994914619570
         O            1.394228370289     2.067089198582    -0.418577855485    15.994914619570
         O           -1.232619629711     2.352038198582     0.467471144515    15.994914619570
         O           -2.906881629711     0.060058198582    -0.167501855485    15.994914619570
         O            2.911487370289    -0.683790801418     0.957561144515    15.994914619570
         O           -1.674789629711    -2.354188801418     0.006577144515    15.994914619570
         C            0.677843370289     0.931958198582     0.071091144515    12.000000000000
         C           -0.791959629711     1.183573198582    -0.201021855485    12.000000000000
         C            1.119155370289    -0.332389801418    -0.643687855485    12.000000000000
         C           -1.587421629711     0.011295198582     0.330405144515    12.000000000000
         C            2.566923070289    -0.671869101418    -0.474358655485    12.000000000000
         C           -0.976336629711    -1.358156801418     0.013016144515    12.000000000000
         H            0.829396370289     0.809222198582     1.150655144515     1.007825032230
         H           -0.952655629711     1.264177198582    -1.288397855485     1.007825032230
         H            0.918014370289    -0.240264801418    -1.720061855485     1.007825032230
         H           -1.574375629711     0.092345198582     1.432381144515     1.007825032230
         H            3.199867370289     0.095824198582    -0.892590855485     1.007825032230
         H            2.801142370289    -1.633454801418    -0.906786855485     1.007825032230
         H            2.210290370289     2.141569198582     0.106902144515     1.007825032230
         H           -0.610503629711     3.051069198582     0.190526144515     1.007825032230
         H           -3.268939629711    -0.838137801418    -0.034740855485     1.007825032230
         H            2.407053370289    -1.416927801418     1.353674144515     1.007825032230

  Basis Set: AUG-CC-PVTZ
    Blend: AUG-CC-PVTZ
  Basis Set: (AUG-CC-PVTZ AUX)
    Blend: AUG-CC-PVTZ-JKFIT
	 Reference Energy          =    -682.4518803727795557 [Eh]
	 Singles Energy            =      -0.0000000000000000 [Eh]
	 Same-Spin Energy          =      -0.6625561691126233 [Eh]
	 Opposite-Spin Energy      =      -2.0116519586450972 [Eh]
	 Correlation Energy        =      -2.6742081277577205 [Eh]
	 Total Energy              =    -685.1260885005373211 [Eh]

	 ================> DF-SCS-MP2 Energies <==================
	-----------------------------------------------------------
	 SCS Same-Spin Scale       =       0.3333333333333333 [-]
	 SCS Opposite-Spin Scale   =       1.2000000000000000 [-]
	 SCS Same-Spin Energy      =      -0.2208520563708744 [Eh]
	 SCS Opposite-Spin Energy  =      -2.4139823503741167 [Eh]
	 SCS Correlation Energy    =      -2.6348344067449911 [Eh]
	 SCS Total Energy          =    -685.0867147795245273 [Eh]
	-----------------------------------------------------------

  Dipole Moment: [D]
     X:     3.3319      Y:     0.5920      Z:    -0.4165     Total:     3.4096

*** Psi4 exiting successfully. Buy a developer a beer!
