                               Psi4 1.4a3.dev225

  ==> Input File <==

--------------------------------------------------------------------------
#psi4
#
memory 32 gb

molecule  {
0 1
  O        0.3445260    -1.4915130    -0.1284710
  O        1.3620620     2.0495660    -0.4184890
  O       -1.2647860     2.3345150     0.4675600
  O       -2.9390480     0.0425350    -0.1674130
  O        2.8793210    -0.7013140     0.9576500
  O       -1.7069560    -2.3717120     0.0066660
  C        0.6456770     0.9144350     0.0711800
  C       -0.8464531     1.1550674    -0.0442336
  C        1.0869890    -0.3499130    -0.6435990
  C       -1.6195880    -0.0062280     0.3304940
  C        2.5464540    -0.6897970    -0.4256590
  C       -1.0085030    -1.3756800     0.0131050
  H        0.7972300     0.7916990     1.1507440
  H       -0.9848220     1.2466540    -1.2883090
  H        0.8858480    -0.2577880    -1.7199730
  H       -1.6065420     0.0748220     1.4324700
  H        3.1677010     0.0783010    -0.8925020
  H        2.7689760    -1.6509780    -0.9066980
  H        2.1781240     2.1240460     0.1069910
  H       -0.6426700     3.0335460     0.1906150
  H       -3.3011060    -0.8556610    -0.0346520
  H        2.3748870    -1.4344510     1.3537630
units angstrom
no_reorient  #important for SAPT in psi4, default
symmetry c1  #important for SAPT in psi4, default
}

set PROPERTIES_ORIGIN ["COM"]
properties('MP2/aug-cc-pvtz', properties = ['dipole'])
--------------------------------------------------------------------------

    Molecular point group: c1
  Charge       = 0
  Multiplicity = 1
  Basis Set: AUG-CC-PVTZ
    Blend: AUG-CC-PVTZ
  Basis Set: (AUG-CC-PVTZ AUX)
    Blend: AUG-CC-PVTZ-JKFIT

    Orbital Energies [Eh]
    ---------------------

    Doubly Occupied:

       1A    -20.630357     2A    -20.603034     3A    -20.587068
       4A    -20.582298     5A    -20.577428     6A    -20.571229
       7A    -11.411037     8A    -11.327080     9A    -11.321249
      10A    -11.316739    11A    -11.315960    12A    -11.307789
      13A     -1.478841    14A     -1.421533    15A     -1.402972
      16A     -1.387687    17A     -1.383050    18A     -1.368286
      19A     -1.103594    20A     -1.065585    21A     -0.959646
      22A     -0.877558    23A     -0.871591    24A     -0.794589
      25A     -0.766966    26A     -0.744754    27A     -0.730375
      28A     -0.709747    29A     -0.704426    30A     -0.686707
      31A     -0.667079    32A     -0.643689    33A     -0.634049
      34A     -0.628127    35A     -0.613089    36A     -0.592922
      37A     -0.583609    38A     -0.563332    39A     -0.540079
      40A     -0.537540    41A     -0.520355    42A     -0.505302
      43A     -0.488957    44A     -0.477728    45A     -0.471057
      46A     -0.450161    47A     -0.428343

  @DF-RHF Final Energy:  -682.42993466657833

   => Energetics <=

    Nuclear Repulsion Energy =            802.4535855521809253
    One-Electron Energy =               -2531.0578588935636617
    Two-Electron Energy =                1046.1743386748046305
    Total Energy =                       -682.4299346665782195
  Basis Set: (AUG-CC-PVTZ AUX)
    Blend: AUG-CC-PVTZ-RI
    Molecular point group: c1

    Geometry (in Angstrom), charge = 0, multiplicity = 1:

       Center              X                  Y                   Z               Mass
    ------------   -----------------  -----------------  -----------------  -----------------
         O            0.377408793881    -1.473222324102    -0.142397281487    15.994914619570
         O            1.394944793881     2.067856675898    -0.432415281487    15.994914619570
         O           -1.231903206119     2.352805675898     0.453633718513    15.994914619570
         O           -2.906165206119     0.060825675898    -0.181339281487    15.994914619570
         O            2.912203793881    -0.683023324102     0.943723718513    15.994914619570
         O           -1.674073206119    -2.353421324102    -0.007260281487    15.994914619570
         C            0.678559793881     0.932725675898     0.057253718513    12.000000000000
         C           -0.813570306119     1.173358075898    -0.058159881487    12.000000000000
         C            1.119871793881    -0.331622324102    -0.657525281487    12.000000000000
         C           -1.586705206119     0.012062675898     0.316567718513    12.000000000000
         C            2.579336793881    -0.671506324102    -0.439585281487    12.000000000000
         C           -0.975620206119    -1.357389324102    -0.000821281487    12.000000000000
         H            0.830112793881     0.809989675898     1.136817718513     1.007825032230
         H           -0.951939206119     1.264944675898    -1.302235281487     1.007825032230
         H            0.918730793881    -0.239497324102    -1.733899281487     1.007825032230
         H           -1.573659206119     0.093112675898     1.418543718513     1.007825032230
         H            3.200583793881     0.096591675898    -0.906428281487     1.007825032230
         H            2.801858793881    -1.632687324102    -0.920624281487     1.007825032230
         H            2.211006793881     2.142336675898     0.093064718513     1.007825032230
         H           -0.609787206119     3.051836675898     0.176688718513     1.007825032230
         H           -3.268223206119    -0.837370324102    -0.048578281487     1.007825032230
         H            2.407769793881    -1.416160324102     1.339836718513     1.007825032230

  Basis Set: AUG-CC-PVTZ
    Blend: AUG-CC-PVTZ
  Basis Set: (AUG-CC-PVTZ AUX)
    Blend: AUG-CC-PVTZ-JKFIT
	 Reference Energy          =    -682.4299346665783332 [Eh]
	 Singles Energy            =      -0.0000000000000000 [Eh]
	 Same-Spin Energy          =      -0.6636399812854137 [Eh]
	 Opposite-Spin Energy      =      -2.0118138745350898 [Eh]
	 Correlation Energy        =      -2.6754538558205034 [Eh]
	 Total Energy              =    -685.1053885223988118 [Eh]

	 ================> DF-SCS-MP2 Energies <==================
	-----------------------------------------------------------
	 SCS Same-Spin Scale       =       0.3333333333333333 [-]
	 SCS Opposite-Spin Scale   =       1.2000000000000000 [-]
	 SCS Same-Spin Energy      =      -0.2212133270951379 [Eh]
	 SCS Opposite-Spin Energy  =      -2.4141766494421075 [Eh]
	 SCS Correlation Energy    =      -2.6353899765372453 [Eh]
	 SCS Total Energy          =    -685.0653246431155594 [Eh]
	-----------------------------------------------------------

  Dipole Moment: [D]
     X:     3.3780      Y:     0.6913      Z:     0.0367     Total:     3.4482

*** Psi4 exiting successfully. Buy a developer a beer!
