                               Psi4 1.4a3.dev225

  ==> Input File <==

--------------------------------------------------------------------------
#psi4
#
memory 32 gb

molecule  {
0 1
  O        0.3445260    -1.4915130    -0.1284710
  O        1.3620620     2.0495660    -0.4184890
  O       -1.2647860     2.3345150     0.4675600
  O       -2.9390480     0.0425350    -0.1674130
  O        2.8793210    -0.7013140     0.9576500
  O       -1.7069560    -2.3717120     0.0066660
  C        0.6456770     0.9144350     0.0711800
  C       -0.8241260     1.1660500    -0.2009330
  C        1.0869890    -0.3499130    -0.6435990
  C       -1.6195880    -0.0062280     0.3304940
  C        2.5464540    -0.6897970    -0.4256590
  C       -1.0085030    -1.3756800     0.0131050
  H        0.7972300     0.7916990     1.1507440
  H       -0.9848220     1.2466540    -1.2883090
  H        0.8858480    -0.2577880    -1.7199730
  H       -1.6065420     0.0748220     1.4324700
  H        3.1677010     0.0783010    -0.8925020
  H        2.7689760    -1.6509780    -0.9066980
  H        2.1781240     2.1240460     0.1069910
  H       -0.6299204     3.0478719     0.1849393
  H       -3.3011060    -0.8556610    -0.0346520
  H        2.3748870    -1.4344510     1.3537630
units angstrom
no_reorient  #important for SAPT in psi4, default
symmetry c1  #important for SAPT in psi4, default
}

set PROPERTIES_ORIGIN ["COM"]
properties('MP2/aug-cc-pvtz', properties = ['dipole'])
--------------------------------------------------------------------------

    Molecular point group: c1
  Charge       = 0
  Multiplicity = 1
  Basis Set: AUG-CC-PVTZ
    Blend: AUG-CC-PVTZ
  Basis Set: (AUG-CC-PVTZ AUX)
    Blend: AUG-CC-PVTZ-JKFIT

    Orbital Energies [Eh]
    ---------------------

    Doubly Occupied:

       1A    -20.629725     2A    -20.600755     3A    -20.587594
       4A    -20.576292     5A    -20.575443     6A    -20.569212
       7A    -11.406898     8A    -11.326197     9A    -11.321043
      10A    -11.314495    11A    -11.307482    12A    -11.307055
      13A     -1.477631    14A     -1.408739    15A     -1.398770
      16A     -1.383863    17A     -1.373469    18A     -1.360982
      19A     -1.097729    20A     -1.057962    21A     -0.956382
      22A     -0.875344    23A     -0.868156    24A     -0.801285
      25A     -0.761856    26A     -0.741865    27A     -0.720199
      28A     -0.707542    29A     -0.693780    30A     -0.685868
      31A     -0.660861    32A     -0.643815    33A     -0.628683
      34A     -0.616689    35A     -0.614710    36A     -0.590002
      37A     -0.582829    38A     -0.559371    39A     -0.540672
      40A     -0.534061    41A     -0.519491    42A     -0.504271
      43A     -0.483784    44A     -0.477974    45A     -0.472297
      46A     -0.464659    47A     -0.444931

  @DF-RHF Final Energy:  -682.45321789752165

   => Energetics <=

    Nuclear Repulsion Energy =            801.2338384252411743
    One-Electron Energy =               -2528.9086872635693908
    Two-Electron Energy =                1045.2216309408065626
    Total Energy =                       -682.4532178975216539
  Basis Set: (AUG-CC-PVTZ AUX)
    Blend: AUG-CC-PVTZ-RI
    Molecular point group: c1

    Geometry (in Angstrom), charge = 0, multiplicity = 1:

       Center              X                  Y                   Z               Mass
    ------------   -----------------  -----------------  -----------------  -----------------
         O            0.375831831606    -1.474043616202    -0.131803982559    15.994914619570
         O            1.393367831606     2.067035383798    -0.421821982559    15.994914619570
         O           -1.233480168394     2.351984383798     0.464227017441    15.994914619570
         O           -2.907742168394     0.060004383798    -0.170745982559    15.994914619570
         O            2.910626831606    -0.683844616202     0.954317017441    15.994914619570
         O           -1.675650168394    -2.354242616202     0.003333017441    15.994914619570
         C            0.676982831606     0.931904383798     0.067847017441    12.000000000000
         C           -0.792820168394     1.183519383798    -0.204265982559    12.000000000000
         C            1.118294831606    -0.332443616202    -0.646931982559    12.000000000000
         C           -1.588282168394     0.011241383798     0.327161017441    12.000000000000
         C            2.577759831606    -0.672327616202    -0.428991982559    12.000000000000
         C           -0.977197168394    -1.358210616202     0.009772017441    12.000000000000
         H            0.828535831606     0.809168383798     1.147411017441     1.007825032230
         H           -0.953516168394     1.264123383798    -1.291641982559     1.007825032230
         H            0.917153831606    -0.240318616202    -1.723305982559     1.007825032230
         H           -1.575236168394     0.092291383798     1.429137017441     1.007825032230
         H            3.199006831606     0.095770383798    -0.895834982559     1.007825032230
         H            2.800281831606    -1.633508616202    -0.910030982559     1.007825032230
         H            2.209429831606     2.141515383798     0.103658017441     1.007825032230
         H           -0.598614568394     3.065341283798     0.181606317441     1.007825032230
         H           -3.269800168394    -0.838191616202    -0.037984982559     1.007825032230
         H            2.406192831606    -1.416981616202     1.350430017441     1.007825032230

  Basis Set: AUG-CC-PVTZ
    Blend: AUG-CC-PVTZ
  Basis Set: (AUG-CC-PVTZ AUX)
    Blend: AUG-CC-PVTZ-JKFIT
	 Reference Energy          =    -682.4532178975216539 [Eh]
	 Singles Energy            =      -0.0000000000000000 [Eh]
	 Same-Spin Energy          =      -0.6627110737907705 [Eh]
	 Opposite-Spin Energy      =      -2.0114511411705425 [Eh]
	 Correlation Energy        =      -2.6741622149613131 [Eh]
	 Total Energy              =    -685.1273801124829106 [Eh]

	 ================> DF-SCS-MP2 Energies <==================
	-----------------------------------------------------------
	 SCS Same-Spin Scale       =       0.3333333333333333 [-]
	 SCS Opposite-Spin Scale   =       1.2000000000000000 [-]
	 SCS Same-Spin Energy      =      -0.2209036912635902 [Eh]
	 SCS Opposite-Spin Energy  =      -2.4137413694046508 [Eh]
	 SCS Correlation Energy    =      -2.6346450606682410 [Eh]
	 SCS Total Energy          =    -685.0878629581899304 [Eh]
	-----------------------------------------------------------

  Dipole Moment: [D]
     X:     3.4081      Y:     0.5895      Z:    -0.2688     Total:     3.4691

*** Psi4 exiting successfully. Buy a developer a beer!
