                               Psi4 1.4a3.dev225

  ==> Input File <==

--------------------------------------------------------------------------
#psi4
#
memory 32 gb

molecule  {
0 1
  O        0.3445260    -1.4915130    -0.1284710
  O        1.3620620     2.0495660    -0.4184890
  O       -1.2647860     2.3345150     0.4675600
  O       -2.9390480     0.0425350    -0.1674130
  O        2.8793210    -0.7013140     0.9576500
  O       -1.7069560    -2.3717120     0.0066660
  C        0.6456770     0.9144350     0.0711800
  C       -0.8241260     1.1660500    -0.2009330
  C        1.0869890    -0.3499130    -0.6435990
  C       -1.6195880    -0.0062280     0.3304940
  C        2.5464540    -0.6897970    -0.4256590
  C       -0.8103061    -1.3926477    -0.0076336
  H        0.7972300     0.7916990     1.1507440
  H       -0.9848220     1.2466540    -1.2883090
  H        0.8858480    -0.2577880    -1.7199730
  H       -1.6065420     0.0748220     1.4324700
  H        3.1677010     0.0783010    -0.8925020
  H        2.7689760    -1.6509780    -0.9066980
  H        2.1781240     2.1240460     0.1069910
  H       -0.6426700     3.0335460     0.1906150
  H       -3.3011060    -0.8556610    -0.0346520
  H        2.3748870    -1.4344510     1.3537630
units angstrom
no_reorient  #important for SAPT in psi4, default
symmetry c1  #important for SAPT in psi4, default
}

set PROPERTIES_ORIGIN ["COM"]
properties('MP2/aug-cc-pvtz', properties = ['dipole'])
--------------------------------------------------------------------------

    Molecular point group: c1
  Charge       = 0
  Multiplicity = 1
  Basis Set: AUG-CC-PVTZ
    Blend: AUG-CC-PVTZ
  Basis Set: (AUG-CC-PVTZ AUX)
    Blend: AUG-CC-PVTZ-JKFIT

    Orbital Energies [Eh]
    ---------------------

    Doubly Occupied:

       1A    -20.672390     2A    -20.610482     3A    -20.602358
       4A    -20.572764     5A    -20.566540     6A    -20.526907
       7A    -11.402227     8A    -11.352575     9A    -11.325620
      10A    -11.324026    11A    -11.317474    12A    -11.303576
      13A     -1.582601    14A     -1.417053    15A     -1.401952
      16A     -1.381449    17A     -1.362201    18A     -1.300976
      19A     -1.126907    20A     -1.063952    21A     -0.953108
      22A     -0.915156    23A     -0.870974    24A     -0.824116
      25A     -0.766839    26A     -0.759347    27A     -0.732634
      28A     -0.727813    29A     -0.701494    30A     -0.688957
      31A     -0.674908    32A     -0.645086    33A     -0.640130
      34A     -0.623281    35A     -0.618458    36A     -0.596644
      37A     -0.581587    38A     -0.565531    39A     -0.546876
      40A     -0.535260    41A     -0.516039    42A     -0.489552
      43A     -0.486367    44A     -0.466063    45A     -0.459550
      46A     -0.442024    47A     -0.420026

  @DF-RHF Final Energy:  -682.39658282341372

   => Energetics <=

    Nuclear Repulsion Energy =            802.7923220377016378
    One-Electron Energy =               -2531.4541136624707178
    Two-Electron Energy =                1046.2652088013555840
    Total Energy =                       -682.3965828234136097
  Basis Set: (AUG-CC-PVTZ AUX)
    Blend: AUG-CC-PVTZ-RI
    Molecular point group: c1

    Geometry (in Angstrom), charge = 0, multiplicity = 1:

       Center              X                  Y                   Z               Mass
    ------------   -----------------  -----------------  -----------------  -----------------
         O            0.362545993437    -1.472818942398    -0.130438376401    15.994914619570
         O            1.380081993437     2.068260057602    -0.420456376401    15.994914619570
         O           -1.246766006563     2.353209057602     0.465592623599    15.994914619570
         O           -2.921028006563     0.061229057602    -0.169380376401    15.994914619570
         O            2.897340993437    -0.682619942398     0.955682623599    15.994914619570
         O           -1.688936006563    -2.353017942398     0.004698623599    15.994914619570
         C            0.663696993437     0.933129057602     0.069212623599    12.000000000000
         C           -0.806106006563     1.184744057602    -0.202900376401    12.000000000000
         C            1.105008993437    -0.331218942398    -0.645566376401    12.000000000000
         C           -1.601568006563     0.012466057602     0.328526623599    12.000000000000
         C            2.564473993437    -0.671102942398    -0.427626376401    12.000000000000
         C           -0.792286106563    -1.373953642398    -0.009600976401    12.000000000000
         H            0.815249993437     0.810393057602     1.148776623599     1.007825032230
         H           -0.966802006563     1.265348057602    -1.290276376401     1.007825032230
         H            0.903867993437    -0.239093942398    -1.721940376401     1.007825032230
         H           -1.588522006563     0.093516057602     1.430502623599     1.007825032230
         H            3.185720993437     0.096995057602    -0.894469376401     1.007825032230
         H            2.786995993437    -1.632283942398    -0.908665376401     1.007825032230
         H            2.196143993437     2.142740057602     0.105023623599     1.007825032230
         H           -0.624650006563     3.052240057602     0.188647623599     1.007825032230
         H           -3.283086006563    -0.836966942398    -0.036619376401     1.007825032230
         H            2.392906993437    -1.415756942398     1.351795623599     1.007825032230

  Basis Set: AUG-CC-PVTZ
    Blend: AUG-CC-PVTZ
  Basis Set: (AUG-CC-PVTZ AUX)
    Blend: AUG-CC-PVTZ-JKFIT
	 Reference Energy          =    -682.3965828234137234 [Eh]
	 Singles Energy            =      -0.0000000000000000 [Eh]
	 Same-Spin Energy          =      -0.6639485363345866 [Eh]
	 Opposite-Spin Energy      =      -2.0127458938246523 [Eh]
	 Correlation Energy        =      -2.6766944301592388 [Eh]
	 Total Energy              =    -685.0732772535729964 [Eh]

	 ================> DF-SCS-MP2 Energies <==================
	-----------------------------------------------------------
	 SCS Same-Spin Scale       =       0.3333333333333333 [-]
	 SCS Opposite-Spin Scale   =       1.2000000000000000 [-]
	 SCS Same-Spin Energy      =      -0.2213161787781955 [Eh]
	 SCS Opposite-Spin Energy  =      -2.4152950725895828 [Eh]
	 SCS Correlation Energy    =      -2.6366112513677784 [Eh]
	 SCS Total Energy          =    -685.0331940747814770 [Eh]
	-----------------------------------------------------------

  Dipole Moment: [D]
     X:     5.2140      Y:     1.0250      Z:    -0.4953     Total:     5.3369

*** Psi4 exiting successfully. Buy a developer a beer!
