                               Psi4 1.4a3.dev225

  ==> Input File <==

--------------------------------------------------------------------------
#psi4
#
memory 32 gb

molecule  {
0 1
  O        0.3314660    -1.5844195    -0.1451969
  O        1.3620620     2.0495660    -0.4184890
  O       -1.2647860     2.3345150     0.4675600
  O       -2.9390480     0.0425350    -0.1674130
  O        2.8793210    -0.7013140     0.9576500
  O       -1.7069560    -2.3717120     0.0066660
  C        0.6456770     0.9144350     0.0711800
  C       -0.8241260     1.1660500    -0.2009330
  C        1.0869890    -0.3499130    -0.6435990
  C       -1.6195880    -0.0062280     0.3304940
  C        2.5464540    -0.6897970    -0.4256590
  C       -1.0085030    -1.3756800     0.0131050
  H        0.7972300     0.7916990     1.1507440
  H       -0.9848220     1.2466540    -1.2883090
  H        0.8858480    -0.2577880    -1.7199730
  H       -1.6065420     0.0748220     1.4324700
  H        3.1677010     0.0783010    -0.8925020
  H        2.7689760    -1.6509780    -0.9066980
  H        2.1781240     2.1240460     0.1069910
  H       -0.6426700     3.0335460     0.1906150
  H       -3.3011060    -0.8556610    -0.0346520
  H        2.3748870    -1.4344510     1.3537630
units angstrom
no_reorient  #important for SAPT in psi4, default
symmetry c1  #important for SAPT in psi4, default
}

set PROPERTIES_ORIGIN ["COM"]
properties('MP2/aug-cc-pvtz', properties = ['dipole'])
--------------------------------------------------------------------------

    Molecular point group: c1
  Charge       = 0
  Multiplicity = 1
  Basis Set: AUG-CC-PVTZ
    Blend: AUG-CC-PVTZ
  Basis Set: (AUG-CC-PVTZ AUX)
    Blend: AUG-CC-PVTZ-JKFIT

    Orbital Energies [Eh]
    ---------------------

    Doubly Occupied:

       1A    -20.629331     2A    -20.604890     3A    -20.588433
       4A    -20.576676     5A    -20.576286     6A    -20.561322
       7A    -11.400967     8A    -11.331626     9A    -11.323922
      10A    -11.319326    11A    -11.309367    12A    -11.308973
      13A     -1.467789    14A     -1.412337    15A     -1.395244
      16A     -1.384957    17A     -1.371241    18A     -1.357353
      19A     -1.102524    20A     -1.054260    21A     -0.957850
      22A     -0.878445    23A     -0.857096    24A     -0.799547
      25A     -0.762419    26A     -0.741966    27A     -0.719276
      28A     -0.707351    29A     -0.692583    30A     -0.679761
      31A     -0.660922    32A     -0.643088    33A     -0.630986
      34A     -0.616958    35A     -0.614667    36A     -0.591918
      37A     -0.580504    38A     -0.561691    39A     -0.542378
      40A     -0.534405    41A     -0.519317    42A     -0.500789
      43A     -0.483811    44A     -0.478516    45A     -0.472160
      46A     -0.465088    47A     -0.448599

  @DF-RHF Final Energy:  -682.44690886805643

   => Energetics <=

    Nuclear Repulsion Energy =            798.9462771878806961
    One-Electron Energy =               -2524.3485480196573008
    Two-Electron Energy =                1042.9553619637201791
    Total Energy =                       -682.4469088680564255
  Basis Set: (AUG-CC-PVTZ AUX)
    Blend: AUG-CC-PVTZ-RI
    Molecular point group: c1

    Geometry (in Angstrom), charge = 0, multiplicity = 1:

       Center              X                  Y                   Z               Mass
    ------------   -----------------  -----------------  -----------------  -----------------
         O            0.364017244513    -1.558522772209    -0.147059438549    15.994914619570
         O            1.394613244513     2.075462727791    -0.420351538549    15.994914619570
         O           -1.232234755487     2.360411727791     0.465697461451    15.994914619570
         O           -2.906496755487     0.068431727791    -0.169275538549    15.994914619570
         O            2.911872244513    -0.675417272209     0.955787461451    15.994914619570
         O           -1.674404755487    -2.345815272209     0.004803461451    15.994914619570
         C            0.678228244513     0.940331727791     0.069317461451    12.000000000000
         C           -0.791574755487     1.191946727791    -0.202795538549    12.000000000000
         C            1.119540244513    -0.324016272209    -0.645461538549    12.000000000000
         C           -1.587036755487     0.019668727791     0.328631461451    12.000000000000
         C            2.579005244513    -0.663900272209    -0.427521538549    12.000000000000
         C           -0.975951755487    -1.349783272209     0.011242461451    12.000000000000
         H            0.829781244513     0.817595727791     1.148881461451     1.007825032230
         H           -0.952270755487     1.272550727791    -1.290171538549     1.007825032230
         H            0.918399244513    -0.231891272209    -1.721835538549     1.007825032230
         H           -1.573990755487     0.100718727791     1.430607461451     1.007825032230
         H            3.200252244513     0.104197727791    -0.894364538549     1.007825032230
         H            2.801527244513    -1.625081272209    -0.908560538549     1.007825032230
         H            2.210675244513     2.149942727791     0.105128461451     1.007825032230
         H           -0.610118755487     3.059442727791     0.188752461451     1.007825032230
         H           -3.268554755487    -0.829764272209    -0.036514538549     1.007825032230
         H            2.407438244513    -1.408554272209     1.351900461451     1.007825032230

  Basis Set: AUG-CC-PVTZ
    Blend: AUG-CC-PVTZ
  Basis Set: (AUG-CC-PVTZ AUX)
    Blend: AUG-CC-PVTZ-JKFIT
	 Reference Energy          =    -682.4469088680564255 [Eh]
	 Singles Energy            =      -0.0000000000000000 [Eh]
	 Same-Spin Energy          =      -0.6629757733578838 [Eh]
	 Opposite-Spin Energy      =      -2.0130467118932964 [Eh]
	 Correlation Energy        =      -2.6760224852511802 [Eh]
	 Total Energy              =    -685.1229313533076493 [Eh]

	 ================> DF-SCS-MP2 Energies <==================
	-----------------------------------------------------------
	 SCS Same-Spin Scale       =       0.3333333333333333 [-]
	 SCS Opposite-Spin Scale   =       1.2000000000000000 [-]
	 SCS Same-Spin Energy      =      -0.2209919244526279 [Eh]
	 SCS Opposite-Spin Energy  =      -2.4156560542719556 [Eh]
	 SCS Correlation Energy    =      -2.6366479787245836 [Eh]
	 SCS Total Energy          =    -685.0835568467809935 [Eh]
	-----------------------------------------------------------

  Dipole Moment: [D]
     X:     3.5020      Y:     0.8540      Z:    -0.2605     Total:     3.6141

*** Psi4 exiting successfully. Buy a developer a beer!
