                               Psi4 1.4a3.dev225

  ==> Input File <==

--------------------------------------------------------------------------
#psi4
#
memory 32 gb

molecule  {
0 1
  O        0.3445260    -1.4915130    -0.1284710
  O        1.3620620     2.0495660    -0.4184890
  O       -1.2647860     2.3345150     0.4675600
  O       -2.9390480     0.0425350    -0.1674130
  O        2.8793210    -0.7013140     0.9576500
  O       -1.7069560    -2.3717120     0.0066660
  C        0.6456770     0.9144350     0.0711800
  C       -0.8241260     1.1660500    -0.2009330
  C        1.0869890    -0.3499130    -0.6435990
  C       -1.6195880    -0.0062280     0.3304940
  C        2.5464540    -0.6897970    -0.4256590
  C       -1.0085030    -1.3756800     0.0131050
  H        0.7972300     0.7916990     1.1507440
  H       -1.0139828     1.2612809    -1.4856303
  H        0.8858480    -0.2577880    -1.7199730
  H       -1.6065420     0.0748220     1.4324700
  H        3.1677010     0.0783010    -0.8925020
  H        2.7689760    -1.6509780    -0.9066980
  H        2.1781240     2.1240460     0.1069910
  H       -0.6426700     3.0335460     0.1906150
  H       -3.3011060    -0.8556610    -0.0346520
  H        2.3748870    -1.4344510     1.3537630
units angstrom
no_reorient  #important for SAPT in psi4, default
symmetry c1  #important for SAPT in psi4, default
}

set PROPERTIES_ORIGIN ["COM"]
properties('MP2/aug-cc-pvtz', properties = ['dipole'])
--------------------------------------------------------------------------

    Molecular point group: c1
  Charge       = 0
  Multiplicity = 1
  Basis Set: AUG-CC-PVTZ
    Blend: AUG-CC-PVTZ
  Basis Set: (AUG-CC-PVTZ AUX)
    Blend: AUG-CC-PVTZ-JKFIT

    Orbital Energies [Eh]
    ---------------------

    Doubly Occupied:

       1A    -20.629851     2A    -20.601026     3A    -20.587744
       4A    -20.579780     5A    -20.575540     6A    -20.569622
       7A    -11.407467     8A    -11.329035     9A    -11.325880
      10A    -11.323396    11A    -11.317012    12A    -11.307426
      13A     -1.477823    14A     -1.410091    15A     -1.399523
      16A     -1.384152    17A     -1.376200    18A     -1.364005
      19A     -1.096847    20A     -1.057677    21A     -0.957001
      22A     -0.870504    23A     -0.866661    24A     -0.794412
      25A     -0.762603    26A     -0.741406    27A     -0.720934
      28A     -0.704415    29A     -0.694292    30A     -0.684331
      31A     -0.661973    32A     -0.641305    33A     -0.627323
      34A     -0.618303    35A     -0.611174    36A     -0.588985
      37A     -0.581235    38A     -0.558832    39A     -0.540602
      40A     -0.534683    41A     -0.519301    42A     -0.504467
      43A     -0.485044    44A     -0.477476    45A     -0.468281
      46A     -0.456709    47A     -0.444797

  @DF-RHF Final Energy:  -682.43447452432804

   => Energetics <=

    Nuclear Repulsion Energy =            800.2540208357072515
    One-Electron Energy =               -2526.9026940057206048
    Two-Electron Energy =                1044.2141986456854283
    Total Energy =                       -682.4344745243279249
  Basis Set: (AUG-CC-PVTZ AUX)
    Blend: AUG-CC-PVTZ-RI
    Molecular point group: c1

    Geometry (in Angstrom), charge = 0, multiplicity = 1:

       Center              X                  Y                   Z               Mass
    ------------   -----------------  -----------------  -----------------  -----------------
         O            0.376069062085    -1.474045319989    -0.130719187913    15.994914619570
         O            1.393605062085     2.067033680011    -0.420737187913    15.994914619570
         O           -1.233242937915     2.351982680011     0.465311812087    15.994914619570
         O           -2.907504937915     0.060002680011    -0.169661187913    15.994914619570
         O            2.910864062085    -0.683846319989     0.955401812087    15.994914619570
         O           -1.675412937915    -2.354244319989     0.004417812087    15.994914619570
         C            0.677220062085     0.931902680011     0.068931812087    12.000000000000
         C           -0.792582937915     1.183517680011    -0.203181187913    12.000000000000
         C            1.118532062085    -0.332445319989    -0.645847187913    12.000000000000
         C           -1.588044937915     0.011239680011     0.328245812087    12.000000000000
         C            2.577997062085    -0.672329319989    -0.427907187913    12.000000000000
         C           -0.976959937915    -1.358212319989     0.010856812087    12.000000000000
         H            0.828773062085     0.809166680011     1.148495812087     1.007825032230
         H           -0.982439737915     1.278748580011    -1.487878487913     1.007825032230
         H            0.917391062085    -0.240320319989    -1.722221187913     1.007825032230
         H           -1.574998937915     0.092289680011     1.430221812087     1.007825032230
         H            3.199244062085     0.095768680011    -0.894750187913     1.007825032230
         H            2.800519062085    -1.633510319989    -0.908946187913     1.007825032230
         H            2.209667062085     2.141513680011     0.104742812087     1.007825032230
         H           -0.611126937915     3.051013680011     0.188366812087     1.007825032230
         H           -3.269562937915    -0.838193319989    -0.036900187913     1.007825032230
         H            2.406430062085    -1.416983319989     1.351514812087     1.007825032230

  Basis Set: AUG-CC-PVTZ
    Blend: AUG-CC-PVTZ
  Basis Set: (AUG-CC-PVTZ AUX)
    Blend: AUG-CC-PVTZ-JKFIT
	 Reference Energy          =    -682.4344745243280386 [Eh]
	 Singles Energy            =      -0.0000000000000000 [Eh]
	 Same-Spin Energy          =      -0.6630299322440937 [Eh]
	 Opposite-Spin Energy      =      -2.0130257605332398 [Eh]
	 Correlation Energy        =      -2.6760556927773336 [Eh]
	 Total Energy              =    -685.1105302171054063 [Eh]

	 ================> DF-SCS-MP2 Energies <==================
	-----------------------------------------------------------
	 SCS Same-Spin Scale       =       0.3333333333333333 [-]
	 SCS Opposite-Spin Scale   =       1.2000000000000000 [-]
	 SCS Same-Spin Energy      =      -0.2210099774146979 [Eh]
	 SCS Opposite-Spin Energy  =      -2.4156309126398878 [Eh]
	 SCS Correlation Energy    =      -2.6366408900545859 [Eh]
	 SCS Total Energy          =    -685.0711154143825752 [Eh]
	-----------------------------------------------------------

  Dipole Moment: [D]
     X:     3.3889      Y:     0.6139      Z:    -0.1215     Total:     3.4462

*** Psi4 exiting successfully. Buy a developer a beer!
