                               Psi4 1.4a3.dev225

  ==> Input File <==

--------------------------------------------------------------------------
#psi4
#
memory 32 gb

molecule  {
0 1
  O        0.3445260    -1.4915130    -0.1284710
  O        1.3620620     2.0495660    -0.4184890
  O       -1.2647860     2.3345150     0.4675600
  O       -2.9390480     0.0425350    -0.1674130
  O        2.8793210    -0.7013140     0.9576500
  O       -1.7069560    -2.3717120     0.0066660
  C        0.5955385     0.8349892     0.1054510
  C       -0.8241260     1.1660500    -0.2009330
  C        1.0869890    -0.3499130    -0.6435990
  C       -1.6195880    -0.0062280     0.3304940
  C        2.5464540    -0.6897970    -0.4256590
  C       -1.0085030    -1.3756800     0.0131050
  H        0.7972300     0.7916990     1.1507440
  H       -0.9848220     1.2466540    -1.2883090
  H        0.8858480    -0.2577880    -1.7199730
  H       -1.6065420     0.0748220     1.4324700
  H        3.1677010     0.0783010    -0.8925020
  H        2.7689760    -1.6509780    -0.9066980
  H        2.1781240     2.1240460     0.1069910
  H       -0.6426700     3.0335460     0.1906150
  H       -3.3011060    -0.8556610    -0.0346520
  H        2.3748870    -1.4344510     1.3537630
units angstrom
no_reorient  #important for SAPT in psi4, default
symmetry c1  #important for SAPT in psi4, default
}

set PROPERTIES_ORIGIN ["COM"]
properties('MP2/aug-cc-pvtz', properties = ['dipole'])
--------------------------------------------------------------------------

    Molecular point group: c1
  Charge       = 0
  Multiplicity = 1
  Basis Set: AUG-CC-PVTZ
    Blend: AUG-CC-PVTZ
  Basis Set: (AUG-CC-PVTZ AUX)
    Blend: AUG-CC-PVTZ-JKFIT

    Orbital Energies [Eh]
    ---------------------

    Doubly Occupied:

       1A    -20.629822     2A    -20.589299     3A    -20.588838
       4A    -20.576752     5A    -20.576161     6A    -20.570855
       7A    -11.408592     8A    -11.329791     9A    -11.322051
      10A    -11.315672    11A    -11.309718    12A    -11.309572
      13A     -1.480197    14A     -1.400945    15A     -1.395370
      16A     -1.382989    17A     -1.366537    18A     -1.354671
      19A     -1.109540    20A     -1.063004    21A     -0.959169
      22A     -0.881684    23A     -0.869020    24A     -0.807780
      25A     -0.759868    26A     -0.730994    27A     -0.721317
      28A     -0.710107    29A     -0.694302    30A     -0.687745
      31A     -0.657058    32A     -0.644626    33A     -0.628438
      34A     -0.616638    35A     -0.614510    36A     -0.586054
      37A     -0.583861    38A     -0.553541    39A     -0.541420
      40A     -0.531637    41A     -0.517515    42A     -0.503295
      43A     -0.487116    44A     -0.480029    45A     -0.476671
      46A     -0.472284    47A     -0.450540

  @DF-RHF Final Energy:  -682.44343036714497

   => Energetics <=

    Nuclear Repulsion Energy =            801.8952513891345006
    One-Electron Energy =               -2530.1821772503767534
    Two-Electron Energy =                1045.8434954940971693
    Total Energy =                       -682.4434303671450834
  Basis Set: (AUG-CC-PVTZ AUX)
    Blend: AUG-CC-PVTZ-RI
    Molecular point group: c1

    Geometry (in Angstrom), charge = 0, multiplicity = 1:

       Center              X                  Y                   Z               Mass
    ------------   -----------------  -----------------  -----------------  -----------------
         O            0.379283217020    -1.468608064977    -0.134145894437    15.994914619570
         O            1.396819217020     2.072470935023    -0.424163894437    15.994914619570
         O           -1.230028782980     2.357419935023     0.461885105563    15.994914619570
         O           -2.904290782980     0.065439935023    -0.173087894437    15.994914619570
         O            2.914078217020    -0.678409064977     0.951975105563    15.994914619570
         O           -1.672198782980    -2.348807064977     0.000991105563    15.994914619570
         C            0.630295717020     0.857894135023     0.099776105563    12.000000000000
         C           -0.789368782980     1.188954935023    -0.206607894437    12.000000000000
         C            1.121746217020    -0.327008064977    -0.649273894437    12.000000000000
         C           -1.584830782980     0.016676935023     0.324819105563    12.000000000000
         C            2.581211217020    -0.666892064977    -0.431333894437    12.000000000000
         C           -0.973745782980    -1.352775064977     0.007430105563    12.000000000000
         H            0.831987217020     0.814603935023     1.145069105563     1.007825032230
         H           -0.950064782980     1.269558935023    -1.293983894437     1.007825032230
         H            0.920605217020    -0.234883064977    -1.725647894437     1.007825032230
         H           -1.571784782980     0.097726935023     1.426795105563     1.007825032230
         H            3.202458217020     0.101205935023    -0.898176894437     1.007825032230
         H            2.803733217020    -1.628073064977    -0.912372894437     1.007825032230
         H            2.212881217020     2.146950935023     0.101316105563     1.007825032230
         H           -0.607912782980     3.056450935023     0.184940105563     1.007825032230
         H           -3.266348782980    -0.832756064977    -0.040326894437     1.007825032230
         H            2.409644217020    -1.411546064977     1.348088105563     1.007825032230

  Basis Set: AUG-CC-PVTZ
    Blend: AUG-CC-PVTZ
  Basis Set: (AUG-CC-PVTZ AUX)
    Blend: AUG-CC-PVTZ-JKFIT
	 Reference Energy          =    -682.4434303671449698 [Eh]
	 Singles Energy            =      -0.0000000000000000 [Eh]
	 Same-Spin Energy          =      -0.6633523069411416 [Eh]
	 Opposite-Spin Energy      =      -2.0132863163401886 [Eh]
	 Correlation Energy        =      -2.6766386232813302 [Eh]
	 Total Energy              =    -685.1200689904262617 [Eh]

	 ================> DF-SCS-MP2 Energies <==================
	-----------------------------------------------------------
	 SCS Same-Spin Scale       =       0.3333333333333333 [-]
	 SCS Opposite-Spin Scale   =       1.2000000000000000 [-]
	 SCS Same-Spin Energy      =      -0.2211174356470472 [Eh]
	 SCS Opposite-Spin Energy  =      -2.4159435796082263 [Eh]
	 SCS Correlation Energy    =      -2.6370610152552736 [Eh]
	 SCS Total Energy          =    -685.0804913824002824 [Eh]
	-----------------------------------------------------------

  Dipole Moment: [D]
     X:     3.2426      Y:     0.3065      Z:    -0.2228     Total:     3.2646

*** Psi4 exiting successfully. Buy a developer a beer!
