                               Psi4 1.4a3.dev225

  ==> Input File <==

--------------------------------------------------------------------------
#psi4
#
memory 32 gb

molecule  {
0 1
  O        0.3445260    -1.4915130    -0.1284710
  O        1.3620620     2.0495660    -0.4184890
  O       -1.2647860     2.3345150     0.4675600
  O       -2.9390480     0.0425350    -0.1674130
  O        2.8793210    -0.7013140     0.9576500
  O       -1.7069560    -2.3717120     0.0066660
  C        0.6456770     0.9144350     0.0711800
  C       -0.8241260     1.1660500    -0.2009330
  C        1.0869890    -0.3499130    -0.6435990
  C       -1.6195880    -0.0062280     0.3304940
  C        2.5464540    -0.6897970    -0.4256590
  C       -1.0085030    -1.3756800     0.0131050
  H        0.7972300     0.7916990     1.1507440
  H       -0.9848220     1.2466540    -1.2883090
  H        0.8858480    -0.2577880    -1.7199730
  H       -1.6067781     0.0733551     1.4125253
  H        3.1677010     0.0783010    -0.8925020
  H        2.7689760    -1.6509780    -0.9066980
  H        2.1781240     2.1240460     0.1069910
  H       -0.6426700     3.0335460     0.1906150
  H       -3.3011060    -0.8556610    -0.0346520
  H        2.3748870    -1.4344510     1.3537630
units angstrom
no_reorient  #important for SAPT in psi4, default
symmetry c1  #important for SAPT in psi4, default
}

set PROPERTIES_ORIGIN ["COM"]
properties('MP2/aug-cc-pvtz', properties = ['dipole'])
--------------------------------------------------------------------------

    Molecular point group: c1
  Charge       = 0
  Multiplicity = 1
  Basis Set: AUG-CC-PVTZ
    Blend: AUG-CC-PVTZ
  Basis Set: (AUG-CC-PVTZ AUX)
    Blend: AUG-CC-PVTZ-JKFIT

    Orbital Energies [Eh]
    ---------------------

    Doubly Occupied:

       1A    -20.629794     2A    -20.600671     3A    -20.587658
       4A    -20.575159     5A    -20.574908     6A    -20.569338
       7A    -11.406876     8A    -11.326287     9A    -11.318897
      10A    -11.314649    11A    -11.307542    12A    -11.307171
      13A     -1.477731    14A     -1.409376    15A     -1.399148
      16A     -1.383946    17A     -1.374896    18A     -1.362770
      19A     -1.098435    20A     -1.058843    21A     -0.957184
      22A     -0.876605    23A     -0.868480    24A     -0.802219
      25A     -0.762241    26A     -0.742341    27A     -0.721076
      28A     -0.709110    29A     -0.694853    30A     -0.686365
      31A     -0.663073    32A     -0.643891    33A     -0.628800
      34A     -0.616994    35A     -0.615242    36A     -0.590160
      37A     -0.583371    38A     -0.560026    39A     -0.541238
      40A     -0.534189    41A     -0.519678    42A     -0.504366
      43A     -0.484409    44A     -0.478235    45A     -0.472756
      46A     -0.465223    47A     -0.445327

  @DF-RHF Final Energy:  -682.45501773732008

   => Energetics <=

    Nuclear Repulsion Energy =            801.4716634683310303
    One-Electron Energy =               -2529.3502741938314102
    Two-Electron Energy =                1045.4235929881804168
    Total Energy =                       -682.4550177373200768
  Basis Set: (AUG-CC-PVTZ AUX)
    Blend: AUG-CC-PVTZ-RI
    Molecular point group: c1

    Geometry (in Angstrom), charge = 0, multiplicity = 1:

       Center              X                  Y                   Z               Mass
    ------------   -----------------  -----------------  -----------------  -----------------
         O            0.375905336126    -1.473954222316    -0.131723214022    15.994914619570
         O            1.393441336126     2.067124777684    -0.421741214022    15.994914619570
         O           -1.233406663874     2.352073777684     0.464307785978    15.994914619570
         O           -2.907668663874     0.060093777684    -0.170665214022    15.994914619570
         O            2.910700336126    -0.683755222316     0.954397785978    15.994914619570
         O           -1.675576663874    -2.354153222316     0.003413785978    15.994914619570
         C            0.677056336126     0.931993777684     0.067927785978    12.000000000000
         C           -0.792746663874     1.183608777684    -0.204185214022    12.000000000000
         C            1.118368336126    -0.332354222316    -0.646851214022    12.000000000000
         C           -1.588208663874     0.011330777684     0.327241785978    12.000000000000
         C            2.577833336126    -0.672238222316    -0.428911214022    12.000000000000
         C           -0.977123663874    -1.358121222316     0.009852785978    12.000000000000
         H            0.828609336126     0.809257777684     1.147491785978     1.007825032230
         H           -0.953442663874     1.264212777684    -1.291561214022     1.007825032230
         H            0.917227336126    -0.240229222316    -1.723225214022     1.007825032230
         H           -1.575398763874     0.090913877684     1.409273085978     1.007825032230
         H            3.199080336126     0.095859777684    -0.895754214022     1.007825032230
         H            2.800355336126    -1.633419222316    -0.909950214022     1.007825032230
         H            2.209503336126     2.141604777684     0.103738785978     1.007825032230
         H           -0.611290663874     3.051104777684     0.187362785978     1.007825032230
         H           -3.269726663874    -0.838102222316    -0.037904214022     1.007825032230
         H            2.406266336126    -1.416892222316     1.350510785978     1.007825032230

  Basis Set: AUG-CC-PVTZ
    Blend: AUG-CC-PVTZ
  Basis Set: (AUG-CC-PVTZ AUX)
    Blend: AUG-CC-PVTZ-JKFIT
	 Reference Energy          =    -682.4550177373200768 [Eh]
	 Singles Energy            =      -0.0000000000000000 [Eh]
	 Same-Spin Energy          =      -0.6623994906955698 [Eh]
	 Opposite-Spin Energy      =      -2.0106451807475838 [Eh]
	 Correlation Energy        =      -2.6730446714431535 [Eh]
	 Total Energy              =    -685.1280624087631850 [Eh]

	 ================> DF-SCS-MP2 Energies <==================
	-----------------------------------------------------------
	 SCS Same-Spin Scale       =       0.3333333333333333 [-]
	 SCS Opposite-Spin Scale   =       1.2000000000000000 [-]
	 SCS Same-Spin Energy      =      -0.2207998302318566 [Eh]
	 SCS Opposite-Spin Energy  =      -2.4127742168971005 [Eh]
	 SCS Correlation Energy    =      -2.6335740471289570 [Eh]
	 SCS Total Energy          =    -685.0885917844490223 [Eh]
	-----------------------------------------------------------

  Dipole Moment: [D]
     X:     3.4042      Y:     0.5702      Z:    -0.2594     Total:     3.4613

*** Psi4 exiting successfully. Buy a developer a beer!
