                               Psi4 1.4a3.dev225

  ==> Input File <==

--------------------------------------------------------------------------
#psi4
#
memory 32 gb

molecule  {
0 1
  O        0.3445260    -1.4915130    -0.1284710
  O        1.3620620     2.0495660    -0.4184890
  O       -1.2647860     2.3345150     0.4675600
  O       -2.9390480     0.0425350    -0.1674130
  O        2.8793210    -0.7013140     0.9576500
  O       -1.7069560    -2.3717120     0.0066660
  C        0.6456770     0.9144350     0.0711800
  C       -0.8241260     1.1660500    -0.2009330
  C        1.0869890    -0.3499130    -0.6435990
  C       -1.6195880    -0.0062280     0.3304940
  C        2.5464540    -0.6897970    -0.4256590
  C       -1.0372097    -1.4166172     0.0128404
  H        0.7972300     0.7916990     1.1507440
  H       -0.9848220     1.2466540    -1.2883090
  H        0.8858480    -0.2577880    -1.7199730
  H       -1.6065420     0.0748220     1.4324700
  H        3.1677010     0.0783010    -0.8925020
  H        2.7689760    -1.6509780    -0.9066980
  H        2.1781240     2.1240460     0.1069910
  H       -0.6426700     3.0335460     0.1906150
  H       -3.3011060    -0.8556610    -0.0346520
  H        2.3748870    -1.4344510     1.3537630
units angstrom
no_reorient  #important for SAPT in psi4, default
symmetry c1  #important for SAPT in psi4, default
}

set PROPERTIES_ORIGIN ["COM"]
properties('MP2/aug-cc-pvtz', properties = ['dipole'])
--------------------------------------------------------------------------

    Molecular point group: c1
  Charge       = 0
  Multiplicity = 1
  Basis Set: AUG-CC-PVTZ
    Blend: AUG-CC-PVTZ
  Basis Set: (AUG-CC-PVTZ AUX)
    Blend: AUG-CC-PVTZ-JKFIT

    Orbital Energies [Eh]
    ---------------------

    Doubly Occupied:

       1A    -20.619521     2A    -20.597964     3A    -20.584951
       4A    -20.578267     5A    -20.574957     6A    -20.573419
       7A    -11.403226     8A    -11.322322     9A    -11.319564
      10A    -11.311406    11A    -11.305509    12A    -11.304649
      13A     -1.484822    14A     -1.412218    15A     -1.401445
      16A     -1.382294    17A     -1.379643    18A     -1.364556
      19A     -1.093201    20A     -1.052270    21A     -0.951899
      22A     -0.871988    23A     -0.862910    24A     -0.797227
      25A     -0.760055    26A     -0.739285    27A     -0.721301
      28A     -0.708864    29A     -0.695684    30A     -0.686341
      31A     -0.664122    32A     -0.645103    33A     -0.627962
      34A     -0.615430    35A     -0.612091    36A     -0.590111
      37A     -0.583999    38A     -0.558632    39A     -0.539782
      40A     -0.536839    41A     -0.519164    42A     -0.512710
      43A     -0.484223    44A     -0.477862    45A     -0.472369
      46A     -0.462117    47A     -0.439089

  @DF-RHF Final Energy:  -682.45519534890468

   => Energetics <=

    Nuclear Repulsion Energy =            800.9948081821763708
    One-Electron Energy =               -2528.4932834789988192
    Two-Electron Energy =                1045.0432799479178811
    Total Energy =                       -682.4551953489046809
  Basis Set: (AUG-CC-PVTZ AUX)
    Blend: AUG-CC-PVTZ-RI
    Molecular point group: c1

    Geometry (in Angstrom), charge = 0, multiplicity = 1:

       Center              X                  Y                   Z               Mass
    ------------   -----------------  -----------------  -----------------  -----------------
         O            0.377838763960    -1.471203454310    -0.131818275987    15.994914619570
         O            1.395374763960     2.069875545690    -0.421836275987    15.994914619570
         O           -1.231473236040     2.354824545690     0.464212724013    15.994914619570
         O           -2.905735236040     0.062844545690    -0.170760275987    15.994914619570
         O            2.912633763960    -0.681004454310     0.954302724013    15.994914619570
         O           -1.673643236040    -2.351402454310     0.003318724013    15.994914619570
         C            0.678989763960     0.934744545690     0.067832724013    12.000000000000
         C           -0.790813236040     1.186359545690    -0.204280275987    12.000000000000
         C            1.120301763960    -0.329603454310    -0.646946275987    12.000000000000
         C           -1.586275236040     0.014081545690     0.327146724013    12.000000000000
         C            2.579766763960    -0.669487454310    -0.429006275987    12.000000000000
         C           -1.003896936040    -1.396307654310     0.009493124013    12.000000000000
         H            0.830542763960     0.812008545690     1.147396724013     1.007825032230
         H           -0.951509236040     1.266963545690    -1.291656275987     1.007825032230
         H            0.919160763960    -0.237478454310    -1.723320275987     1.007825032230
         H           -1.573229236040     0.095131545690     1.429122724013     1.007825032230
         H            3.201013763960     0.098610545690    -0.895849275987     1.007825032230
         H            2.802288763960    -1.630668454310    -0.910045275987     1.007825032230
         H            2.211436763960     2.144355545690     0.103643724013     1.007825032230
         H           -0.609357236040     3.053855545690     0.187267724013     1.007825032230
         H           -3.267793236040    -0.835351454310    -0.037999275987     1.007825032230
         H            2.408199763960    -1.414141454310     1.350415724013     1.007825032230

  Basis Set: AUG-CC-PVTZ
    Blend: AUG-CC-PVTZ
  Basis Set: (AUG-CC-PVTZ AUX)
    Blend: AUG-CC-PVTZ-JKFIT
	 Reference Energy          =    -682.4551953489046809 [Eh]
	 Singles Energy            =      -0.0000000000000000 [Eh]
	 Same-Spin Energy          =      -0.6612429479910883 [Eh]
	 Opposite-Spin Energy      =      -2.0083846617410659 [Eh]
	 Correlation Energy        =      -2.6696276097321543 [Eh]
	 Total Energy              =    -685.1248229586368552 [Eh]

	 ================> DF-SCS-MP2 Energies <==================
	-----------------------------------------------------------
	 SCS Same-Spin Scale       =       0.3333333333333333 [-]
	 SCS Opposite-Spin Scale   =       1.2000000000000000 [-]
	 SCS Same-Spin Energy      =      -0.2204143159970294 [Eh]
	 SCS Opposite-Spin Energy  =      -2.4100615940892789 [Eh]
	 SCS Correlation Energy    =      -2.6304759100863082 [Eh]
	 SCS Total Energy          =    -685.0856712589909421 [Eh]
	-----------------------------------------------------------

  Dipole Moment: [D]
     X:     3.0703      Y:     0.2885      Z:    -0.2597     Total:     3.0947

*** Psi4 exiting successfully. Buy a developer a beer!
