                               Psi4 1.4a3.dev225

  ==> Input File <==

--------------------------------------------------------------------------
#psi4
#
memory 32 gb

molecule  {
0 1
  O        0.3445260    -1.4915130    -0.1284710
  O        1.3620620     2.0495660    -0.4184890
  O       -1.2647860     2.3345150     0.4675600
  O       -2.9390480     0.0425350    -0.1674130
  O        2.8793210    -0.7013140     0.9576500
  O       -1.7069560    -2.3717120     0.0066660
  C        0.6456770     0.9144350     0.0711800
  C       -0.8002725     1.1718464    -0.3038478
  C        1.0869890    -0.3499130    -0.6435990
  C       -1.6195880    -0.0062280     0.3304940
  C        2.5464540    -0.6897970    -0.4256590
  C       -1.0085030    -1.3756800     0.0131050
  H        0.7972300     0.7916990     1.1507440
  H       -0.9848220     1.2466540    -1.2883090
  H        0.8858480    -0.2577880    -1.7199730
  H       -1.6065420     0.0748220     1.4324700
  H        3.1677010     0.0783010    -0.8925020
  H        2.7689760    -1.6509780    -0.9066980
  H        2.1781240     2.1240460     0.1069910
  H       -0.6426700     3.0335460     0.1906150
  H       -3.3011060    -0.8556610    -0.0346520
  H        2.3748870    -1.4344510     1.3537630
units angstrom
no_reorient  #important for SAPT in psi4, default
symmetry c1  #important for SAPT in psi4, default
}

set PROPERTIES_ORIGIN ["COM"]
properties('MP2/aug-cc-pvtz', properties = ['dipole'])
--------------------------------------------------------------------------

    Molecular point group: c1
  Charge       = 0
  Multiplicity = 1
  Basis Set: AUG-CC-PVTZ
    Blend: AUG-CC-PVTZ
  Basis Set: (AUG-CC-PVTZ AUX)
    Blend: AUG-CC-PVTZ-JKFIT

    Orbital Energies [Eh]
    ---------------------

    Doubly Occupied:

       1A    -20.629672     2A    -20.599618     3A    -20.588269
       4A    -20.574596     5A    -20.571250     6A    -20.568147
       7A    -11.404619     8A    -11.326171     9A    -11.323105
      10A    -11.316275    11A    -11.307572    12A    -11.305067
      13A     -1.477215    14A     -1.407264    15A     -1.396977
      16A     -1.383766    17A     -1.369583    18A     -1.351547
      19A     -1.097629    20A     -1.053969    21A     -0.955386
      22A     -0.883516    23A     -0.866648    24A     -0.805577
      25A     -0.759316    26A     -0.742226    27A     -0.717605
      28A     -0.709838    29A     -0.691836    30A     -0.683452
      31A     -0.658280    32A     -0.646240    33A     -0.629395
      34A     -0.618009    35A     -0.607741    36A     -0.585207
      37A     -0.583542    38A     -0.559975    39A     -0.540623
      40A     -0.532633    41A     -0.517746    42A     -0.504040
      43A     -0.487224    44A     -0.479241    45A     -0.475826
      46A     -0.463360    47A     -0.443178

  @DF-RHF Final Energy:  -682.44019821291249

   => Energetics <=

    Nuclear Repulsion Energy =            800.4961899237424632
    One-Electron Energy =               -2527.4728395578426898
    Two-Electron Energy =                1044.5364514211878486
    Total Energy =                       -682.4401982129124917
  Basis Set: (AUG-CC-PVTZ AUX)
    Blend: AUG-CC-PVTZ-RI
    Molecular point group: c1

    Geometry (in Angstrom), charge = 0, multiplicity = 1:

       Center              X                  Y                   Z               Mass
    ------------   -----------------  -----------------  -----------------  -----------------
         O            0.374296329740    -1.474353189354    -0.124899893235    15.994914619570
         O            1.391832329740     2.066725810646    -0.414917893235    15.994914619570
         O           -1.235015670260     2.351674810646     0.471131106765    15.994914619570
         O           -2.909277670260     0.059694810646    -0.163841893235    15.994914619570
         O            2.909091329740    -0.684154189354     0.961221106765    15.994914619570
         O           -1.677185670260    -2.354552189354     0.010237106765    15.994914619570
         C            0.675447329740     0.931594810646     0.074751106765    12.000000000000
         C           -0.770502170260     1.189006210646    -0.300276693235    12.000000000000
         C            1.116759329740    -0.332753189354    -0.640027893235    12.000000000000
         C           -1.589817670260     0.010931810646     0.334065106765    12.000000000000
         C            2.576224329740    -0.672637189354    -0.422087893235    12.000000000000
         C           -0.978732670260    -1.358520189354     0.016676106765    12.000000000000
         H            0.827000329740     0.808858810646     1.154315106765     1.007825032230
         H           -0.955051670260     1.263813810646    -1.284737893235     1.007825032230
         H            0.915618329740    -0.240628189354    -1.716401893235     1.007825032230
         H           -1.576771670260     0.091981810646     1.436041106765     1.007825032230
         H            3.197471329740     0.095460810646    -0.888930893235     1.007825032230
         H            2.798746329740    -1.633818189354    -0.903126893235     1.007825032230
         H            2.207894329740     2.141205810646     0.110562106765     1.007825032230
         H           -0.612899670260     3.050705810646     0.194186106765     1.007825032230
         H           -3.271335670260    -0.838501189354    -0.031080893235     1.007825032230
         H            2.404657329740    -1.417291189354     1.357334106765     1.007825032230

  Basis Set: AUG-CC-PVTZ
    Blend: AUG-CC-PVTZ
  Basis Set: (AUG-CC-PVTZ AUX)
    Blend: AUG-CC-PVTZ-JKFIT
	 Reference Energy          =    -682.4401982129124917 [Eh]
	 Singles Energy            =      -0.0000000000000000 [Eh]
	 Same-Spin Energy          =      -0.6624788012203362 [Eh]
	 Opposite-Spin Energy      =      -2.0122876550895019 [Eh]
	 Correlation Energy        =      -2.6747664563098379 [Eh]
	 Total Energy              =    -685.1149646692223314 [Eh]

	 ================> DF-SCS-MP2 Energies <==================
	-----------------------------------------------------------
	 SCS Same-Spin Scale       =       0.3333333333333333 [-]
	 SCS Opposite-Spin Scale   =       1.2000000000000000 [-]
	 SCS Same-Spin Energy      =      -0.2208262670734454 [Eh]
	 SCS Opposite-Spin Energy  =      -2.4147451861074023 [Eh]
	 SCS Correlation Energy    =      -2.6355714531808476 [Eh]
	 SCS Total Energy          =    -685.0757696660933789 [Eh]
	-----------------------------------------------------------

  Dipole Moment: [D]
     X:     3.4282      Y:     0.4944      Z:    -0.3921     Total:     3.4858

*** Psi4 exiting successfully. Buy a developer a beer!
