                               Psi4 1.4a3.dev225

  ==> Input File <==

--------------------------------------------------------------------------
#psi4
#
memory 32 gb

molecule  {
0 1
  O        0.3445260    -1.4915130    -0.1284710
  O        1.3620620     2.0495660    -0.4184890
  O       -1.2647860     2.3345150     0.4675600
  O       -2.9390480     0.0425350    -0.1674130
  O        2.8793210    -0.7013140     0.9576500
  O       -1.7069560    -2.3717120     0.0066660
  C        0.6456770     0.9144350     0.0711800
  C       -0.8241260     1.1660500    -0.2009330
  C        1.0869890    -0.3499130    -0.6435990
  C       -1.6195880    -0.0062280     0.3304940
  C        2.5464540    -0.6897970    -0.4256590
  C       -0.9797963    -1.3347428     0.0133696
  H        0.7972300     0.7916990     1.1507440
  H       -0.9848220     1.2466540    -1.2883090
  H        0.8858480    -0.2577880    -1.7199730
  H       -1.6065420     0.0748220     1.4324700
  H        3.1677010     0.0783010    -0.8925020
  H        2.7689760    -1.6509780    -0.9066980
  H        2.1781240     2.1240460     0.1069910
  H       -0.6426700     3.0335460     0.1906150
  H       -3.3011060    -0.8556610    -0.0346520
  H        2.3748870    -1.4344510     1.3537630
units angstrom
no_reorient  #important for SAPT in psi4, default
symmetry c1  #important for SAPT in psi4, default
}

set PROPERTIES_ORIGIN ["COM"]
properties('MP2/aug-cc-pvtz', properties = ['dipole'])
--------------------------------------------------------------------------

    Molecular point group: c1
  Charge       = 0
  Multiplicity = 1
  Basis Set: AUG-CC-PVTZ
    Blend: AUG-CC-PVTZ
  Basis Set: (AUG-CC-PVTZ AUX)
    Blend: AUG-CC-PVTZ-JKFIT

    Orbital Energies [Eh]
    ---------------------

    Doubly Occupied:

       1A    -20.639617     2A    -20.603275     3A    -20.590194
       4A    -20.576289     5A    -20.576243     6A    -20.560269
       7A    -11.410406     8A    -11.330013     9A    -11.322694
      10A    -11.317743    11A    -11.310238    12A    -11.309064
      13A     -1.484156    14A     -1.411008    15A     -1.395714
      16A     -1.386472    17A     -1.370498    18A     -1.346019
      19A     -1.103458    20A     -1.064270    21A     -0.960999
      22A     -0.880770    23A     -0.873681    24A     -0.805866
      25A     -0.765351    26A     -0.744887    27A     -0.722490
      28A     -0.709083    29A     -0.696857    30A     -0.684624
      31A     -0.663873    32A     -0.639434    33A     -0.629203
      34A     -0.619939    35A     -0.616909    36A     -0.590880
      37A     -0.582713    38A     -0.561938    39A     -0.543147
      40A     -0.533429    41A     -0.519642    42A     -0.497683
      43A     -0.482188    44A     -0.478007    45A     -0.468977
      46A     -0.464227    47A     -0.449615

  @DF-RHF Final Energy:  -682.44584633886313

   => Energetics <=

    Nuclear Repulsion Energy =            801.7825331651181386
    One-Electron Energy =               -2529.8686573457475788
    Two-Electron Energy =                1045.6402778417661921
    Total Energy =                       -682.4458463388632481
  Basis Set: (AUG-CC-PVTZ AUX)
    Blend: AUG-CC-PVTZ-RI
    Molecular point group: c1

    Geometry (in Angstrom), charge = 0, multiplicity = 1:

       Center              X                  Y                   Z               Mass
    ------------   -----------------  -----------------  -----------------  -----------------
         O            0.373969235442    -1.476721596864    -0.131853942826    15.994914619570
         O            1.391505235442     2.064357403136    -0.421871942826    15.994914619570
         O           -1.235342764558     2.349306403136     0.464177057174    15.994914619570
         O           -2.909604764558     0.057326403136    -0.170795942826    15.994914619570
         O            2.908764235442    -0.686522596864     0.954267057174    15.994914619570
         O           -1.677512764558    -2.356920596864     0.003283057174    15.994914619570
         C            0.675120235442     0.929226403136     0.067797057174    12.000000000000
         C           -0.794682764558     1.180841403136    -0.204315942826    12.000000000000
         C            1.116432235442    -0.335121596864    -0.646981942826    12.000000000000
         C           -1.590144764558     0.008563403136     0.327111057174    12.000000000000
         C            2.575897235442    -0.675005596864    -0.429041942826    12.000000000000
         C           -0.950353064558    -1.319951396864     0.009986657174    12.000000000000
         H            0.826673235442     0.806490403136     1.147361057174     1.007825032230
         H           -0.955378764558     1.261445403136    -1.291691942826     1.007825032230
         H            0.915291235442    -0.242996596864    -1.723355942826     1.007825032230
         H           -1.577098764558     0.089613403136     1.429087057174     1.007825032230
         H            3.197144235442     0.093092403136    -0.895884942826     1.007825032230
         H            2.798419235442    -1.636186596864    -0.910080942826     1.007825032230
         H            2.207567235442     2.138837403136     0.103608057174     1.007825032230
         H           -0.613226764558     3.048337403136     0.187232057174     1.007825032230
         H           -3.271662764558    -0.840869596864    -0.038034942826     1.007825032230
         H            2.404330235442    -1.419659596864     1.350380057174     1.007825032230

  Basis Set: AUG-CC-PVTZ
    Blend: AUG-CC-PVTZ
  Basis Set: (AUG-CC-PVTZ AUX)
    Blend: AUG-CC-PVTZ-JKFIT
	 Reference Energy          =    -682.4458463388631344 [Eh]
	 Singles Energy            =      -0.0000000000000000 [Eh]
	 Same-Spin Energy          =      -0.6638611530429444 [Eh]
	 Opposite-Spin Energy      =      -2.0135776770733891 [Eh]
	 Correlation Energy        =      -2.6774388301163334 [Eh]
	 Total Energy              =    -685.1232851689794643 [Eh]

	 ================> DF-SCS-MP2 Energies <==================
	-----------------------------------------------------------
	 SCS Same-Spin Scale       =       0.3333333333333333 [-]
	 SCS Opposite-Spin Scale   =       1.2000000000000000 [-]
	 SCS Same-Spin Energy      =      -0.2212870510143148 [Eh]
	 SCS Opposite-Spin Energy  =      -2.4162932124880667 [Eh]
	 SCS Correlation Energy    =      -2.6375802635023815 [Eh]
	 SCS Total Energy          =    -685.0834266023655346 [Eh]
	-----------------------------------------------------------

  Dipole Moment: [D]
     X:     3.6953      Y:     0.8298      Z:    -0.2686     Total:     3.7968

*** Psi4 exiting successfully. Buy a developer a beer!
