                               Psi4 1.4a3.dev225

  ==> Input File <==

--------------------------------------------------------------------------
#psi4
#
memory 32 gb

molecule  {
0 1
  O        0.3445260    -1.4915130    -0.1284710
  O        1.3620620     2.0495660    -0.4184890
  O       -1.2647860     2.3345150     0.4675600
  O       -2.9390480     0.0425350    -0.1674130
  O        2.8793210    -0.7013140     0.9576500
  O       -1.7069560    -2.3717120     0.0066660
  C        0.6456770     0.9144350     0.0711800
  C       -0.8241260     1.1660500    -0.2009330
  C        1.0869890    -0.3499130    -0.6435990
  C       -1.6195880    -0.0062280     0.3304940
  C        2.5464540    -0.6897970    -0.4256590
  C       -1.0085030    -1.3756800     0.0131050
  H        0.7972300     0.7916990     1.1507440
  H       -0.9702416     1.2393406    -1.1896483
  H        0.8858480    -0.2577880    -1.7199730
  H       -1.6065420     0.0748220     1.4324700
  H        3.1677010     0.0783010    -0.8925020
  H        2.7689760    -1.6509780    -0.9066980
  H        2.1781240     2.1240460     0.1069910
  H       -0.6426700     3.0335460     0.1906150
  H       -3.3011060    -0.8556610    -0.0346520
  H        2.3748870    -1.4344510     1.3537630
units angstrom
no_reorient  #important for SAPT in psi4, default
symmetry c1  #important for SAPT in psi4, default
}

set PROPERTIES_ORIGIN ["COM"]
properties('MP2/aug-cc-pvtz', properties = ['dipole'])
--------------------------------------------------------------------------

    Molecular point group: c1
  Charge       = 0
  Multiplicity = 1
  Basis Set: AUG-CC-PVTZ
    Blend: AUG-CC-PVTZ
  Basis Set: (AUG-CC-PVTZ AUX)
    Blend: AUG-CC-PVTZ-JKFIT

    Orbital Energies [Eh]
    ---------------------

    Doubly Occupied:

       1A    -20.629845     2A    -20.600615     3A    -20.587653
       4A    -20.575667     5A    -20.573118     6A    -20.569215
       7A    -11.406858     8A    -11.326520     9A    -11.320412
      10A    -11.313806    11A    -11.307630    12A    -11.295359
      13A     -1.477750    14A     -1.409326    15A     -1.399195
      16A     -1.383985    17A     -1.374592    18A     -1.362481
      19A     -1.100176    20A     -1.059391    21A     -0.956560
      22A     -0.884569    23A     -0.868560    24A     -0.806171
      25A     -0.762379    26A     -0.742735    27A     -0.721591
      28A     -0.711134    29A     -0.695385    30A     -0.686948
      31A     -0.663011    32A     -0.645670    33A     -0.629603
      34A     -0.617018    35A     -0.616209    36A     -0.590865
      37A     -0.583724    38A     -0.560579    39A     -0.541552
      40A     -0.534105    41A     -0.520028    42A     -0.504374
      43A     -0.483983    44A     -0.479941    45A     -0.474982
      46A     -0.465403    47A     -0.445036

  @DF-RHF Final Energy:  -682.44979709239908

   => Energetics <=

    Nuclear Repulsion Energy =            801.9734887437550697
    One-Electron Energy =               -2530.3151531117255217
    Two-Electron Energy =                1045.8918672755712578
    Total Energy =                       -682.4497970923991943
  Basis Set: (AUG-CC-PVTZ AUX)
    Blend: AUG-CC-PVTZ-RI
    Molecular point group: c1

    Geometry (in Angstrom), charge = 0, multiplicity = 1:

       Center              X                  Y                   Z               Mass
    ------------   -----------------  -----------------  -----------------  -----------------
         O            0.375821468509    -1.473921128669    -0.132394570437    15.994914619570
         O            1.393357468509     2.067157871331    -0.422412570437    15.994914619570
         O           -1.233490531491     2.352106871331     0.463636429563    15.994914619570
         O           -2.907752531491     0.060126871331    -0.171336570437    15.994914619570
         O            2.910616468509    -0.683722128669     0.953726429563    15.994914619570
         O           -1.675660531491    -2.354120128669     0.002742429563    15.994914619570
         C            0.676972468509     0.932026871331     0.067256429563    12.000000000000
         C           -0.792830531491     1.183641871331    -0.204856570437    12.000000000000
         C            1.118284468509    -0.332321128669    -0.647522570437    12.000000000000
         C           -1.588292531491     0.011363871331     0.326570429563    12.000000000000
         C            2.577749468509    -0.672205128669    -0.429582570437    12.000000000000
         C           -0.977207531491    -1.358088128669     0.009181429563    12.000000000000
         H            0.828525468509     0.809290871331     1.146820429563     1.007825032230
         H           -0.938946131491     1.256932471331    -1.193571870437     1.007825032230
         H            0.917143468509    -0.240196128669    -1.723896570437     1.007825032230
         H           -1.575246531491     0.092413871331     1.428546429563     1.007825032230
         H            3.198996468509     0.095892871331    -0.896425570437     1.007825032230
         H            2.800271468509    -1.633386128669    -0.910621570437     1.007825032230
         H            2.209419468509     2.141637871331     0.103067429563     1.007825032230
         H           -0.611374531491     3.051137871331     0.186691429563     1.007825032230
         H           -3.269810531491    -0.838069128669    -0.038575570437     1.007825032230
         H            2.406182468509    -1.416859128669     1.349839429563     1.007825032230

  Basis Set: AUG-CC-PVTZ
    Blend: AUG-CC-PVTZ
  Basis Set: (AUG-CC-PVTZ AUX)
    Blend: AUG-CC-PVTZ-JKFIT
	 Reference Energy          =    -682.4497970923990806 [Eh]
	 Singles Energy            =      -0.0000000000000000 [Eh]
	 Same-Spin Energy          =      -0.6622355264136313 [Eh]
	 Opposite-Spin Energy      =      -2.0100858573130109 [Eh]
	 Correlation Energy        =      -2.6723213837266422 [Eh]
	 Total Energy              =    -685.1221184761257064 [Eh]

	 ================> DF-SCS-MP2 Energies <==================
	-----------------------------------------------------------
	 SCS Same-Spin Scale       =       0.3333333333333333 [-]
	 SCS Opposite-Spin Scale   =       1.2000000000000000 [-]
	 SCS Same-Spin Energy      =      -0.2207451754712104 [Eh]
	 SCS Opposite-Spin Energy  =      -2.4121030287756131 [Eh]
	 SCS Correlation Energy    =      -2.6328482042468235 [Eh]
	 SCS Total Energy          =    -685.0826452966458646 [Eh]
	-----------------------------------------------------------

  Dipole Moment: [D]
     X:     3.4046      Y:     0.5511      Z:    -0.3093     Total:     3.4627

*** Psi4 exiting successfully. Buy a developer a beer!
