                               Psi4 1.4a3.dev225

  ==> Input File <==

--------------------------------------------------------------------------
#psi4
#
memory 32 gb

molecule  {
0 1
  O        0.3445260    -1.4915130    -0.1284710
  O        1.3620620     2.0495660    -0.4184890
  O       -1.2647860     2.3345150     0.4675600
  O       -2.9390480     0.0425350    -0.1674130
  O        2.8793210    -0.7013140     0.9576500
  O       -1.7069560    -2.3717120     0.0066660
  C        0.6456770     0.9144350     0.0711800
  C       -0.8241260     1.1660500    -0.2009330
  C        1.0869890    -0.3499130    -0.6435990
  C       -1.6195880    -0.0062280     0.3304940
  C        2.5464540    -0.6897970    -0.4256590
  C       -1.0005297    -1.3935483     0.0089638
  H        0.7972300     0.7916990     1.1507440
  H       -0.9848220     1.2466540    -1.2883090
  H        0.8858480    -0.2577880    -1.7199730
  H       -1.6065420     0.0748220     1.4324700
  H        3.1677010     0.0783010    -0.8925020
  H        2.7689760    -1.6509780    -0.9066980
  H        2.1781240     2.1240460     0.1069910
  H       -0.6426700     3.0335460     0.1906150
  H       -3.3011060    -0.8556610    -0.0346520
  H        2.3748870    -1.4344510     1.3537630
units angstrom
no_reorient  #important for SAPT in psi4, default
symmetry c1  #important for SAPT in psi4, default
}

set PROPERTIES_ORIGIN ["COM"]
properties('MP2/aug-cc-pvtz', properties = ['dipole'])
--------------------------------------------------------------------------

    Molecular point group: c1
  Charge       = 0
  Multiplicity = 1
  Basis Set: AUG-CC-PVTZ
    Blend: AUG-CC-PVTZ
  Basis Set: (AUG-CC-PVTZ AUX)
    Blend: AUG-CC-PVTZ-JKFIT

    Orbital Energies [Eh]
    ---------------------

    Doubly Occupied:

       1A    -20.630110     2A    -20.600468     3A    -20.587957
       4A    -20.574311     5A    -20.574043     6A    -20.569224
       7A    -11.405358     8A    -11.327226     9A    -11.319972
      10A    -11.314326    11A    -11.307977    12A    -11.306134
      13A     -1.481630    14A     -1.409510    15A     -1.400552
      16A     -1.383993    17A     -1.376843    18A     -1.363045
      19A     -1.098067    20A     -1.056709    21A     -0.954080
      22A     -0.874063    23A     -0.869792    24A     -0.801280
      25A     -0.761783    26A     -0.741639    27A     -0.721143
      28A     -0.707526    29A     -0.695018    30A     -0.687764
      31A     -0.662516    32A     -0.644360    33A     -0.629255
      34A     -0.617625    35A     -0.614756    36A     -0.589507
      37A     -0.584235    38A     -0.559665    39A     -0.540874
      40A     -0.534431    41A     -0.519822    42A     -0.506018
      43A     -0.483060    44A     -0.478820    45A     -0.472670
      46A     -0.463556    47A     -0.442888

  @DF-RHF Final Energy:  -682.45615038770916

   => Energetics <=

    Nuclear Repulsion Energy =            801.2921279423968599
    One-Electron Energy =               -2529.0053553845641545
    Two-Electron Energy =                1045.2570770544582501
    Total Energy =                       -682.4561503877091582
  Basis Set: (AUG-CC-PVTZ AUX)
    Blend: AUG-CC-PVTZ-RI
    Molecular point group: c1

    Geometry (in Angstrom), charge = 0, multiplicity = 1:

       Center              X                  Y                   Z               Mass
    ------------   -----------------  -----------------  -----------------  -----------------
         O            0.375366617979    -1.472758244070    -0.131557002238    15.994914619570
         O            1.392902617979     2.068320755930    -0.421575002238    15.994914619570
         O           -1.233945382021     2.353269755930     0.464473997762    15.994914619570
         O           -2.908207382021     0.061289755930    -0.170499002238    15.994914619570
         O            2.910161617979    -0.682559244070     0.954563997762    15.994914619570
         O           -1.676115382021    -2.352957244070     0.003579997762    15.994914619570
         C            0.676517617979     0.933189755930     0.068093997762    12.000000000000
         C           -0.793285382021     1.184804755930    -0.204019002238    12.000000000000
         C            1.117829617979    -0.331158244070    -0.646685002238    12.000000000000
         C           -1.588747382021     0.012526755930     0.327407997762    12.000000000000
         C            2.577294617979    -0.671042244070    -0.428745002238    12.000000000000
         C           -0.969689082021    -1.374793544070     0.005877797762    12.000000000000
         H            0.828070617979     0.810453755930     1.147657997762     1.007825032230
         H           -0.953981382021     1.265408755930    -1.291395002238     1.007825032230
         H            0.916688617979    -0.239033244070    -1.723059002238     1.007825032230
         H           -1.575701382021     0.093576755930     1.429383997762     1.007825032230
         H            3.198541617979     0.097055755930    -0.895588002238     1.007825032230
         H            2.799816617979    -1.632223244070    -0.909784002238     1.007825032230
         H            2.208964617979     2.142800755930     0.103904997762     1.007825032230
         H           -0.611829382021     3.052300755930     0.187528997762     1.007825032230
         H           -3.270265382021    -0.836906244070    -0.037738002238     1.007825032230
         H            2.405727617979    -1.415696244070     1.350676997762     1.007825032230

  Basis Set: AUG-CC-PVTZ
    Blend: AUG-CC-PVTZ
  Basis Set: (AUG-CC-PVTZ AUX)
    Blend: AUG-CC-PVTZ-JKFIT
	 Reference Energy          =    -682.4561503877091582 [Eh]
	 Singles Energy            =      -0.0000000000000000 [Eh]
	 Same-Spin Energy          =      -0.6619993586659673 [Eh]
	 Opposite-Spin Energy      =      -2.0098423202592666 [Eh]
	 Correlation Energy        =      -2.6718416789252339 [Eh]
	 Total Energy              =    -685.1279920666344196 [Eh]

	 ================> DF-SCS-MP2 Energies <==================
	-----------------------------------------------------------
	 SCS Same-Spin Scale       =       0.3333333333333333 [-]
	 SCS Opposite-Spin Scale   =       1.2000000000000000 [-]
	 SCS Same-Spin Energy      =      -0.2206664528886557 [Eh]
	 SCS Opposite-Spin Energy  =      -2.4118107843111196 [Eh]
	 SCS Correlation Energy    =      -2.6324772371997756 [Eh]
	 SCS Total Energy          =    -685.0886276249088951 [Eh]
	-----------------------------------------------------------

  Dipole Moment: [D]
     X:     3.4517      Y:     0.4967      Z:    -0.2889     Total:     3.4992

*** Psi4 exiting successfully. Buy a developer a beer!
