                               Psi4 1.4a3.dev225

  ==> Input File <==

--------------------------------------------------------------------------
#psi4
#
memory 32 gb

molecule  {
0 1
  O        0.3445260    -1.4915130    -0.1284710
  O        1.3620620     2.0495660    -0.4184890
  O       -1.2647860     2.3345150     0.4675600
  O       -2.9390480     0.0425350    -0.1674130
  O        2.8793210    -0.7013140     0.9576500
  O       -1.7069560    -2.3717120     0.0066660
  C        0.6456770     0.9144350     0.0711800
  C       -0.8241260     1.1660500    -0.2009330
  C        1.0869890    -0.3499130    -0.6435990
  C       -1.6195880    -0.0062280     0.3304940
  C        2.5464540    -0.6897970    -0.4256590
  C       -1.1233296    -1.5394290     0.0120464
  H        0.7972300     0.7916990     1.1507440
  H       -0.9848220     1.2466540    -1.2883090
  H        0.8858480    -0.2577880    -1.7199730
  H       -1.6065420     0.0748220     1.4324700
  H        3.1677010     0.0783010    -0.8925020
  H        2.7689760    -1.6509780    -0.9066980
  H        2.1781240     2.1240460     0.1069910
  H       -0.6426700     3.0335460     0.1906150
  H       -3.3011060    -0.8556610    -0.0346520
  H        2.3748870    -1.4344510     1.3537630
units angstrom
no_reorient  #important for SAPT in psi4, default
symmetry c1  #important for SAPT in psi4, default
}

set PROPERTIES_ORIGIN ["COM"]
properties('MP2/aug-cc-pvtz', properties = ['dipole'])
--------------------------------------------------------------------------

    Molecular point group: c1
  Charge       = 0
  Multiplicity = 1
  Basis Set: AUG-CC-PVTZ
    Blend: AUG-CC-PVTZ
  Basis Set: (AUG-CC-PVTZ AUX)
    Blend: AUG-CC-PVTZ-JKFIT

    Orbital Energies [Eh]
    ---------------------

    Doubly Occupied:

       1A    -20.606670     2A    -20.589360     3A    -20.584977
       4A    -20.575925     5A    -20.574142     6A    -20.568544
       7A    -11.390721     8A    -11.314673     9A    -11.308676
      10A    -11.301198    11A    -11.299563    12A    -11.294656
      13A     -1.595699    14A     -1.404071    15A     -1.385967
      16A     -1.381294    17A     -1.363263    18A     -1.360967
      19A     -1.078404    20A     -1.033497    21A     -0.938312
      22A     -0.860660    23A     -0.845773    24A     -0.789424
      25A     -0.768776    26A     -0.751452    27A     -0.732404
      28A     -0.712564    29A     -0.701060    30A     -0.690919
      31A     -0.676463    32A     -0.644718    33A     -0.636127
      34A     -0.613153    35A     -0.605347    36A     -0.591658
      37A     -0.576606    38A     -0.566876    39A     -0.544247
      40A     -0.530601    41A     -0.516673    42A     -0.508498
      43A     -0.480166    44A     -0.467905    45A     -0.464605
      46A     -0.450795    47A     -0.411383

  @DF-RHF Final Energy:  -682.37644814862233

   => Energetics <=

    Nuclear Repulsion Energy =            800.4843831378054801
    One-Electron Energy =               -2527.5428019351770672
    Two-Electron Energy =                1044.6819706487492567
    Total Energy =                       -682.3764481486223303
  Basis Set: (AUG-CC-PVTZ AUX)
    Blend: AUG-CC-PVTZ-RI
    Molecular point group: c1

    Geometry (in Angstrom), charge = 0, multiplicity = 1:

       Center              X                  Y                   Z               Mass
    ------------   -----------------  -----------------  -----------------  -----------------
         O            0.383643043258    -1.462926226998    -0.131764762249    15.994914619570
         O            1.401179043258     2.078152773002    -0.421782762249    15.994914619570
         O           -1.225668956742     2.363101773002     0.464266237751    15.994914619570
         O           -2.899930956742     0.071121773002    -0.170706762249    15.994914619570
         O            2.918438043258    -0.672727226998     0.954356237751    15.994914619570
         O           -1.667838956742    -2.343125226998     0.003372237751    15.994914619570
         C            0.684794043258     0.943021773002     0.067886237751    12.000000000000
         C           -0.785008956742     1.194636773002    -0.204226762249    12.000000000000
         C            1.126106043258    -0.321326226998    -0.646892762249    12.000000000000
         C           -1.580470956742     0.022358773002     0.327200237751    12.000000000000
         C            2.585571043258    -0.661210226998    -0.428952762249    12.000000000000
         C           -1.084212556742    -1.510842226998     0.008752637751    12.000000000000
         H            0.836347043258     0.820285773002     1.147450237751     1.007825032230
         H           -0.945704956742     1.275240773002    -1.291602762249     1.007825032230
         H            0.924965043258    -0.229201226998    -1.723266762249     1.007825032230
         H           -1.567424956742     0.103408773002     1.429176237751     1.007825032230
         H            3.206818043258     0.106887773002    -0.895795762249     1.007825032230
         H            2.808093043258    -1.622391226998    -0.909991762249     1.007825032230
         H            2.217241043258     2.152632773002     0.103697237751     1.007825032230
         H           -0.603552956742     3.062132773002     0.187321237751     1.007825032230
         H           -3.261988956742    -0.827074226998    -0.037945762249     1.007825032230
         H            2.414004043258    -1.405864226998     1.350469237751     1.007825032230

  Basis Set: AUG-CC-PVTZ
    Blend: AUG-CC-PVTZ
  Basis Set: (AUG-CC-PVTZ AUX)
    Blend: AUG-CC-PVTZ-JKFIT
	 Reference Energy          =    -682.3764481486223303 [Eh]
	 Singles Energy            =      -0.0000000000000000 [Eh]
	 Same-Spin Energy          =      -0.6587135470483045 [Eh]
	 Opposite-Spin Energy      =      -2.0030574754234372 [Eh]
	 Correlation Energy        =      -2.6617710224717417 [Eh]
	 Total Energy              =    -685.0382191710940560 [Eh]

	 ================> DF-SCS-MP2 Energies <==================
	-----------------------------------------------------------
	 SCS Same-Spin Scale       =       0.3333333333333333 [-]
	 SCS Opposite-Spin Scale   =       1.2000000000000000 [-]
	 SCS Same-Spin Energy      =      -0.2195711823494348 [Eh]
	 SCS Opposite-Spin Energy  =      -2.4036689705081247 [Eh]
	 SCS Correlation Energy    =      -2.6232401528575595 [Eh]
	 SCS Total Energy          =    -684.9996883014798641 [Eh]
	-----------------------------------------------------------

  Dipole Moment: [D]
     X:     1.9266      Y:    -0.6983      Z:    -0.2287     Total:     2.0620

*** Psi4 exiting successfully. Buy a developer a beer!
