                               Psi4 1.4a3.dev225

  ==> Input File <==

--------------------------------------------------------------------------
#psi4
#
memory 32 gb

molecule  {
0 1
  O        0.3445260    -1.4915130    -0.1284710
  O        1.3620620     2.0495660    -0.4184890
  O       -1.2647860     2.3345150     0.4675600
  O       -2.9390480     0.0425350    -0.1674130
  O        2.8793210    -0.7013140     0.9576500
  O       -1.7069560    -2.3717120     0.0066660
  C        0.6456770     0.9144350     0.0711800
  C       -0.8241260     1.1660500    -0.2009330
  C        1.0869890    -0.3499130    -0.6435990
  C       -1.6195880    -0.0062280     0.3304940
  C        2.5464540    -0.6897970    -0.4256590
  C       -1.0085030    -1.3756800     0.0131050
  H        0.7972300     0.7916990     1.1507440
  H       -0.9848220     1.2466540    -1.2883090
  H        0.8858480    -0.2577880    -1.7199730
  H       -1.6065420     0.0748220     1.4324700
  H        3.1677010     0.0783010    -0.8925020
  H        2.7689760    -1.6509780    -0.9066980
  H        2.1781240     2.1240460     0.1069910
  H       -0.5151735     3.1768055     0.1338579
  H       -3.3011060    -0.8556610    -0.0346520
  H        2.3748870    -1.4344510     1.3537630
units angstrom
no_reorient  #important for SAPT in psi4, default
symmetry c1  #important for SAPT in psi4, default
}

set PROPERTIES_ORIGIN ["COM"]
properties('MP2/aug-cc-pvtz', properties = ['dipole'])
--------------------------------------------------------------------------

    Molecular point group: c1
  Charge       = 0
  Multiplicity = 1
  Basis Set: AUG-CC-PVTZ
    Blend: AUG-CC-PVTZ
  Basis Set: (AUG-CC-PVTZ AUX)
    Blend: AUG-CC-PVTZ-JKFIT

    Orbital Energies [Eh]
    ---------------------

    Doubly Occupied:

       1A    -20.629227     2A    -20.601758     3A    -20.587310
       4A    -20.585349     5A    -20.574563     6A    -20.568646
       7A    -11.406347     8A    -11.325614     9A    -11.320156
      10A    -11.313604    11A    -11.307147    12A    -11.304772
      13A     -1.477052    14A     -1.407025    15A     -1.396745
      16A     -1.383316    17A     -1.369405    18A     -1.339854
      19A     -1.094139    20A     -1.054923    21A     -0.955696
      22A     -0.870268    23A     -0.864527    24A     -0.800008
      25A     -0.759215    26A     -0.741571    27A     -0.716558
      28A     -0.704976    29A     -0.688678    30A     -0.681106
      31A     -0.645512    32A     -0.640534    33A     -0.627963
      34A     -0.614374    35A     -0.612550    36A     -0.588577
      37A     -0.581286    38A     -0.554180    39A     -0.535566
      40A     -0.531923    41A     -0.517027    42A     -0.503560
      43A     -0.479464    44A     -0.477128    45A     -0.469848
      46A     -0.462581    47A     -0.442929

  @DF-RHF Final Energy:  -682.41927211445943

   => Energetics <=

    Nuclear Repulsion Energy =            800.2968665186347152
    One-Electron Energy =               -2527.2031590247006534
    Two-Electron Energy =                1044.4870203916066203
    Total Energy =                       -682.4192721144593179
  Basis Set: (AUG-CC-PVTZ AUX)
    Blend: AUG-CC-PVTZ-RI
    Molecular point group: c1

    Geometry (in Angstrom), charge = 0, multiplicity = 1:

       Center              X                  Y                   Z               Mass
    ------------   -----------------  -----------------  -----------------  -----------------
         O            0.375182315923    -1.474773434570    -0.131514840365    15.994914619570
         O            1.392718315923     2.066305565430    -0.421532840365    15.994914619570
         O           -1.234129684077     2.351254565430     0.464516159635    15.994914619570
         O           -2.908391684077     0.059274565430    -0.170456840365    15.994914619570
         O            2.909977315923    -0.684574434570     0.954606159635    15.994914619570
         O           -1.676299684077    -2.354972434570     0.003622159635    15.994914619570
         C            0.676333315923     0.931174565430     0.068136159635    12.000000000000
         C           -0.793469684077     1.182789565430    -0.203976840365    12.000000000000
         C            1.117645315923    -0.333173434570    -0.646642840365    12.000000000000
         C           -1.588931684077     0.010511565430     0.327450159635    12.000000000000
         C            2.577110315923    -0.673057434570    -0.428702840365    12.000000000000
         C           -0.977846684077    -1.358940434570     0.010061159635    12.000000000000
         H            0.827886315923     0.808438565430     1.147700159635     1.007825032230
         H           -0.954165684077     1.263393565430    -1.291352840365     1.007825032230
         H            0.916504315923    -0.241048434570    -1.723016840365     1.007825032230
         H           -1.575885684077     0.091561565430     1.429426159635     1.007825032230
         H            3.198357315923     0.095040565430    -0.895545840365     1.007825032230
         H            2.799632315923    -1.634238434570    -0.909741840365     1.007825032230
         H            2.208780315923     2.140785565430     0.103947159635     1.007825032230
         H           -0.484517184077     3.193545065430     0.130814059635     1.007825032230
         H           -3.270449684077    -0.838921434570    -0.037695840365     1.007825032230
         H            2.405543315923    -1.417711434570     1.350719159635     1.007825032230

  Basis Set: AUG-CC-PVTZ
    Blend: AUG-CC-PVTZ
  Basis Set: (AUG-CC-PVTZ AUX)
    Blend: AUG-CC-PVTZ-JKFIT
	 Reference Energy          =    -682.4192721144594316 [Eh]
	 Singles Energy            =      -0.0000000000000000 [Eh]
	 Same-Spin Energy          =      -0.6649929709028920 [Eh]
	 Opposite-Spin Energy      =      -2.0176710818001329 [Eh]
	 Correlation Energy        =      -2.6826640527030250 [Eh]
	 Total Energy              =    -685.1019361671624210 [Eh]

	 ================> DF-SCS-MP2 Energies <==================
	-----------------------------------------------------------
	 SCS Same-Spin Scale       =       0.3333333333333333 [-]
	 SCS Opposite-Spin Scale   =       1.2000000000000000 [-]
	 SCS Same-Spin Energy      =      -0.2216643236342973 [Eh]
	 SCS Opposite-Spin Energy  =      -2.4212052981601593 [Eh]
	 SCS Correlation Energy    =      -2.6428696217944565 [Eh]
	 SCS Total Energy          =    -685.0621417362539205 [Eh]
	-----------------------------------------------------------

  Dipole Moment: [D]
     X:     3.5210      Y:     0.7181      Z:    -0.3057     Total:     3.6065

*** Psi4 exiting successfully. Buy a developer a beer!
