                               Psi4 1.4a3.dev225

  ==> Input File <==

--------------------------------------------------------------------------
#psi4
#
memory 32 gb

molecule  {
0 1
  O        0.3445260    -1.4915130    -0.1284710
  O        1.3620620     2.0495660    -0.4184890
  O       -1.2647860     2.3345150     0.4675600
  O       -2.9390480     0.0425350    -0.1674130
  O        2.8793210    -0.7013140     0.9576500
  O       -1.7069560    -2.3717120     0.0066660
  C        0.6456770     0.9144350     0.0711800
  C       -0.8726085     1.1743497    -0.2099088
  C        1.0869890    -0.3499130    -0.6435990
  C       -1.6195880    -0.0062280     0.3304940
  C        2.5464540    -0.6897970    -0.4256590
  C       -1.0085030    -1.3756800     0.0131050
  H        0.7972300     0.7916990     1.1507440
  H       -0.9848220     1.2466540    -1.2883090
  H        0.8858480    -0.2577880    -1.7199730
  H       -1.6065420     0.0748220     1.4324700
  H        3.1677010     0.0783010    -0.8925020
  H        2.7689760    -1.6509780    -0.9066980
  H        2.1781240     2.1240460     0.1069910
  H       -0.6426700     3.0335460     0.1906150
  H       -3.3011060    -0.8556610    -0.0346520
  H        2.3748870    -1.4344510     1.3537630
units angstrom
no_reorient  #important for SAPT in psi4, default
symmetry c1  #important for SAPT in psi4, default
}

set PROPERTIES_ORIGIN ["COM"]
properties('MP2/aug-cc-pvtz', properties = ['dipole'])
--------------------------------------------------------------------------

    Molecular point group: c1
  Charge       = 0
  Multiplicity = 1
  Basis Set: AUG-CC-PVTZ
    Blend: AUG-CC-PVTZ
  Basis Set: (AUG-CC-PVTZ AUX)
    Blend: AUG-CC-PVTZ-JKFIT

    Orbital Energies [Eh]
    ---------------------

    Doubly Occupied:

       1A    -20.629271     2A    -20.599730     3A    -20.586889
       4A    -20.575969     5A    -20.574616     6A    -20.569754
       7A    -11.407705     8A    -11.324923     9A    -11.320232
      10A    -11.314195    11A    -11.307396    12A    -11.306628
      13A     -1.477381    14A     -1.408889    15A     -1.399853
      16A     -1.383577    17A     -1.377108    18A     -1.364476
      19A     -1.092815    20A     -1.058398    21A     -0.952354
      22A     -0.879208    23A     -0.867051    24A     -0.800692
      25A     -0.761280    26A     -0.740996    27A     -0.722532
      28A     -0.709562    29A     -0.695380    30A     -0.685717
      31A     -0.663113    32A     -0.643347    33A     -0.628012
      34A     -0.619330    35A     -0.614951    36A     -0.589828
      37A     -0.582698    38A     -0.560901    39A     -0.539947
      40A     -0.534688    41A     -0.517943    42A     -0.503938
      43A     -0.484348    44A     -0.478057    45A     -0.474106
      46A     -0.463054    47A     -0.439124

  @DF-RHF Final Energy:  -682.45301749665498

   => Energetics <=

    Nuclear Repulsion Energy =            800.9221927141638844
    One-Electron Energy =               -2528.2865005692456180
    Two-Electron Energy =                1044.9112903584268679
    Total Energy =                       -682.4530174966548657
  Basis Set: (AUG-CC-PVTZ AUX)
    Blend: AUG-CC-PVTZ-RI
    Molecular point group: c1

    Geometry (in Angstrom), charge = 0, multiplicity = 1:

       Center              X                  Y                   Z               Mass
    ------------   -----------------  -----------------  -----------------  -----------------
         O            0.379171606503    -1.474521905903    -0.131231161536    15.994914619570
         O            1.396707606503     2.066557094097    -0.421249161536    15.994914619570
         O           -1.230140393497     2.351506094097     0.464799838464    15.994914619570
         O           -2.904402393497     0.059526094097    -0.170173161536    15.994914619570
         O            2.913966606503    -0.684322905903     0.954889838464    15.994914619570
         O           -1.672310393497    -2.354720905903     0.003905838464    15.994914619570
         C            0.680322606503     0.931426094097     0.068419838464    12.000000000000
         C           -0.837962893497     1.191340794097    -0.212668961536    12.000000000000
         C            1.121634606503    -0.332921905903    -0.646359161536    12.000000000000
         C           -1.584942393497     0.010763094097     0.327733838464    12.000000000000
         C            2.581099606503    -0.672805905903    -0.428419161536    12.000000000000
         C           -0.973857393497    -1.358688905903     0.010344838464    12.000000000000
         H            0.831875606503     0.808690094097     1.147983838464     1.007825032230
         H           -0.950176393497     1.263645094097    -1.291069161536     1.007825032230
         H            0.920493606503    -0.240796905903    -1.722733161536     1.007825032230
         H           -1.571896393497     0.091813094097     1.429709838464     1.007825032230
         H            3.202346606503     0.095292094097    -0.895262161536     1.007825032230
         H            2.803621606503    -1.633986905903    -0.909458161536     1.007825032230
         H            2.212769606503     2.141037094097     0.104230838464     1.007825032230
         H           -0.608024393497     3.050537094097     0.187854838464     1.007825032230
         H           -3.266460393497    -0.838669905903    -0.037412161536     1.007825032230
         H            2.409532606503    -1.417459905903     1.351002838464     1.007825032230

  Basis Set: AUG-CC-PVTZ
    Blend: AUG-CC-PVTZ
  Basis Set: (AUG-CC-PVTZ AUX)
    Blend: AUG-CC-PVTZ-JKFIT
	 Reference Energy          =    -682.4530174966549794 [Eh]
	 Singles Energy            =      -0.0000000000000000 [Eh]
	 Same-Spin Energy          =      -0.6623131360568486 [Eh]
	 Opposite-Spin Energy      =      -2.0105171512730786 [Eh]
	 Correlation Energy        =      -2.6728302873299272 [Eh]
	 Total Energy              =    -685.1258477839849093 [Eh]

	 ================> DF-SCS-MP2 Energies <==================
	-----------------------------------------------------------
	 SCS Same-Spin Scale       =       0.3333333333333333 [-]
	 SCS Opposite-Spin Scale   =       1.2000000000000000 [-]
	 SCS Same-Spin Energy      =      -0.2207710453522829 [Eh]
	 SCS Opposite-Spin Energy  =      -2.4126205815276944 [Eh]
	 SCS Correlation Energy    =      -2.6333916268799773 [Eh]
	 SCS Total Energy          =    -685.0864091235349633 [Eh]
	-----------------------------------------------------------

  Dipole Moment: [D]
     X:     3.3309      Y:     0.6294      Z:    -0.2659     Total:     3.4002

*** Psi4 exiting successfully. Buy a developer a beer!
