                               Psi4 1.4a3.dev225

  ==> Input File <==

--------------------------------------------------------------------------
#psi4
#
memory 32 gb

molecule  {
0 1
  O        0.3445260    -1.4915130    -0.1284710
  O        1.3620620     2.0495660    -0.4184890
  O       -1.2647860     2.3345150     0.4675600
  O       -2.9390480     0.0425350    -0.1674130
  O        2.8793210    -0.7013140     0.9576500
  O       -1.7069560    -2.3717120     0.0066660
  C        0.6456770     0.9144350     0.0711800
  C       -0.8241260     1.1660500    -0.2009330
  C        1.0869890    -0.3499130    -0.6435990
  C       -1.6195880    -0.0062280     0.3304940
  C        2.5464540    -0.6897970    -0.4256590
  C       -1.0284363    -1.3310092     0.0234581
  H        0.7972300     0.7916990     1.1507440
  H       -0.9848220     1.2466540    -1.2883090
  H        0.8858480    -0.2577880    -1.7199730
  H       -1.6065420     0.0748220     1.4324700
  H        3.1677010     0.0783010    -0.8925020
  H        2.7689760    -1.6509780    -0.9066980
  H        2.1781240     2.1240460     0.1069910
  H       -0.6426700     3.0335460     0.1906150
  H       -3.3011060    -0.8556610    -0.0346520
  H        2.3748870    -1.4344510     1.3537630
units angstrom
no_reorient  #important for SAPT in psi4, default
symmetry c1  #important for SAPT in psi4, default
}

set PROPERTIES_ORIGIN ["COM"]
properties('MP2/aug-cc-pvtz', properties = ['dipole'])
--------------------------------------------------------------------------

    Molecular point group: c1
  Charge       = 0
  Multiplicity = 1
  Basis Set: AUG-CC-PVTZ
    Blend: AUG-CC-PVTZ
  Basis Set: (AUG-CC-PVTZ AUX)
    Blend: AUG-CC-PVTZ-JKFIT

    Orbital Energies [Eh]
    ---------------------

    Doubly Occupied:

       1A    -20.629117     2A    -20.601116     3A    -20.586836
       4A    -20.578649     5A    -20.576967     6A    -20.569530
       7A    -11.411315     8A    -11.323970     9A    -11.323420
      10A    -11.315326    11A    -11.310304    12A    -11.306426
      13A     -1.468121    14A     -1.409518    15A     -1.398161
      16A     -1.383963    17A     -1.371948    18A     -1.357265
      19A     -1.100128    20A     -1.062375    21A     -0.962891
      22A     -0.882871    23A     -0.864031    24A     -0.802148
      25A     -0.763127    26A     -0.742754    27A     -0.721175
      28A     -0.709051    29A     -0.694513    30A     -0.683144
      31A     -0.661887    32A     -0.642616    33A     -0.627917
      34A     -0.616243    35A     -0.613543    36A     -0.591790
      37A     -0.579715    38A     -0.560734    39A     -0.542055
      40A     -0.534039    41A     -0.519658    42A     -0.500604
      43A     -0.486134    44A     -0.477444    45A     -0.472234
      46A     -0.466593    47A     -0.449073

  @DF-RHF Final Energy:  -682.44693360297333

   => Energetics <=

    Nuclear Repulsion Energy =            801.5168277960930254
    One-Electron Energy =               -2529.4226486298125565
    Two-Electron Energy =                1045.4588872307463134
    Total Energy =                       -682.4469336029733313
  Basis Set: (AUG-CC-PVTZ AUX)
    Blend: AUG-CC-PVTZ-RI
    Molecular point group: c1

    Geometry (in Angstrom), charge = 0, multiplicity = 1:

       Center              X                  Y                   Z               Mass
    ------------   -----------------  -----------------  -----------------  -----------------
         O            0.377247457375    -1.476973232748    -0.132533884067    15.994914619570
         O            1.394783457375     2.064105767252    -0.422551884067    15.994914619570
         O           -1.232064542625     2.349054767252     0.463497115933    15.994914619570
         O           -2.906326542625     0.057074767252    -0.171475884067    15.994914619570
         O            2.912042457375    -0.686774232748     0.953587115933    15.994914619570
         O           -1.674234542625    -2.357172232748     0.002603115933    15.994914619570
         C            0.678398457375     0.928974767252     0.067117115933    12.000000000000
         C           -0.791404542625     1.180589767252    -0.204995884067    12.000000000000
         C            1.119710457375    -0.335373232748    -0.647661884067    12.000000000000
         C           -1.586866542625     0.008311767252     0.326431115933    12.000000000000
         C            2.579175457375    -0.675257232748    -0.429721884067    12.000000000000
         C           -0.995714842625    -1.316469432748     0.019395215933    12.000000000000
         H            0.829951457375     0.806238767252     1.146681115933     1.007825032230
         H           -0.952100542625     1.261193767252    -1.292371884067     1.007825032230
         H            0.918569457375    -0.243248232748    -1.724035884067     1.007825032230
         H           -1.573820542625     0.089361767252     1.428407115933     1.007825032230
         H            3.200422457375     0.092840767252    -0.896564884067     1.007825032230
         H            2.801697457375    -1.636438232748    -0.910760884067     1.007825032230
         H            2.210845457375     2.138585767252     0.102928115933     1.007825032230
         H           -0.609948542625     3.048085767252     0.186552115933     1.007825032230
         H           -3.268384542625    -0.841121232748    -0.038714884067     1.007825032230
         H            2.407608457375    -1.419911232748     1.349700115933     1.007825032230

  Basis Set: AUG-CC-PVTZ
    Blend: AUG-CC-PVTZ
  Basis Set: (AUG-CC-PVTZ AUX)
    Blend: AUG-CC-PVTZ-JKFIT
	 Reference Energy          =    -682.4469336029733313 [Eh]
	 Singles Energy            =      -0.0000000000000000 [Eh]
	 Same-Spin Energy          =      -0.6638036921624492 [Eh]
	 Opposite-Spin Energy      =      -2.0136600679144827 [Eh]
	 Correlation Energy        =      -2.6774637600769320 [Eh]
	 Total Energy              =    -685.1243973630502069 [Eh]

	 ================> DF-SCS-MP2 Energies <==================
	-----------------------------------------------------------
	 SCS Same-Spin Scale       =       0.3333333333333333 [-]
	 SCS Opposite-Spin Scale   =       1.2000000000000000 [-]
	 SCS Same-Spin Energy      =      -0.2212678973874830 [Eh]
	 SCS Opposite-Spin Energy  =      -2.4163920814973792 [Eh]
	 SCS Correlation Energy    =      -2.6376599788848623 [Eh]
	 SCS Total Energy          =    -685.0845935818581438 [Eh]
	-----------------------------------------------------------

  Dipole Moment: [D]
     X:     3.2598      Y:     0.7522      Z:    -0.2067     Total:     3.3519

*** Psi4 exiting successfully. Buy a developer a beer!
