                               Psi4 1.4a3.dev225

  ==> Input File <==

--------------------------------------------------------------------------
#psi4
#
memory 32 gb

molecule  {
0 1
  O        0.3445260    -1.4915130    -0.1284710
  O        1.3620620     2.0495660    -0.4184890
  O       -1.2647860     2.3345150     0.4675600
  O       -2.9390480     0.0425350    -0.1674130
  O        2.8793210    -0.7013140     0.9576500
  O       -1.7069560    -2.3717120     0.0066660
  C        0.6707462     0.9541579     0.0540445
  C       -0.8241260     1.1660500    -0.2009330
  C        1.0869890    -0.3499130    -0.6435990
  C       -1.6195880    -0.0062280     0.3304940
  C        2.5464540    -0.6897970    -0.4256590
  C       -1.0085030    -1.3756800     0.0131050
  H        0.7972300     0.7916990     1.1507440
  H       -0.9848220     1.2466540    -1.2883090
  H        0.8858480    -0.2577880    -1.7199730
  H       -1.6065420     0.0748220     1.4324700
  H        3.1677010     0.0783010    -0.8925020
  H        2.7689760    -1.6509780    -0.9066980
  H        2.1781240     2.1240460     0.1069910
  H       -0.6426700     3.0335460     0.1906150
  H       -3.3011060    -0.8556610    -0.0346520
  H        2.3748870    -1.4344510     1.3537630
units angstrom
no_reorient  #important for SAPT in psi4, default
symmetry c1  #important for SAPT in psi4, default
}

set PROPERTIES_ORIGIN ["COM"]
properties('MP2/aug-cc-pvtz', properties = ['dipole'])
--------------------------------------------------------------------------

    Molecular point group: c1
  Charge       = 0
  Multiplicity = 1
  Basis Set: AUG-CC-PVTZ
    Blend: AUG-CC-PVTZ
  Basis Set: (AUG-CC-PVTZ AUX)
    Blend: AUG-CC-PVTZ-JKFIT

    Orbital Energies [Eh]
    ---------------------

    Doubly Occupied:

       1A    -20.629848     2A    -20.606189     3A    -20.586724
       4A    -20.575306     5A    -20.574013     6A    -20.568587
       7A    -11.406258     8A    -11.324418     9A    -11.320877
      10A    -11.315378    11A    -11.306391    12A    -11.306386
      13A     -1.476728    14A     -1.426331    15A     -1.398437
      16A     -1.384664    17A     -1.376341    18A     -1.362693
      19A     -1.092526    20A     -1.056173    21A     -0.955098
      22A     -0.873859    23A     -0.868541    24A     -0.798523
      25A     -0.766540    26A     -0.748725    27A     -0.720046
      28A     -0.707350    29A     -0.694763    30A     -0.686088
      31A     -0.665330    32A     -0.645440    33A     -0.629487
      34A     -0.617346    35A     -0.614979    36A     -0.594841
      37A     -0.581867    38A     -0.562420    39A     -0.540249
      40A     -0.534627    41A     -0.518927    42A     -0.503596
      43A     -0.482806    44A     -0.476894    45A     -0.468665
      46A     -0.461438    47A     -0.440612

  @DF-RHF Final Energy:  -682.45347538503199

   => Energetics <=

    Nuclear Repulsion Energy =            801.1133730351056101
    One-Electron Energy =               -2528.6270483024582063
    Two-Electron Energy =                1045.0601998823206031
    Total Energy =                       -682.4534753850318793
  Basis Set: (AUG-CC-PVTZ AUX)
    Blend: AUG-CC-PVTZ-RI
    Molecular point group: c1

    Geometry (in Angstrom), charge = 0, multiplicity = 1:

       Center              X                  Y                   Z               Mass
    ------------   -----------------  -----------------  -----------------  -----------------
         O            0.374214394411    -1.476639755892    -0.130681216892    15.994914619570
         O            1.391750394411     2.064439244108    -0.420699216892    15.994914619570
         O           -1.235097605589     2.349388244108     0.465349783108    15.994914619570
         O           -2.909359605589     0.057408244108    -0.169623216892    15.994914619570
         O            2.909009394411    -0.686440755892     0.955439783108    15.994914619570
         O           -1.677267605589    -2.356838755892     0.004455783108    15.994914619570
         C            0.700434594411     0.969031144108     0.051834283108    12.000000000000
         C           -0.794437605589     1.180923244108    -0.203143216892    12.000000000000
         C            1.116677394411    -0.335039755892    -0.645809216892    12.000000000000
         C           -1.589899605589     0.008645244108     0.328283783108    12.000000000000
         C            2.576142394411    -0.674923755892    -0.427869216892    12.000000000000
         C           -0.978814605589    -1.360806755892     0.010894783108    12.000000000000
         H            0.826918394411     0.806572244108     1.148533783108     1.007825032230
         H           -0.955133605589     1.261527244108    -1.290519216892     1.007825032230
         H            0.915536394411    -0.242914755892    -1.722183216892     1.007825032230
         H           -1.576853605589     0.089695244108     1.430259783108     1.007825032230
         H            3.197389394411     0.093174244108    -0.894712216892     1.007825032230
         H            2.798664394411    -1.636104755892    -0.908908216892     1.007825032230
         H            2.207812394411     2.138919244108     0.104780783108     1.007825032230
         H           -0.612981605589     3.048419244108     0.188404783108     1.007825032230
         H           -3.271417605589    -0.840787755892    -0.036862216892     1.007825032230
         H            2.404575394411    -1.419577755892     1.351552783108     1.007825032230

  Basis Set: AUG-CC-PVTZ
    Blend: AUG-CC-PVTZ
  Basis Set: (AUG-CC-PVTZ AUX)
    Blend: AUG-CC-PVTZ-JKFIT
	 Reference Energy          =    -682.4534753850319930 [Eh]
	 Singles Energy            =      -0.0000000000000000 [Eh]
	 Same-Spin Energy          =      -0.6623101634176437 [Eh]
	 Opposite-Spin Energy      =      -2.0101081723177745 [Eh]
	 Correlation Energy        =      -2.6724183357354181 [Eh]
	 Total Energy              =    -685.1258937207674080 [Eh]

	 ================> DF-SCS-MP2 Energies <==================
	-----------------------------------------------------------
	 SCS Same-Spin Scale       =       0.3333333333333333 [-]
	 SCS Opposite-Spin Scale   =       1.2000000000000000 [-]
	 SCS Same-Spin Energy      =      -0.2207700544725479 [Eh]
	 SCS Opposite-Spin Energy  =      -2.4121298067813295 [Eh]
	 SCS Correlation Energy    =      -2.6328998612538772 [Eh]
	 SCS Total Energy          =    -685.0863752462859111 [Eh]
	-----------------------------------------------------------

  Dipole Moment: [D]
     X:     3.4758      Y:     0.7174      Z:    -0.2925     Total:     3.5611

*** Psi4 exiting successfully. Buy a developer a beer!
