                               Psi4 1.4a3.dev225

  ==> Input File <==

--------------------------------------------------------------------------
#psi4
#
memory 32 gb

molecule  {
0 1
  O        0.3445260    -1.4915130    -0.1284710
  O        1.3620620     2.0495660    -0.4184890
  O       -1.2647860     2.3345150     0.4675600
  O       -2.9390480     0.0425350    -0.1674130
  O        2.8793210    -0.7013140     0.9576500
  O       -1.7069560    -2.3717120     0.0066660
  C        0.6456770     0.9144350     0.0711800
  C       -0.8241260     1.1660500    -0.2009330
  C        1.0869890    -0.3499130    -0.6435990
  C       -1.6195880    -0.0062280     0.3304940
  C        2.5464540    -0.6897970    -0.4256590
  C       -1.0085030    -1.3756800     0.0131050
  H        0.7972300     0.7916990     1.1507440
  H       -0.9848220     1.2466540    -1.2883090
  H        0.8858480    -0.2577880    -1.7199730
  H       -1.6053614     0.0821566     1.5321937
  H        3.1677010     0.0783010    -0.8925020
  H        2.7689760    -1.6509780    -0.9066980
  H        2.1781240     2.1240460     0.1069910
  H       -0.6426700     3.0335460     0.1906150
  H       -3.3011060    -0.8556610    -0.0346520
  H        2.3748870    -1.4344510     1.3537630
units angstrom
no_reorient  #important for SAPT in psi4, default
symmetry c1  #important for SAPT in psi4, default
}

set PROPERTIES_ORIGIN ["COM"]
properties('MP2/aug-cc-pvtz', properties = ['dipole'])
--------------------------------------------------------------------------

    Molecular point group: c1
  Charge       = 0
  Multiplicity = 1
  Basis Set: AUG-CC-PVTZ
    Blend: AUG-CC-PVTZ
  Basis Set: (AUG-CC-PVTZ AUX)
    Blend: AUG-CC-PVTZ-JKFIT

    Orbital Energies [Eh]
    ---------------------

    Doubly Occupied:

       1A    -20.629835     2A    -20.600574     3A    -20.587507
       4A    -20.577794     5A    -20.574870     6A    -20.569155
       7A    -11.407587     8A    -11.332012     9A    -11.326244
      10A    -11.314452    11A    -11.308244    12A    -11.307474
      13A     -1.477687    14A     -1.409297    15A     -1.399515
      16A     -1.384135    17A     -1.374830    18A     -1.363439
      19A     -1.097654    20A     -1.056527    21A     -0.953664
      22A     -0.875843    23A     -0.867944    24A     -0.798380
      25A     -0.762508    26A     -0.740674    27A     -0.720988
      28A     -0.702811    29A     -0.694863    30A     -0.685612
      31A     -0.658381    32A     -0.644119    33A     -0.628584
      34A     -0.617229    35A     -0.612989    36A     -0.590372
      37A     -0.580807    38A     -0.560018    39A     -0.540989
      40A     -0.534434    41A     -0.519730    42A     -0.504270
      43A     -0.483265    44A     -0.477539    45A     -0.471728
      46A     -0.462456    47A     -0.443991

  @DF-RHF Final Energy:  -682.44798969080216

   => Energetics <=

    Nuclear Repulsion Energy =            800.7870417380335084
    One-Electron Energy =               -2528.0040274266839333
    Two-Electron Energy =                1044.7689959978481511
    Total Energy =                       -682.4479896908021601
  Basis Set: (AUG-CC-PVTZ AUX)
    Blend: AUG-CC-PVTZ-RI
    Molecular point group: c1

    Geometry (in Angstrom), charge = 0, multiplicity = 1:

       Center              X                  Y                   Z               Mass
    ------------   -----------------  -----------------  -----------------  -----------------
         O            0.375897317009    -1.474004042506    -0.132400587463    15.994914619570
         O            1.393433317009     2.067074957494    -0.422418587463    15.994914619570
         O           -1.233414682991     2.352023957494     0.463630412537    15.994914619570
         O           -2.907676682991     0.060043957494    -0.171342587463    15.994914619570
         O            2.910692317009    -0.683805042506     0.953720412537    15.994914619570
         O           -1.675584682991    -2.354203042506     0.002736412537    15.994914619570
         C            0.677048317009     0.931943957494     0.067250412537    12.000000000000
         C           -0.792754682991     1.183558957494    -0.204862587463    12.000000000000
         C            1.118360317009    -0.332404042506    -0.647528587463    12.000000000000
         C           -1.588216682991     0.011280957494     0.326564412537    12.000000000000
         C            2.577825317009    -0.672288042506    -0.429588587463    12.000000000000
         C           -0.977131682991    -1.358171042506     0.009175412537    12.000000000000
         H            0.828601317009     0.809207957494     1.146814412537     1.007825032230
         H           -0.953450682991     1.264162957494    -1.292238587463     1.007825032230
         H            0.917219317009    -0.240279042506    -1.723902587463     1.007825032230
         H           -1.573990082991     0.099665557494     1.528264112537     1.007825032230
         H            3.199072317009     0.095809957494    -0.896431587463     1.007825032230
         H            2.800347317009    -1.633469042506    -0.910627587463     1.007825032230
         H            2.209495317009     2.141554957494     0.103061412537     1.007825032230
         H           -0.611298682991     3.051054957494     0.186685412537     1.007825032230
         H           -3.269734682991    -0.838152042506    -0.038581587463     1.007825032230
         H            2.406258317009    -1.416942042506     1.349833412537     1.007825032230

  Basis Set: AUG-CC-PVTZ
    Blend: AUG-CC-PVTZ
  Basis Set: (AUG-CC-PVTZ AUX)
    Blend: AUG-CC-PVTZ-JKFIT
	 Reference Energy          =    -682.4479896908021601 [Eh]
	 Singles Energy            =      -0.0000000000000000 [Eh]
	 Same-Spin Energy          =      -0.6627405168949205 [Eh]
	 Opposite-Spin Energy      =      -2.0118097591270407 [Eh]
	 Correlation Energy        =      -2.6745502760219613 [Eh]
	 Total Energy              =    -685.1225399668240925 [Eh]

	 ================> DF-SCS-MP2 Energies <==================
	-----------------------------------------------------------
	 SCS Same-Spin Scale       =       0.3333333333333333 [-]
	 SCS Opposite-Spin Scale   =       1.2000000000000000 [-]
	 SCS Same-Spin Energy      =      -0.2209135056316402 [Eh]
	 SCS Opposite-Spin Energy  =      -2.4141717109524490 [Eh]
	 SCS Correlation Energy    =      -2.6350852165840890 [Eh]
	 SCS Total Energy          =    -685.0830749073862762 [Eh]
	-----------------------------------------------------------

  Dipole Moment: [D]
     X:     3.3571      Y:     0.5843      Z:    -0.3059     Total:     3.4213

*** Psi4 exiting successfully. Buy a developer a beer!
