                               Psi4 1.4a3.dev225

  ==> Input File <==

--------------------------------------------------------------------------
#psi4
#
memory 32 gb

molecule  {
0 1
  O        0.3445260    -1.4915130    -0.1284710
  O        1.3620620     2.0495660    -0.4184890
  O       -1.2647860     2.3345150     0.4675600
  O       -2.9390480     0.0425350    -0.1674130
  O        2.8793210    -0.7013140     0.9576500
  O       -1.7069560    -2.3717120     0.0066660
  C        0.6456770     0.9144350     0.0711800
  C       -0.6301961     1.1328512    -0.1650297
  C        1.0869890    -0.3499130    -0.6435990
  C       -1.6195880    -0.0062280     0.3304940
  C        2.5464540    -0.6897970    -0.4256590
  C       -1.0085030    -1.3756800     0.0131050
  H        0.7972300     0.7916990     1.1507440
  H       -0.9848220     1.2466540    -1.2883090
  H        0.8858480    -0.2577880    -1.7199730
  H       -1.6065420     0.0748220     1.4324700
  H        3.1677010     0.0783010    -0.8925020
  H        2.7689760    -1.6509780    -0.9066980
  H        2.1781240     2.1240460     0.1069910
  H       -0.6426700     3.0335460     0.1906150
  H       -3.3011060    -0.8556610    -0.0346520
  H        2.3748870    -1.4344510     1.3537630
units angstrom
no_reorient  #important for SAPT in psi4, default
symmetry c1  #important for SAPT in psi4, default
}

set PROPERTIES_ORIGIN ["COM"]
properties('MP2/aug-cc-pvtz', properties = ['dipole'])
--------------------------------------------------------------------------

    Molecular point group: c1
  Charge       = 0
  Multiplicity = 1
  Basis Set: AUG-CC-PVTZ
    Blend: AUG-CC-PVTZ
  Basis Set: (AUG-CC-PVTZ AUX)
    Blend: AUG-CC-PVTZ-JKFIT

    Orbital Energies [Eh]
    ---------------------

    Doubly Occupied:

       1A    -20.631994     2A    -20.603924     3A    -20.590338
       4A    -20.580013     5A    -20.570762     6A    -20.567864
       7A    -11.404512     8A    -11.332332     9A    -11.328386
      10A    -11.311596    11A    -11.310829    12A    -11.309496
      13A     -1.479415    14A     -1.415947    15A     -1.398611
      16A     -1.385913    17A     -1.369978    18A     -1.346458
      19A     -1.132371    20A     -1.059170    21A     -0.973639
      22A     -0.882175    23A     -0.856270    24A     -0.806829
      25A     -0.767656    26A     -0.747513    27A     -0.721733
      28A     -0.701505    29A     -0.695498    30A     -0.685403
      31A     -0.663459    32A     -0.643745    33A     -0.632870
      34A     -0.617277    35A     -0.606629    36A     -0.588231
      37A     -0.584072    38A     -0.560405    39A     -0.544122
      40A     -0.532721    41A     -0.524560    42A     -0.505375
      43A     -0.485564    44A     -0.477693    45A     -0.472953
      46A     -0.452636    47A     -0.450722

  @DF-RHF Final Energy:  -682.40054433218120

   => Energetics <=

    Nuclear Repulsion Energy =            803.2419610566867050
    One-Electron Energy =               -2532.6626923710086885
    Two-Electron Energy =                1047.0201869821407854
    Total Energy =                       -682.4005443321811981
  Basis Set: (AUG-CC-PVTZ AUX)
    Blend: AUG-CC-PVTZ-RI
    Molecular point group: c1

    Geometry (in Angstrom), charge = 0, multiplicity = 1:

       Center              X                  Y                   Z               Mass
    ------------   -----------------  -----------------  -----------------  -----------------
         O            0.362833579230    -1.471725004322    -0.134255907629    15.994914619570
         O            1.380369579230     2.069353995678    -0.424273907629    15.994914619570
         O           -1.246478420770     2.354302995678     0.461775092371    15.994914619570
         O           -2.920740420770     0.062322995678    -0.173197907629    15.994914619570
         O            2.897628579230    -0.681526004322     0.951865092371    15.994914619570
         O           -1.688648420770    -2.351924004322     0.000881092371    15.994914619570
         C            0.663984579230     0.934222995678     0.065395092371    12.000000000000
         C           -0.611888520770     1.152639195678    -0.170814607629    12.000000000000
         C            1.105296579230    -0.330125004322    -0.649383907629    12.000000000000
         C           -1.601280420770     0.013559995678     0.324709092371    12.000000000000
         C            2.564761579230    -0.670009004322    -0.431443907629    12.000000000000
         C           -0.990195420770    -1.355892004322     0.007320092371    12.000000000000
         H            0.815537579230     0.811486995678     1.144959092371     1.007825032230
         H           -0.966514420770     1.266441995678    -1.294093907629     1.007825032230
         H            0.904155579230    -0.238000004322    -1.725757907629     1.007825032230
         H           -1.588234420770     0.094609995678     1.426685092371     1.007825032230
         H            3.186008579230     0.098088995678    -0.898286907629     1.007825032230
         H            2.787283579230    -1.631190004322    -0.912482907629     1.007825032230
         H            2.196431579230     2.143833995678     0.101206092371     1.007825032230
         H           -0.624362420770     3.053333995678     0.184830092371     1.007825032230
         H           -3.282798420770    -0.835873004322    -0.040436907629     1.007825032230
         H            2.393194579230    -1.414663004322     1.347978092371     1.007825032230

  Basis Set: AUG-CC-PVTZ
    Blend: AUG-CC-PVTZ
  Basis Set: (AUG-CC-PVTZ AUX)
    Blend: AUG-CC-PVTZ-JKFIT
	 Reference Energy          =    -682.4005443321811981 [Eh]
	 Singles Energy            =      -0.0000000000000000 [Eh]
	 Same-Spin Energy          =      -0.6658624258852780 [Eh]
	 Opposite-Spin Energy      =      -2.0169125374467791 [Eh]
	 Correlation Energy        =      -2.6827749633320570 [Eh]
	 Total Energy              =    -685.0833192955132063 [Eh]

	 ================> DF-SCS-MP2 Energies <==================
	-----------------------------------------------------------
	 SCS Same-Spin Scale       =       0.3333333333333333 [-]
	 SCS Opposite-Spin Scale   =       1.2000000000000000 [-]
	 SCS Same-Spin Energy      =      -0.2219541419617593 [Eh]
	 SCS Opposite-Spin Energy  =      -2.4202950449361347 [Eh]
	 SCS Correlation Energy    =      -2.6422491868978941 [Eh]
	 SCS Total Energy          =    -685.0427935190790549 [Eh]
	-----------------------------------------------------------

  Dipole Moment: [D]
     X:     3.6073      Y:     0.3250      Z:    -0.2550     Total:     3.6309

*** Psi4 exiting successfully. Buy a developer a beer!
