                               Psi4 1.4a3.dev225

  ==> Input File <==

--------------------------------------------------------------------------
#psi4
#
memory 32 gb

molecule  {
0 1
  O        0.3445260    -1.4915130    -0.1284710
  O        1.3620620     2.0495660    -0.4184890
  O       -1.2647860     2.3345150     0.4675600
  O       -2.9390480     0.0425350    -0.1674130
  O        2.8793210    -0.7013140     0.9576500
  O       -1.7069560    -2.3717120     0.0066660
  C        0.6456770     0.9144350     0.0711800
  C       -0.8241260     1.1660500    -0.2009330
  C        1.0869890    -0.3499130    -0.6435990
  C       -1.6195880    -0.0062280     0.3304940
  C        2.5464540    -0.6897970    -0.4256590
  C       -1.0085030    -1.3756800     0.0131050
  H        0.7972300     0.7916990     1.1507440
  H       -0.9848220     1.2466540    -1.2883090
  H        0.9224565    -0.2745552    -1.5240682
  H       -1.6065420     0.0748220     1.4324700
  H        3.1677010     0.0783010    -0.8925020
  H        2.7689760    -1.6509780    -0.9066980
  H        2.1781240     2.1240460     0.1069910
  H       -0.6426700     3.0335460     0.1906150
  H       -3.3011060    -0.8556610    -0.0346520
  H        2.3748870    -1.4344510     1.3537630
units angstrom
no_reorient  #important for SAPT in psi4, default
symmetry c1  #important for SAPT in psi4, default
}

set PROPERTIES_ORIGIN ["COM"]
properties('MP2/aug-cc-pvtz', properties = ['dipole'])
--------------------------------------------------------------------------

    Molecular point group: c1
  Charge       = 0
  Multiplicity = 1
  Basis Set: AUG-CC-PVTZ
    Blend: AUG-CC-PVTZ
  Basis Set: (AUG-CC-PVTZ AUX)
    Blend: AUG-CC-PVTZ-JKFIT

    Orbital Energies [Eh]
    ---------------------

    Doubly Occupied:

       1A    -20.628151     2A    -20.600706     3A    -20.586660
       4A    -20.575413     5A    -20.575081     6A    -20.568421
       7A    -11.406376     8A    -11.321003     9A    -11.313386
      10A    -11.307570    11A    -11.306730    12A    -11.302500
      13A     -1.477186    14A     -1.409489    15A     -1.398882
      16A     -1.383282    17A     -1.374630    18A     -1.362762
      19A     -1.105841    20A     -1.064935    21A     -0.956269
      22A     -0.883530    23A     -0.871528    24A     -0.819833
      25A     -0.763569    26A     -0.743630    27A     -0.724123
      28A     -0.712719    29A     -0.696229    30A     -0.687215
      31A     -0.663490    32A     -0.643986    33A     -0.628125
      34A     -0.617293    35A     -0.615217    36A     -0.595207
      37A     -0.589198    38A     -0.560526    39A     -0.540987
      40A     -0.534503    41A     -0.520726    42A     -0.503921
      43A     -0.486450    44A     -0.479188    45A     -0.472718
      46A     -0.465041    47A     -0.444697

  @DF-RHF Final Energy:  -682.42306468933054

   => Energetics <=

    Nuclear Repulsion Energy =            802.6770555696792826
    One-Electron Energy =               -2531.6224043157235428
    Two-Electron Energy =                1046.5222840567134881
    Total Energy =                       -682.4230646893306584
  Basis Set: (AUG-CC-PVTZ AUX)
    Blend: AUG-CC-PVTZ-RI
    Molecular point group: c1

    Geometry (in Angstrom), charge = 0, multiplicity = 1:

       Center              X                  Y                   Z               Mass
    ------------   -----------------  -----------------  -----------------  -----------------
         O            0.375696780204    -1.473867616187    -0.132945012915    15.994914619570
         O            1.393232780204     2.067211383813    -0.422963012915    15.994914619570
         O           -1.233615219796     2.352160383813     0.463085987085    15.994914619570
         O           -2.907877219796     0.060180383813    -0.171887012915    15.994914619570
         O            2.910491780204    -0.683668616187     0.953175987085    15.994914619570
         O           -1.675785219796    -2.354066616187     0.002191987085    15.994914619570
         C            0.676847780204     0.932080383813     0.066705987085    12.000000000000
         C           -0.792955219796     1.183695383813    -0.205407012915    12.000000000000
         C            1.118159780204    -0.332267616187    -0.648073012915    12.000000000000
         C           -1.588417219796     0.011417383813     0.326019987085    12.000000000000
         C            2.577624780204    -0.672151616187    -0.430133012915    12.000000000000
         C           -0.977332219796    -1.358034616187     0.008630987085    12.000000000000
         H            0.828400780204     0.809344383813     1.146269987085     1.007825032230
         H           -0.953651219796     1.264299383813    -1.292783012915     1.007825032230
         H            0.953627280204    -0.256909816187    -1.528542212915     1.007825032230
         H           -1.575371219796     0.092467383813     1.427995987085     1.007825032230
         H            3.198871780204     0.095946383813    -0.896976012915     1.007825032230
         H            2.800146780204    -1.633332616187    -0.911172012915     1.007825032230
         H            2.209294780204     2.141691383813     0.102516987085     1.007825032230
         H           -0.611499219796     3.051191383813     0.186140987085     1.007825032230
         H           -3.269935219796    -0.838015616187    -0.039126012915     1.007825032230
         H            2.406057780204    -1.416805616187     1.349288987085     1.007825032230

  Basis Set: AUG-CC-PVTZ
    Blend: AUG-CC-PVTZ
  Basis Set: (AUG-CC-PVTZ AUX)
    Blend: AUG-CC-PVTZ-JKFIT
	 Reference Energy          =    -682.4230646893305448 [Eh]
	 Singles Energy            =      -0.0000000000000000 [Eh]
	 Same-Spin Energy          =      -0.6621165633289190 [Eh]
	 Opposite-Spin Energy      =      -2.0097412041129052 [Eh]
	 Correlation Energy        =      -2.6718577674418240 [Eh]
	 Total Energy              =    -685.0949224567723377 [Eh]

	 ================> DF-SCS-MP2 Energies <==================
	-----------------------------------------------------------
	 SCS Same-Spin Scale       =       0.3333333333333333 [-]
	 SCS Opposite-Spin Scale   =       1.2000000000000000 [-]
	 SCS Same-Spin Energy      =      -0.2207055211096396 [Eh]
	 SCS Opposite-Spin Energy  =      -2.4116894449354862 [Eh]
	 SCS Correlation Energy    =      -2.6323949660451258 [Eh]
	 SCS Total Energy          =    -685.0554596553756710 [Eh]
	-----------------------------------------------------------

  Dipole Moment: [D]
     X:     3.4173      Y:     0.6004      Z:    -0.3243     Total:     3.4848

*** Psi4 exiting successfully. Buy a developer a beer!
