                               Psi4 1.4a3.dev225

  ==> Input File <==

--------------------------------------------------------------------------
#psi4
#
memory 32 gb

molecule  {
0 1
  O        0.3445260    -1.4915130    -0.1284710
  O        1.3620620     2.0495660    -0.4184890
  O       -1.2508591     2.3141961     0.5104277
  O       -2.9390480     0.0425350    -0.1674130
  O        2.8793210    -0.7013140     0.9576500
  O       -1.7069560    -2.3717120     0.0066660
  C        0.6456770     0.9144350     0.0711800
  C       -0.8241260     1.1660500    -0.2009330
  C        1.0869890    -0.3499130    -0.6435990
  C       -1.6195880    -0.0062280     0.3304940
  C        2.5464540    -0.6897970    -0.4256590
  C       -1.0085030    -1.3756800     0.0131050
  H        0.7972300     0.7916990     1.1507440
  H       -0.9848220     1.2466540    -1.2883090
  H        0.8858480    -0.2577880    -1.7199730
  H       -1.6065420     0.0748220     1.4324700
  H        3.1677010     0.0783010    -0.8925020
  H        2.7689760    -1.6509780    -0.9066980
  H        2.1781240     2.1240460     0.1069910
  H       -0.6426700     3.0335460     0.1906150
  H       -3.3011060    -0.8556610    -0.0346520
  H        2.3748870    -1.4344510     1.3537630
units angstrom
no_reorient  #important for SAPT in psi4, default
symmetry c1  #important for SAPT in psi4, default
}

set PROPERTIES_ORIGIN ["COM"]
properties('MP2/aug-cc-pvtz', properties = ['dipole'])
--------------------------------------------------------------------------

    Molecular point group: c1
  Charge       = 0
  Multiplicity = 1
  Basis Set: AUG-CC-PVTZ
    Blend: AUG-CC-PVTZ
  Basis Set: (AUG-CC-PVTZ AUX)
    Blend: AUG-CC-PVTZ-JKFIT

    Orbital Energies [Eh]
    ---------------------

    Doubly Occupied:

       1A    -20.629369     2A    -20.600336     3A    -20.587292
       4A    -20.577376     5A    -20.575411     6A    -20.568802
       7A    -11.406321     8A    -11.325682     9A    -11.320481
      10A    -11.313692    11A    -11.307271    12A    -11.307146
      13A     -1.477272    14A     -1.408798    15A     -1.398754
      16A     -1.383639    17A     -1.373831    18A     -1.361599
      19A     -1.097280    20A     -1.057604    21A     -0.956114
      22A     -0.875085    23A     -0.867868    24A     -0.801369
      25A     -0.761799    26A     -0.741570    27A     -0.720528
      28A     -0.708194    29A     -0.692412    30A     -0.685758
      31A     -0.660370    32A     -0.643568    33A     -0.628364
      34A     -0.616394    35A     -0.614164    36A     -0.590159
      37A     -0.582845    38A     -0.559207    39A     -0.541760
      40A     -0.533325    41A     -0.519856    42A     -0.503953
      43A     -0.483033    44A     -0.478331    45A     -0.474235
      46A     -0.464357    47A     -0.444009

  @DF-RHF Final Energy:  -682.45271341697310

   => Energetics <=

    Nuclear Repulsion Energy =            801.5890964283305493
    One-Electron Energy =               -2529.6304551279026782
    Two-Electron Energy =                1045.5886452825989181
    Total Energy =                       -682.4527134169732108
  Basis Set: (AUG-CC-PVTZ AUX)
    Blend: AUG-CC-PVTZ-RI
    Molecular point group: c1

    Geometry (in Angstrom), charge = 0, multiplicity = 1:

       Center              X                  Y                   Z               Mass
    ------------   -----------------  -----------------  -----------------  -----------------
         O            0.374652876946    -1.472137177653    -0.135687128291    15.994914619570
         O            1.392188876946     2.068941822347    -0.425705128291    15.994914619570
         O           -1.220732223054     2.333571922347     0.503211571709    15.994914619570
         O           -2.908921123054     0.061910822347    -0.174629128291    15.994914619570
         O            2.909447876946    -0.681938177653     0.950433871709    15.994914619570
         O           -1.676829123054    -2.352336177653    -0.000550128291    15.994914619570
         C            0.675803876946     0.933810822347     0.063963871709    12.000000000000
         C           -0.793999123054     1.185425822347    -0.208149128291    12.000000000000
         C            1.117115876946    -0.330537177653    -0.650815128291    12.000000000000
         C           -1.589461123054     0.013147822347     0.323277871709    12.000000000000
         C            2.576580876946    -0.670421177653    -0.432875128291    12.000000000000
         C           -0.978376123054    -1.356304177653     0.005888871709    12.000000000000
         H            0.827356876946     0.811074822347     1.143527871709     1.007825032230
         H           -0.954695123054     1.266029822347    -1.295525128291     1.007825032230
         H            0.915974876946    -0.238412177653    -1.727189128291     1.007825032230
         H           -1.576415123054     0.094197822347     1.425253871709     1.007825032230
         H            3.197827876946     0.097676822347    -0.899718128291     1.007825032230
         H            2.799102876946    -1.631602177653    -0.913914128291     1.007825032230
         H            2.208250876946     2.143421822347     0.099774871709     1.007825032230
         H           -0.612543123054     3.052921822347     0.183398871709     1.007825032230
         H           -3.270979123054    -0.836285177653    -0.041868128291     1.007825032230
         H            2.405013876946    -1.415075177653     1.346546871709     1.007825032230

  Basis Set: AUG-CC-PVTZ
    Blend: AUG-CC-PVTZ
  Basis Set: (AUG-CC-PVTZ AUX)
    Blend: AUG-CC-PVTZ-JKFIT
	 Reference Energy          =    -682.4527134169730971 [Eh]
	 Singles Energy            =      -0.0000000000000000 [Eh]
	 Same-Spin Energy          =      -0.6627927170211128 [Eh]
	 Opposite-Spin Energy      =      -2.0115993572696929 [Eh]
	 Correlation Energy        =      -2.6743920742908056 [Eh]
	 Total Energy              =    -685.1271054912639329 [Eh]

	 ================> DF-SCS-MP2 Energies <==================
	-----------------------------------------------------------
	 SCS Same-Spin Scale       =       0.3333333333333333 [-]
	 SCS Opposite-Spin Scale   =       1.2000000000000000 [-]
	 SCS Same-Spin Energy      =      -0.2209309056737042 [Eh]
	 SCS Opposite-Spin Energy  =      -2.4139192287236315 [Eh]
	 SCS Correlation Energy    =      -2.6348501343973356 [Eh]
	 SCS Total Energy          =    -685.0875635513704083 [Eh]
	-----------------------------------------------------------

  Dipole Moment: [D]
     X:     3.3438      Y:     0.6351      Z:    -0.3400     Total:     3.4206

*** Psi4 exiting successfully. Buy a developer a beer!
