                               Psi4 1.4a3.dev225

  ==> Input File <==

--------------------------------------------------------------------------
#psi4
#
memory 32 gb

molecule  {
0 1
  O        0.3445260    -1.4915130    -0.1284710
  O        1.3620620     2.0495660    -0.4184890
  O       -1.2647860     2.3345150     0.4675600
  O       -2.9390480     0.0425350    -0.1674130
  O        2.8793210    -0.7013140     0.9576500
  O       -1.7069560    -2.3717120     0.0066660
  C        0.6456770     0.9144350     0.0711800
  C       -0.8241260     1.1660500    -0.2009330
  C        1.0869890    -0.3499130    -0.6435990
  C       -1.6195880    -0.0062280     0.3304940
  C        2.5464540    -0.6897970    -0.4256590
  C       -1.0283227    -1.3739832     0.0151789
  H        0.7972300     0.7916990     1.1507440
  H       -0.9848220     1.2466540    -1.2883090
  H        0.8858480    -0.2577880    -1.7199730
  H       -1.6065420     0.0748220     1.4324700
  H        3.1677010     0.0783010    -0.8925020
  H        2.7689760    -1.6509780    -0.9066980
  H        2.1781240     2.1240460     0.1069910
  H       -0.6426700     3.0335460     0.1906150
  H       -3.3011060    -0.8556610    -0.0346520
  H        2.3748870    -1.4344510     1.3537630
units angstrom
no_reorient  #important for SAPT in psi4, default
symmetry c1  #important for SAPT in psi4, default
}

set PROPERTIES_ORIGIN ["COM"]
properties('MP2/aug-cc-pvtz', properties = ['dipole'])
--------------------------------------------------------------------------

    Molecular point group: c1
  Charge       = 0
  Multiplicity = 1
  Basis Set: AUG-CC-PVTZ
    Blend: AUG-CC-PVTZ
  Basis Set: (AUG-CC-PVTZ AUX)
    Blend: AUG-CC-PVTZ-JKFIT

    Orbital Energies [Eh]
    ---------------------

    Doubly Occupied:

       1A    -20.625443     2A    -20.599769     3A    -20.586251
       4A    -20.576526     5A    -20.575169     6A    -20.572978
       7A    -11.407192     8A    -11.323767     9A    -11.321701
      10A    -11.313621    11A    -11.307797    12A    -11.305951
      13A     -1.474157    14A     -1.409349    15A     -1.399791
      16A     -1.383105    17A     -1.375872    18A     -1.364472
      19A     -1.096638    20A     -1.057530    21A     -0.957076
      22A     -0.877246    23A     -0.864524    24A     -0.800060
      25A     -0.761556    26A     -0.741150    27A     -0.720675
      28A     -0.708386    29A     -0.694653    30A     -0.685102
      31A     -0.662515    32A     -0.644597    33A     -0.627955
      34A     -0.615528    35A     -0.613761    36A     -0.590528
      37A     -0.582169    38A     -0.559677    39A     -0.540742
      40A     -0.534787    41A     -0.519309    42A     -0.506296
      43A     -0.485581    44A     -0.477534    45A     -0.472939
      46A     -0.465211    47A     -0.444946

  @DF-RHF Final Energy:  -682.45454131638621

   => Energetics <=

    Nuclear Repulsion Energy =            801.2606218923241386
    One-Electron Energy =               -2528.9671494514454935
    Two-Electron Energy =                1045.2519862427350290
    Total Energy =                       -682.4545413163862122
  Basis Set: (AUG-CC-PVTZ AUX)
    Blend: AUG-CC-PVTZ-RI
    Molecular point group: c1

    Geometry (in Angstrom), charge = 0, multiplicity = 1:

       Center              X                  Y                   Z               Mass
    ------------   -----------------  -----------------  -----------------  -----------------
         O            0.377239801001    -1.474076885928    -0.131975885403    15.994914619570
         O            1.394775801001     2.067002114072    -0.421993885403    15.994914619570
         O           -1.232072198999     2.351951114072     0.464055114597    15.994914619570
         O           -2.906334198999     0.059971114072    -0.170917885403    15.994914619570
         O            2.912034801001    -0.683877885928     0.954145114597    15.994914619570
         O           -1.674242198999    -2.354275885928     0.003161114597    15.994914619570
         C            0.678390801001     0.931871114072     0.067675114597    12.000000000000
         C           -0.791412198999     1.183486114072    -0.204437885403    12.000000000000
         C            1.119702801001    -0.332476885928    -0.647103885403    12.000000000000
         C           -1.586874198999     0.011208114072     0.326989114597    12.000000000000
         C            2.579167801001    -0.672360885928    -0.429163885403    12.000000000000
         C           -0.995608898999    -1.356547085928     0.011674014597    12.000000000000
         H            0.829943801001     0.809135114072     1.147239114597     1.007825032230
         H           -0.952108198999     1.264090114072    -1.291813885403     1.007825032230
         H            0.918561801001    -0.240351885928    -1.723477885403     1.007825032230
         H           -1.573828198999     0.092258114072     1.428965114597     1.007825032230
         H            3.200414801001     0.095737114072    -0.896006885403     1.007825032230
         H            2.801689801001    -1.633541885928    -0.910202885403     1.007825032230
         H            2.210837801001     2.141482114072     0.103486114597     1.007825032230
         H           -0.609956198999     3.050982114072     0.187110114597     1.007825032230
         H           -3.268392198999    -0.838224885928    -0.038156885403     1.007825032230
         H            2.407600801001    -1.417014885928     1.350258114597     1.007825032230

  Basis Set: AUG-CC-PVTZ
    Blend: AUG-CC-PVTZ
  Basis Set: (AUG-CC-PVTZ AUX)
    Blend: AUG-CC-PVTZ-JKFIT
	 Reference Energy          =    -682.4545413163862122 [Eh]
	 Singles Energy            =      -0.0000000000000000 [Eh]
	 Same-Spin Energy          =      -0.6624192919844941 [Eh]
	 Opposite-Spin Energy      =      -2.0108275188392235 [Eh]
	 Correlation Energy        =      -2.6732468108237177 [Eh]
	 Total Energy              =    -685.1277881272098966 [Eh]

	 ================> DF-SCS-MP2 Energies <==================
	-----------------------------------------------------------
	 SCS Same-Spin Scale       =       0.3333333333333333 [-]
	 SCS Opposite-Spin Scale   =       1.2000000000000000 [-]
	 SCS Same-Spin Energy      =      -0.2208064306614980 [Eh]
	 SCS Opposite-Spin Energy  =      -2.4129930226070679 [Eh]
	 SCS Correlation Energy    =      -2.6337994532685660 [Eh]
	 SCS Total Energy          =    -685.0883407696547920 [Eh]
	-----------------------------------------------------------

  Dipole Moment: [D]
     X:     3.2144      Y:     0.5389      Z:    -0.2415     Total:     3.2682

*** Psi4 exiting successfully. Buy a developer a beer!
