                               Psi4 1.4a3.dev225

  ==> Input File <==

--------------------------------------------------------------------------
#psi4
#
memory 32 gb

molecule  {
0 1
  O        0.3388167    -1.5380652    -0.1369254
  O        1.3620620     2.0495660    -0.4184890
  O       -1.2647860     2.3345150     0.4675600
  O       -2.9390480     0.0425350    -0.1674130
  O        2.8793210    -0.7013140     0.9576500
  O       -1.7069560    -2.3717120     0.0066660
  C        0.6456770     0.9144350     0.0711800
  C       -0.8241260     1.1660500    -0.2009330
  C        1.0869890    -0.3499130    -0.6435990
  C       -1.6195880    -0.0062280     0.3304940
  C        2.5464540    -0.6897970    -0.4256590
  C       -1.0085030    -1.3756800     0.0131050
  H        0.7972300     0.7916990     1.1507440
  H       -0.9848220     1.2466540    -1.2883090
  H        0.8858480    -0.2577880    -1.7199730
  H       -1.6065420     0.0748220     1.4324700
  H        3.1677010     0.0783010    -0.8925020
  H        2.7689760    -1.6509780    -0.9066980
  H        2.1781240     2.1240460     0.1069910
  H       -0.6426700     3.0335460     0.1906150
  H       -3.3011060    -0.8556610    -0.0346520
  H        2.3748870    -1.4344510     1.3537630
units angstrom
no_reorient  #important for SAPT in psi4, default
symmetry c1  #important for SAPT in psi4, default
}

set PROPERTIES_ORIGIN ["COM"]
properties('MP2/aug-cc-pvtz', properties = ['dipole'])
--------------------------------------------------------------------------

    Molecular point group: c1
  Charge       = 0
  Multiplicity = 1
  Basis Set: AUG-CC-PVTZ
    Blend: AUG-CC-PVTZ
  Basis Set: (AUG-CC-PVTZ AUX)
    Blend: AUG-CC-PVTZ-JKFIT

    Orbital Energies [Eh]
    ---------------------

    Doubly Occupied:

       1A    -20.629731     2A    -20.602808     3A    -20.588025
       4A    -20.576130     5A    -20.575591     6A    -20.565289
       7A    -11.403879     8A    -11.328917     9A    -11.322557
      10A    -11.317015    11A    -11.308434    12A    -11.308156
      13A     -1.472365    14A     -1.410821    15A     -1.396797
      16A     -1.384422    17A     -1.372684    18A     -1.361146
      19A     -1.100399    20A     -1.056113    21A     -0.957110
      22A     -0.877437    23A     -0.862522    24A     -0.800470
      25A     -0.762450    26A     -0.741838    27A     -0.720139
      28A     -0.707506    29A     -0.693756    30A     -0.682911
      31A     -0.661723    32A     -0.643267    33A     -0.629866
      34A     -0.616790    35A     -0.615208    36A     -0.591071
      37A     -0.581837    38A     -0.560907    39A     -0.541838
      40A     -0.534300    41A     -0.519602    42A     -0.502336
      43A     -0.484174    44A     -0.478293    45A     -0.472620
      46A     -0.465145    47A     -0.447101

  @DF-RHF Final Energy:  -682.45206458382120

   => Energetics <=

    Nuclear Repulsion Energy =            800.1380505001728807
    One-Electron Energy =               -2526.7132434008685777
    Two-Electron Energy =                1044.1231283168742721
    Total Energy =                       -682.4520645838213113
  Basis Set: (AUG-CC-PVTZ AUX)
    Blend: AUG-CC-PVTZ-RI
    Molecular point group: c1

    Geometry (in Angstrom), charge = 0, multiplicity = 1:

       Center              X                  Y                   Z               Mass
    ------------   -----------------  -----------------  -----------------  -----------------
         O            0.370707594540    -1.516332709727    -0.139531008569    15.994914619570
         O            1.393952894540     2.071298490273    -0.421094608569    15.994914619570
         O           -1.232895105460     2.356247490273     0.464954391431    15.994914619570
         O           -2.907157105460     0.064267490273    -0.170018608569    15.994914619570
         O            2.911211894540    -0.679581509727     0.955044391431    15.994914619570
         O           -1.675065105460    -2.349979509727     0.004060391431    15.994914619570
         C            0.677567894540     0.936167490273     0.068574391431    12.000000000000
         C           -0.792235105460     1.187782490273    -0.203538608569    12.000000000000
         C            1.118879894540    -0.328180509727    -0.646204608569    12.000000000000
         C           -1.587697105460     0.015504490273     0.327888391431    12.000000000000
         C            2.578344894540    -0.668064509727    -0.428264608569    12.000000000000
         C           -0.976612105460    -1.353947509727     0.010499391431    12.000000000000
         H            0.829120894540     0.813431490273     1.148138391431     1.007825032230
         H           -0.952931105460     1.268386490273    -1.290914608569     1.007825032230
         H            0.917738894540    -0.236055509727    -1.722578608569     1.007825032230
         H           -1.574651105460     0.096554490273     1.429864391431     1.007825032230
         H            3.199591894540     0.100033490273    -0.895107608569     1.007825032230
         H            2.800866894540    -1.629245509727    -0.909303608569     1.007825032230
         H            2.210014894540     2.145778490273     0.104385391431     1.007825032230
         H           -0.610779105460     3.055278490273     0.188009391431     1.007825032230
         H           -3.269215105460    -0.833928509727    -0.037257608569     1.007825032230
         H            2.406777894540    -1.412718509727     1.351157391431     1.007825032230

  Basis Set: AUG-CC-PVTZ
    Blend: AUG-CC-PVTZ
  Basis Set: (AUG-CC-PVTZ AUX)
    Blend: AUG-CC-PVTZ-JKFIT
	 Reference Energy          =    -682.4520645838211976 [Eh]
	 Singles Energy            =      -0.0000000000000000 [Eh]
	 Same-Spin Energy          =      -0.6626574462779955 [Eh]
	 Opposite-Spin Energy      =      -2.0118184358363638 [Eh]
	 Correlation Energy        =      -2.6744758821143595 [Eh]
	 Total Energy              =    -685.1265404659355909 [Eh]

	 ================> DF-SCS-MP2 Energies <==================
	-----------------------------------------------------------
	 SCS Same-Spin Scale       =       0.3333333333333333 [-]
	 SCS Opposite-Spin Scale   =       1.2000000000000000 [-]
	 SCS Same-Spin Energy      =      -0.2208858154259985 [Eh]
	 SCS Opposite-Spin Energy  =      -2.4141821230036364 [Eh]
	 SCS Correlation Energy    =      -2.6350679384296347 [Eh]
	 SCS Total Energy          =    -685.0871325222508403 [Eh]
	-----------------------------------------------------------

  Dipole Moment: [D]
     X:     3.4506      Y:     0.7170      Z:    -0.2633     Total:     3.5342

*** Psi4 exiting successfully. Buy a developer a beer!
