                               Psi4 1.4a3.dev225

  ==> Input File <==

--------------------------------------------------------------------------
#psi4
#
memory 32 gb

molecule  {
0 1
  O        0.3445260    -1.4915130    -0.1284710
  O        1.3620620     2.0495660    -0.4184890
  O       -1.2647860     2.3345150     0.4675600
  O       -2.9390480     0.0425350    -0.1674130
  O        2.8793210    -0.7013140     0.9576500
  O       -1.7069560    -2.3717120     0.0066660
  C        0.6456770     0.9144350     0.0711800
  C       -0.8289743     1.1644081    -0.1749774
  C        1.0869890    -0.3499130    -0.6435990
  C       -1.6195880    -0.0062280     0.3304940
  C        2.5464540    -0.6897970    -0.4256590
  C       -1.0085030    -1.3756800     0.0131050
  H        0.7972300     0.7916990     1.1507440
  H       -0.9848220     1.2466540    -1.2883090
  H        0.8858480    -0.2577880    -1.7199730
  H       -1.6065420     0.0748220     1.4324700
  H        3.1677010     0.0783010    -0.8925020
  H        2.7689760    -1.6509780    -0.9066980
  H        2.1781240     2.1240460     0.1069910
  H       -0.6426700     3.0335460     0.1906150
  H       -3.3011060    -0.8556610    -0.0346520
  H        2.3748870    -1.4344510     1.3537630
units angstrom
no_reorient  #important for SAPT in psi4, default
symmetry c1  #important for SAPT in psi4, default
}

set PROPERTIES_ORIGIN ["COM"]
properties('MP2/aug-cc-pvtz', properties = ['dipole'])
--------------------------------------------------------------------------

    Molecular point group: c1
  Charge       = 0
  Multiplicity = 1
  Basis Set: AUG-CC-PVTZ
    Blend: AUG-CC-PVTZ
  Basis Set: (AUG-CC-PVTZ AUX)
    Blend: AUG-CC-PVTZ-JKFIT

    Orbital Energies [Eh]
    ---------------------

    Doubly Occupied:

       1A    -20.629852     2A    -20.600977     3A    -20.587504
       4A    -20.575929     5A    -20.575827     6A    -20.569593
       7A    -11.407612     8A    -11.326356     9A    -11.320908
      10A    -11.314529    11A    -11.308341    12A    -11.307544
      13A     -1.477865    14A     -1.410446    15A     -1.399864
      16A     -1.384111    17A     -1.376885    18A     -1.364402
      19A     -1.098746    20A     -1.059564    21A     -0.956859
      22A     -0.875672    23A     -0.869010    24A     -0.800216
      25A     -0.763053    26A     -0.742089    27A     -0.722256
      28A     -0.707890    29A     -0.696357    30A     -0.686372
      31A     -0.663254    32A     -0.643520    33A     -0.628612
      34A     -0.619782    35A     -0.614613    36A     -0.590742
      37A     -0.582930    38A     -0.560276    39A     -0.541113
      40A     -0.534705    41A     -0.519975    42A     -0.504453
      43A     -0.485110    44A     -0.477820    45A     -0.470238
      46A     -0.463183    47A     -0.445470

  @DF-RHF Final Energy:  -682.45419556143383

   => Energetics <=

    Nuclear Repulsion Energy =            801.5557448199218697
    One-Electron Energy =               -2529.4950298543653844
    Two-Electron Energy =                1045.4850894730095661
    Total Energy =                       -682.4541955614338349
  Basis Set: (AUG-CC-PVTZ AUX)
    Blend: AUG-CC-PVTZ-RI
    Molecular point group: c1

    Geometry (in Angstrom), charge = 0, multiplicity = 1:

       Center              X                  Y                   Z               Mass
    ------------   -----------------  -----------------  -----------------  -----------------
         O            0.376230763751    -1.473851865377    -0.133585455978    15.994914619570
         O            1.393766763751     2.067227134623    -0.423603455978    15.994914619570
         O           -1.233081236249     2.352176134623     0.462445544022    15.994914619570
         O           -2.907343236249     0.060196134623    -0.172527455978    15.994914619570
         O            2.911025763751    -0.683652865377     0.952535544022    15.994914619570
         O           -1.675251236249    -2.354050865377     0.001551544022    15.994914619570
         C            0.677381763751     0.932096134623     0.066065544022    12.000000000000
         C           -0.797269536249     1.182069234623    -0.180091855978    12.000000000000
         C            1.118693763751    -0.332251865377    -0.648713455978    12.000000000000
         C           -1.587883236249     0.011433134623     0.325379544022    12.000000000000
         C            2.578158763751    -0.672135865377    -0.430773455978    12.000000000000
         C           -0.976798236249    -1.358018865377     0.007990544022    12.000000000000
         H            0.828934763751     0.809360134623     1.145629544022     1.007825032230
         H           -0.953117236249     1.264315134623    -1.293423455978     1.007825032230
         H            0.917552763751    -0.240126865377    -1.725087455978     1.007825032230
         H           -1.574837236249     0.092483134623     1.427355544022     1.007825032230
         H            3.199405763751     0.095962134623    -0.897616455978     1.007825032230
         H            2.800680763751    -1.633316865377    -0.911812455978     1.007825032230
         H            2.209828763751     2.141707134623     0.101876544022     1.007825032230
         H           -0.610965236249     3.051207134623     0.185500544022     1.007825032230
         H           -3.269401236249    -0.837999865377    -0.039766455978     1.007825032230
         H            2.406591763751    -1.416789865377     1.348648544022     1.007825032230

  Basis Set: AUG-CC-PVTZ
    Blend: AUG-CC-PVTZ
  Basis Set: (AUG-CC-PVTZ AUX)
    Blend: AUG-CC-PVTZ-JKFIT
	 Reference Energy          =    -682.4541955614338349 [Eh]
	 Singles Energy            =      -0.0000000000000000 [Eh]
	 Same-Spin Energy          =      -0.6625509812756173 [Eh]
	 Opposite-Spin Energy      =      -2.0107245042236617 [Eh]
	 Correlation Energy        =      -2.6732754854992788 [Eh]
	 Total Energy              =    -685.1274710469331239 [Eh]

	 ================> DF-SCS-MP2 Energies <==================
	-----------------------------------------------------------
	 SCS Same-Spin Scale       =       0.3333333333333333 [-]
	 SCS Opposite-Spin Scale   =       1.2000000000000000 [-]
	 SCS Same-Spin Energy      =      -0.2208503270918724 [Eh]
	 SCS Opposite-Spin Energy  =      -2.4128694050683941 [Eh]
	 SCS Correlation Energy    =      -2.6337197321602663 [Eh]
	 SCS Total Energy          =    -685.0879152935940510 [Eh]
	-----------------------------------------------------------

  Dipole Moment: [D]
     X:     3.3910      Y:     0.5924      Z:    -0.2248     Total:     3.4497

*** Psi4 exiting successfully. Buy a developer a beer!
