                               Psi4 1.4a3.dev225

  ==> Input File <==

--------------------------------------------------------------------------
#psi4
#
memory 32 gb

molecule  {
0 1
  O        0.3445260    -1.4915130    -0.1284710
  O        1.3620620     2.0495660    -0.4184890
  O       -1.2647860     2.3345150     0.4675600
  O       -2.9390480     0.0425350    -0.1674130
  O        2.8793210    -0.7013140     0.9576500
  O       -1.7069560    -2.3717120     0.0066660
  C        0.6456770     0.9144350     0.0711800
  C       -0.8241260     1.1660500    -0.2009330
  C        1.0869890    -0.3499130    -0.6435990
  C       -1.6195880    -0.0062280     0.3304940
  C        2.5464540    -0.6897970    -0.4256590
  C       -1.0483695    -1.2863384     0.0338111
  H        0.7972300     0.7916990     1.1507440
  H       -0.9848220     1.2466540    -1.2883090
  H        0.8858480    -0.2577880    -1.7199730
  H       -1.6065420     0.0748220     1.4324700
  H        3.1677010     0.0783010    -0.8925020
  H        2.7689760    -1.6509780    -0.9066980
  H        2.1781240     2.1240460     0.1069910
  H       -0.6426700     3.0335460     0.1906150
  H       -3.3011060    -0.8556610    -0.0346520
  H        2.3748870    -1.4344510     1.3537630
units angstrom
no_reorient  #important for SAPT in psi4, default
symmetry c1  #important for SAPT in psi4, default
}

set PROPERTIES_ORIGIN ["COM"]
properties('MP2/aug-cc-pvtz', properties = ['dipole'])
--------------------------------------------------------------------------

    Molecular point group: c1
  Charge       = 0
  Multiplicity = 1
  Basis Set: AUG-CC-PVTZ
    Blend: AUG-CC-PVTZ
  Basis Set: (AUG-CC-PVTZ AUX)
    Blend: AUG-CC-PVTZ-JKFIT

    Orbital Energies [Eh]
    ---------------------

    Doubly Occupied:

       1A    -20.628519     2A    -20.601605     3A    -20.586056
       4A    -20.581808     5A    -20.579006     6A    -20.569638
       7A    -11.415756     8A    -11.324740     9A    -11.321769
      10A    -11.316063    11A    -11.313329    12A    -11.305352
      13A     -1.459030    14A     -1.409830    15A     -1.399444
      16A     -1.383481    17A     -1.372717    18A     -1.345731
      19A     -1.104760    20A     -1.065809    21A     -0.969724
      22A     -0.888880    23A     -0.859686    24A     -0.803233
      25A     -0.763410    26A     -0.743755    27A     -0.722065
      28A     -0.709759    29A     -0.694505    30A     -0.681095
      31A     -0.661644    32A     -0.641119    33A     -0.627846
      34A     -0.614900    35A     -0.611305    36A     -0.592836
      37A     -0.576864    38A     -0.560939    39A     -0.542953
      40A     -0.534407    41A     -0.520069    42A     -0.498052
      43A     -0.486594    44A     -0.477790    45A     -0.473369
      46A     -0.464114    47A     -0.451235

  @DF-RHF Final Energy:  -682.43209586340140

   => Energetics <=

    Nuclear Repulsion Energy =            801.7058310605898441
    One-Electron Energy =               -2529.7626704832705400
    Two-Electron Energy =                1045.6247435592792954
    Total Energy =                       -682.4320958634014005
  Basis Set: (AUG-CC-PVTZ AUX)
    Blend: AUG-CC-PVTZ-RI
    Molecular point group: c1

    Geometry (in Angstrom), charge = 0, multiplicity = 1:

       Center              X                  Y                   Z               Mass
    ------------   -----------------  -----------------  -----------------  -----------------
         O            0.378590908309    -1.479983939910    -0.133231651988    15.994914619570
         O            1.396126908309     2.061095060090    -0.423249651988    15.994914619570
         O           -1.230721091691     2.346044060090     0.462799348012    15.994914619570
         O           -2.904983091691     0.054064060090    -0.172173651988    15.994914619570
         O            2.913385908309    -0.689784939910     0.952889348012    15.994914619570
         O           -1.672891091691    -2.360182939910     0.001905348012    15.994914619570
         C            0.679741908309     0.925964060090     0.066419348012    12.000000000000
         C           -0.790061091691     1.177579060090    -0.205693651988    12.000000000000
         C            1.121053908309    -0.338383939910    -0.648359651988    12.000000000000
         C           -1.585523091691     0.005301060090     0.325733348012    12.000000000000
         C            2.580518908309    -0.678267939910    -0.430419651988    12.000000000000
         C           -1.014304591691    -1.274809339910     0.029050448012    12.000000000000
         H            0.831294908309     0.803228060090     1.145983348012     1.007825032230
         H           -0.950757091691     1.258183060090    -1.293069651988     1.007825032230
         H            0.919912908309    -0.246258939910    -1.724733651988     1.007825032230
         H           -1.572477091691     0.086351060090     1.427709348012     1.007825032230
         H            3.201765908309     0.089830060090    -0.897262651988     1.007825032230
         H            2.803040908309    -1.639448939910    -0.911458651988     1.007825032230
         H            2.212188908309     2.135575060090     0.102230348012     1.007825032230
         H           -0.608605091691     3.045075060090     0.185854348012     1.007825032230
         H           -3.267041091691    -0.844131939910    -0.039412651988     1.007825032230
         H            2.408951908309    -1.422921939910     1.349002348012     1.007825032230

  Basis Set: AUG-CC-PVTZ
    Blend: AUG-CC-PVTZ
  Basis Set: (AUG-CC-PVTZ AUX)
    Blend: AUG-CC-PVTZ-JKFIT
	 Reference Energy          =    -682.4320958634014005 [Eh]
	 Singles Energy            =      -0.0000000000000000 [Eh]
	 Same-Spin Energy          =      -0.6654750061927892 [Eh]
	 Opposite-Spin Energy      =      -2.0170979021624342 [Eh]
	 Correlation Energy        =      -2.6825729083552234 [Eh]
	 Total Energy              =    -685.1146687717566692 [Eh]

	 ================> DF-SCS-MP2 Energies <==================
	-----------------------------------------------------------
	 SCS Same-Spin Scale       =       0.3333333333333333 [-]
	 SCS Opposite-Spin Scale   =       1.2000000000000000 [-]
	 SCS Same-Spin Energy      =      -0.2218250020642631 [Eh]
	 SCS Opposite-Spin Energy  =      -2.4205174825949212 [Eh]
	 SCS Correlation Energy    =      -2.6423424846591841 [Eh]
	 SCS Total Energy          =    -685.0744383480605393 [Eh]
	-----------------------------------------------------------

  Dipole Moment: [D]
     X:     3.1233      Y:     0.9212      Z:    -0.1483     Total:     3.2597

*** Psi4 exiting successfully. Buy a developer a beer!
