                               Psi4 1.4a3.dev225

  ==> Input File <==

--------------------------------------------------------------------------
#psi4
#
memory 32 gb

molecule  {
0 1
  O        0.3445260    -1.4915130    -0.1284710
  O        1.3620620     2.0495660    -0.4184890
  O       -1.2647860     2.3345150     0.4675600
  O       -2.9390480     0.0425350    -0.1674130
  O        2.8793210    -0.7013140     0.9576500
  O       -1.7069560    -2.3717120     0.0066660
  C        0.6356493     0.8985458     0.0780342
  C       -0.8241260     1.1660500    -0.2009330
  C        1.0869890    -0.3499130    -0.6435990
  C       -1.6195880    -0.0062280     0.3304940
  C        2.5464540    -0.6897970    -0.4256590
  C       -1.0085030    -1.3756800     0.0131050
  H        0.7972300     0.7916990     1.1507440
  H       -0.9848220     1.2466540    -1.2883090
  H        0.8858480    -0.2577880    -1.7199730
  H       -1.6065420     0.0748220     1.4324700
  H        3.1677010     0.0783010    -0.8925020
  H        2.7689760    -1.6509780    -0.9066980
  H        2.1781240     2.1240460     0.1069910
  H       -0.6426700     3.0335460     0.1906150
  H       -3.3011060    -0.8556610    -0.0346520
  H        2.3748870    -1.4344510     1.3537630
units angstrom
no_reorient  #important for SAPT in psi4, default
symmetry c1  #important for SAPT in psi4, default
}

set PROPERTIES_ORIGIN ["COM"]
properties('MP2/aug-cc-pvtz', properties = ['dipole'])
--------------------------------------------------------------------------

    Molecular point group: c1
  Charge       = 0
  Multiplicity = 1
  Basis Set: AUG-CC-PVTZ
    Blend: AUG-CC-PVTZ
  Basis Set: (AUG-CC-PVTZ AUX)
    Blend: AUG-CC-PVTZ-JKFIT

    Orbital Energies [Eh]
    ---------------------

    Doubly Occupied:

       1A    -20.629771     2A    -20.598397     3A    -20.587979
       4A    -20.575656     5A    -20.575258     6A    -20.569576
       7A    -11.407269     8A    -11.326986     9A    -11.321305
      10A    -11.314547    11A    -11.307974    12A    -11.307730
      13A     -1.478147    14A     -1.404448    15A     -1.399463
      16A     -1.383578    17A     -1.373378    18A     -1.362756
      19A     -1.100536    20A     -1.059254    21A     -0.957018
      22A     -0.877448    23A     -0.868413    24A     -0.802686
      25A     -0.761391    26A     -0.739058    27A     -0.721382
      28A     -0.708286    29A     -0.694841    30A     -0.686435
      31A     -0.661238    32A     -0.643684    33A     -0.628573
      34A     -0.616782    35A     -0.614919    36A     -0.588485
      37A     -0.583437    38A     -0.558972    39A     -0.541351
      40A     -0.533906    41A     -0.519719    42A     -0.504434
      43A     -0.484744    44A     -0.478575    45A     -0.473746
      46A     -0.466344    47A     -0.446562

  @DF-RHF Final Energy:  -682.45394651289701

   => Energetics <=

    Nuclear Repulsion Energy =            801.4555038116799324
    One-Electron Energy =               -2529.3260215667346529
    Two-Electron Energy =                1045.4165712421577155
    Total Energy =                       -682.4539465128968914
  Basis Set: (AUG-CC-PVTZ AUX)
    Blend: AUG-CC-PVTZ-RI
    Molecular point group: c1

    Geometry (in Angstrom), charge = 0, multiplicity = 1:

       Center              X                  Y                   Z               Mass
    ------------   -----------------  -----------------  -----------------  -----------------
         O            0.376579843165    -1.472891630769    -0.132298066413    15.994914619570
         O            1.394115843165     2.068187369231    -0.422316066413    15.994914619570
         O           -1.232732156835     2.353136369231     0.463732933587    15.994914619570
         O           -2.906994156835     0.061156369231    -0.171240066413    15.994914619570
         O            2.911374843165    -0.682692630769     0.953822933587    15.994914619570
         O           -1.674902156835    -2.353090630769     0.002838933587    15.994914619570
         C            0.667703143165     0.917167169231     0.074207133587    12.000000000000
         C           -0.792072156835     1.184671369231    -0.204760066413    12.000000000000
         C            1.119042843165    -0.331291630769    -0.647426066413    12.000000000000
         C           -1.587534156835     0.012393369231     0.326666933587    12.000000000000
         C            2.578507843165    -0.671175630769    -0.429486066413    12.000000000000
         C           -0.976449156835    -1.357058630769     0.009277933587    12.000000000000
         H            0.829283843165     0.810320369231     1.146916933587     1.007825032230
         H           -0.952768156835     1.265275369231    -1.292136066413     1.007825032230
         H            0.917901843165    -0.239166630769    -1.723800066413     1.007825032230
         H           -1.574488156835     0.093443369231     1.428642933587     1.007825032230
         H            3.199754843165     0.096922369231    -0.896329066413     1.007825032230
         H            2.801029843165    -1.632356630769    -0.910525066413     1.007825032230
         H            2.210177843165     2.142667369231     0.103163933587     1.007825032230
         H           -0.610616156835     3.052167369231     0.186787933587     1.007825032230
         H           -3.269052156835    -0.837039630769    -0.038479066413     1.007825032230
         H            2.406940843165    -1.415829630769     1.349935933587     1.007825032230

  Basis Set: AUG-CC-PVTZ
    Blend: AUG-CC-PVTZ
  Basis Set: (AUG-CC-PVTZ AUX)
    Blend: AUG-CC-PVTZ-JKFIT
	 Reference Energy          =    -682.4539465128970051 [Eh]
	 Singles Energy            =      -0.0000000000000000 [Eh]
	 Same-Spin Energy          =      -0.6625661569349166 [Eh]
	 Opposite-Spin Energy      =      -2.0111961634734463 [Eh]
	 Correlation Energy        =      -2.6737623204083629 [Eh]
	 Total Energy              =    -685.1277088333054053 [Eh]

	 ================> DF-SCS-MP2 Energies <==================
	-----------------------------------------------------------
	 SCS Same-Spin Scale       =       0.3333333333333333 [-]
	 SCS Opposite-Spin Scale   =       1.2000000000000000 [-]
	 SCS Same-Spin Energy      =      -0.2208553856449722 [Eh]
	 SCS Opposite-Spin Energy  =      -2.4134353961681354 [Eh]
	 SCS Correlation Energy    =      -2.6342907818131076 [Eh]
	 SCS Total Energy          =    -685.0882372947100976 [Eh]
	-----------------------------------------------------------

  Dipole Moment: [D]
     X:     3.3655      Y:     0.5175      Z:    -0.2557     Total:     3.4147

*** Psi4 exiting successfully. Buy a developer a beer!
