                               Psi4 1.4a3.dev225

  ==> Input File <==

--------------------------------------------------------------------------
#psi4
#
memory 32 gb

molecule  {
0 1
  O        0.3445260    -1.4915130    -0.1284710
  O        1.3620620     2.0495660    -0.4184890
  O       -1.1990632     2.3856242     0.4142381
  O       -2.9390480     0.0425350    -0.1674130
  O        2.8793210    -0.7013140     0.9576500
  O       -1.7069560    -2.3717120     0.0066660
  C        0.6456770     0.9144350     0.0711800
  C       -0.8241260     1.1660500    -0.2009330
  C        1.0869890    -0.3499130    -0.6435990
  C       -1.6195880    -0.0062280     0.3304940
  C        2.5464540    -0.6897970    -0.4256590
  C       -1.0085030    -1.3756800     0.0131050
  H        0.7972300     0.7916990     1.1507440
  H       -0.9848220     1.2466540    -1.2883090
  H        0.8858480    -0.2577880    -1.7199730
  H       -1.6065420     0.0748220     1.4324700
  H        3.1677010     0.0783010    -0.8925020
  H        2.7689760    -1.6509780    -0.9066980
  H        2.1781240     2.1240460     0.1069910
  H       -0.6426700     3.0335460     0.1906150
  H       -3.3011060    -0.8556610    -0.0346520
  H        2.3748870    -1.4344510     1.3537630
units angstrom
no_reorient  #important for SAPT in psi4, default
symmetry c1  #important for SAPT in psi4, default
}

set PROPERTIES_ORIGIN ["COM"]
properties('MP2/aug-cc-pvtz', properties = ['dipole'])
--------------------------------------------------------------------------

    Molecular point group: c1
  Charge       = 0
  Multiplicity = 1
  Basis Set: AUG-CC-PVTZ
    Blend: AUG-CC-PVTZ
  Basis Set: (AUG-CC-PVTZ AUX)
    Blend: AUG-CC-PVTZ-JKFIT

    Orbital Energies [Eh]
    ---------------------

    Doubly Occupied:

       1A    -20.630523     2A    -20.599061     3A    -20.587432
       4A    -20.577194     5A    -20.571109     6A    -20.562625
       7A    -11.409407     8A    -11.325794     9A    -11.324519
      10A    -11.313888    11A    -11.309443    12A    -11.307133
      13A     -1.478787    14A     -1.414484    15A     -1.401180
      16A     -1.384153    17A     -1.381375    18A     -1.368141
      19A     -1.101310    20A     -1.060840    21A     -0.956715
      22A     -0.885009    23A     -0.868737    24A     -0.801568
      25A     -0.762784    26A     -0.743206    27A     -0.729931
      28A     -0.709528    29A     -0.701977    30A     -0.687921
      31A     -0.666795    32A     -0.643862    33A     -0.628763
      34A     -0.620118    35A     -0.615542    36A     -0.591636
      37A     -0.584103    38A     -0.559120    39A     -0.538801
      40A     -0.535311    41A     -0.519054    42A     -0.504807
      43A     -0.487351    44A     -0.478395    45A     -0.471351
      46A     -0.465280    47A     -0.446010

  @DF-RHF Final Energy:  -682.45052935598108

   => Energetics <=

    Nuclear Repulsion Energy =            801.6470793070162699
    One-Electron Energy =               -2529.5710663019399362
    Two-Electron Energy =                1045.4734576389428184
    Total Energy =                       -682.4505293559809616
  Basis Set: (AUG-CC-PVTZ AUX)
    Blend: AUG-CC-PVTZ-RI
    Molecular point group: c1

    Geometry (in Angstrom), charge = 0, multiplicity = 1:

       Center              X                  Y                   Z               Mass
    ------------   -----------------  -----------------  -----------------  -----------------
         O            0.369999793412    -1.478553919441    -0.127045937696    15.994914619570
         O            1.387535793412     2.062525080559    -0.417063937696    15.994914619570
         O           -1.173589406588     2.398583280559     0.415663162304    15.994914619570
         O           -2.913574206588     0.055494080559    -0.165987937696    15.994914619570
         O            2.904794793412    -0.688354919441     0.959075062304    15.994914619570
         O           -1.681482206588    -2.358752919441     0.008091062304    15.994914619570
         C            0.671150793412     0.927394080559     0.072605062304    12.000000000000
         C           -0.798652206588     1.179009080559    -0.199507937696    12.000000000000
         C            1.112462793412    -0.336953919441    -0.642173937696    12.000000000000
         C           -1.594114206588     0.006731080559     0.331919062304    12.000000000000
         C            2.571927793412    -0.676837919441    -0.424233937696    12.000000000000
         C           -0.983029206588    -1.362720919441     0.014530062304    12.000000000000
         H            0.822703793412     0.804658080559     1.152169062304     1.007825032230
         H           -0.959348206588     1.259613080559    -1.286883937696     1.007825032230
         H            0.911321793412    -0.244828919441    -1.718547937696     1.007825032230
         H           -1.581068206588     0.087781080559     1.433895062304     1.007825032230
         H            3.193174793412     0.091260080559    -0.891076937696     1.007825032230
         H            2.794449793412    -1.638018919441    -0.905272937696     1.007825032230
         H            2.203597793412     2.137005080559     0.108416062304     1.007825032230
         H           -0.617196206588     3.046505080559     0.192040062304     1.007825032230
         H           -3.275632206588    -0.842701919441    -0.033226937696     1.007825032230
         H            2.400360793412    -1.421491919441     1.355188062304     1.007825032230

  Basis Set: AUG-CC-PVTZ
    Blend: AUG-CC-PVTZ
  Basis Set: (AUG-CC-PVTZ AUX)
    Blend: AUG-CC-PVTZ-JKFIT
	 Reference Energy          =    -682.4505293559810752 [Eh]
	 Singles Energy            =      -0.0000000000000000 [Eh]
	 Same-Spin Energy          =      -0.6610656404460885 [Eh]
	 Opposite-Spin Energy      =      -2.0076081760405602 [Eh]
	 Correlation Energy        =      -2.6686738164866486 [Eh]
	 Total Energy              =    -685.1192031724676781 [Eh]

	 ================> DF-SCS-MP2 Energies <==================
	-----------------------------------------------------------
	 SCS Same-Spin Scale       =       0.3333333333333333 [-]
	 SCS Opposite-Spin Scale   =       1.2000000000000000 [-]
	 SCS Same-Spin Energy      =      -0.2203552134820295 [Eh]
	 SCS Opposite-Spin Energy  =      -2.4091298112486723 [Eh]
	 SCS Correlation Energy    =      -2.6294850247307018 [Eh]
	 SCS Total Energy          =    -685.0800143807117593 [Eh]
	-----------------------------------------------------------

  Dipole Moment: [D]
     X:     3.3003      Y:     0.4290      Z:    -0.1998     Total:     3.3341

*** Psi4 exiting successfully. Buy a developer a beer!
