                               Psi4 1.4a3.dev225

  ==> Input File <==

--------------------------------------------------------------------------
#psi4
#
memory 32 gb

molecule  {
0 1
  O        0.3445260    -1.4915130    -0.1284710
  O        1.3620620     2.0495660    -0.4184890
  O       -1.2647860     2.3345150     0.4675600
  O       -2.9390480     0.0425350    -0.1674130
  O        2.8793210    -0.7013140     0.9576500
  O       -1.7069560    -2.3717120     0.0066660
  C        0.6456770     0.9144350     0.0711800
  C       -0.8241260     1.1660500    -0.2009330
  C        1.0869890    -0.3499130    -0.6435990
  C       -1.6195880    -0.0062280     0.3304940
  C        2.5417751    -0.6896351    -0.4451033
  C       -1.0085030    -1.3756800     0.0131050
  H        0.7972300     0.7916990     1.1507440
  H       -0.9848220     1.2466540    -1.2883090
  H        0.8858480    -0.2577880    -1.7199730
  H       -1.6065420     0.0748220     1.4324700
  H        3.1677010     0.0783010    -0.8925020
  H        2.7689760    -1.6509780    -0.9066980
  H        2.1781240     2.1240460     0.1069910
  H       -0.6426700     3.0335460     0.1906150
  H       -3.3011060    -0.8556610    -0.0346520
  H        2.3748870    -1.4344510     1.3537630
units angstrom
no_reorient  #important for SAPT in psi4, default
symmetry c1  #important for SAPT in psi4, default
}

set PROPERTIES_ORIGIN ["COM"]
properties('MP2/aug-cc-pvtz', properties = ['dipole'])
--------------------------------------------------------------------------

    Molecular point group: c1
  Charge       = 0
  Multiplicity = 1
  Basis Set: AUG-CC-PVTZ
    Blend: AUG-CC-PVTZ
  Basis Set: (AUG-CC-PVTZ AUX)
    Blend: AUG-CC-PVTZ-JKFIT

    Orbital Energies [Eh]
    ---------------------

    Doubly Occupied:

       1A    -20.630170     2A    -20.600855     3A    -20.585486
       4A    -20.575690     5A    -20.575099     6A    -20.569507
       7A    -11.407251     8A    -11.326847     9A    -11.321333
      10A    -11.314986    11A    -11.307561    12A    -11.307344
      13A     -1.477973    14A     -1.409379    15A     -1.398264
      16A     -1.378956    17A     -1.373828    18A     -1.362740
      19A     -1.098969    20A     -1.059861    21A     -0.957631
      22A     -0.876726    23A     -0.868465    24A     -0.801675
      25A     -0.762661    26A     -0.741896    27A     -0.719203
      28A     -0.707228    29A     -0.694867    30A     -0.685659
      31A     -0.662535    32A     -0.643155    33A     -0.628551
      34A     -0.616801    35A     -0.612811    36A     -0.590403
      37A     -0.582386    38A     -0.560280    39A     -0.541796
      40A     -0.534237    41A     -0.520331    42A     -0.504416
      43A     -0.484288    44A     -0.479009    45A     -0.472713
      46A     -0.465305    47A     -0.446177

  @DF-RHF Final Energy:  -682.45416962829290

   => Energetics <=

    Nuclear Repulsion Energy =            801.2195770078659507
    One-Electron Energy =               -2528.8608804837494972
    Two-Electron Energy =                1045.1871338475905304
    Total Energy =                       -682.4541696282929024
  Basis Set: (AUG-CC-PVTZ AUX)
    Blend: AUG-CC-PVTZ-RI
    Molecular point group: c1

    Geometry (in Angstrom), charge = 0, multiplicity = 1:

       Center              X                  Y                   Z               Mass
    ------------   -----------------  -----------------  -----------------  -----------------
         O            0.376219346588    -1.473973437267    -0.130525609186    15.994914619570
         O            1.393755346588     2.067105562733    -0.420543609186    15.994914619570
         O           -1.233092653412     2.352054562733     0.465505390814    15.994914619570
         O           -2.907354653412     0.060074562733    -0.169467609186    15.994914619570
         O            2.911014346588    -0.683774437267     0.955595390814    15.994914619570
         O           -1.675262653412    -2.354172437267     0.004611390814    15.994914619570
         C            0.677370346588     0.931974562733     0.069125390814    12.000000000000
         C           -0.792432653412     1.183589562733    -0.202987609186    12.000000000000
         C            1.118682346588    -0.332373437267    -0.645653609186    12.000000000000
         C           -1.587894653412     0.011311562733     0.328439390814    12.000000000000
         C            2.573468446588    -0.672095537267    -0.447157909186    12.000000000000
         C           -0.976809653412    -1.358140437267     0.011050390814    12.000000000000
         H            0.828923346588     0.809238562733     1.148689390814     1.007825032230
         H           -0.953128653412     1.264193562733    -1.290363609186     1.007825032230
         H            0.917541346588    -0.240248437267    -1.722027609186     1.007825032230
         H           -1.574848653412     0.092361562733     1.430415390814     1.007825032230
         H            3.199394346588     0.095840562733    -0.894556609186     1.007825032230
         H            2.800669346588    -1.633438437267    -0.908752609186     1.007825032230
         H            2.209817346588     2.141585562733     0.104936390814     1.007825032230
         H           -0.610976653412     3.051085562733     0.188560390814     1.007825032230
         H           -3.269412653412    -0.838121437267    -0.036706609186     1.007825032230
         H            2.406580346588    -1.416911437267     1.351708390814     1.007825032230

  Basis Set: AUG-CC-PVTZ
    Blend: AUG-CC-PVTZ
  Basis Set: (AUG-CC-PVTZ AUX)
    Blend: AUG-CC-PVTZ-JKFIT
	 Reference Energy          =    -682.4541696282929024 [Eh]
	 Singles Energy            =      -0.0000000000000000 [Eh]
	 Same-Spin Energy          =      -0.6624742898416964 [Eh]
	 Opposite-Spin Energy      =      -2.0111149229097425 [Eh]
	 Correlation Energy        =      -2.6735892127514389 [Eh]
	 Total Energy              =    -685.1277588410443968 [Eh]

	 ================> DF-SCS-MP2 Energies <==================
	-----------------------------------------------------------
	 SCS Same-Spin Scale       =       0.3333333333333333 [-]
	 SCS Opposite-Spin Scale   =       1.2000000000000000 [-]
	 SCS Same-Spin Energy      =      -0.2208247632805655 [Eh]
	 SCS Opposite-Spin Energy  =      -2.4133379074916910 [Eh]
	 SCS Correlation Energy    =      -2.6341626707722563 [Eh]
	 SCS Total Energy          =    -685.0883322990652005 [Eh]
	-----------------------------------------------------------

  Dipole Moment: [D]
     X:     3.3705      Y:     0.5803      Z:    -0.3273     Total:     3.4357

*** Psi4 exiting successfully. Buy a developer a beer!
