                               Psi4 1.4a3.dev225

  ==> Input File <==

--------------------------------------------------------------------------
#psi4
#
memory 32 gb

molecule  {
0 1
  O        0.3445260    -1.4915130    -0.1284710
  O        1.3620620     2.0495660    -0.4184890
  O       -1.2647860     2.3345150     0.4675600
  O       -2.9390480     0.0425350    -0.1674130
  O        2.8793210    -0.7013140     0.9576500
  O       -1.7069560    -2.3717120     0.0066660
  C        0.6456770     0.9144350     0.0711800
  C       -0.8435190     1.1693699    -0.2045233
  C        1.0869890    -0.3499130    -0.6435990
  C       -1.6195880    -0.0062280     0.3304940
  C        2.5464540    -0.6897970    -0.4256590
  C       -1.0085030    -1.3756800     0.0131050
  H        0.7972300     0.7916990     1.1507440
  H       -0.9848220     1.2466540    -1.2883090
  H        0.8858480    -0.2577880    -1.7199730
  H       -1.6065420     0.0748220     1.4324700
  H        3.1677010     0.0783010    -0.8925020
  H        2.7689760    -1.6509780    -0.9066980
  H        2.1781240     2.1240460     0.1069910
  H       -0.6426700     3.0335460     0.1906150
  H       -3.3011060    -0.8556610    -0.0346520
  H        2.3748870    -1.4344510     1.3537630
units angstrom
no_reorient  #important for SAPT in psi4, default
symmetry c1  #important for SAPT in psi4, default
}

set PROPERTIES_ORIGIN ["COM"]
properties('MP2/aug-cc-pvtz', properties = ['dipole'])
--------------------------------------------------------------------------

    Molecular point group: c1
  Charge       = 0
  Multiplicity = 1
  Basis Set: AUG-CC-PVTZ
    Blend: AUG-CC-PVTZ
  Basis Set: (AUG-CC-PVTZ AUX)
    Blend: AUG-CC-PVTZ-JKFIT

    Orbital Energies [Eh]
    ---------------------

    Doubly Occupied:

       1A    -20.629584     2A    -20.600291     3A    -20.587341
       4A    -20.575310     5A    -20.575166     6A    -20.569471
       7A    -11.407263     8A    -11.325734     9A    -11.320748
      10A    -11.314527    11A    -11.307283    12A    -11.307175
      13A     -1.477576    14A     -1.409082    15A     -1.399439
      16A     -1.383806    17A     -1.375786    18A     -1.363591
      19A     -1.095969    20A     -1.058369    21A     -0.954797
      22A     -0.877389    23A     -0.867990    24A     -0.801127
      25A     -0.761843    26A     -0.741527    27A     -0.721511
      28A     -0.708648    29A     -0.695070    30A     -0.686051
      31A     -0.662627    32A     -0.643696    33A     -0.628432
      34A     -0.617826    35A     -0.615079    36A     -0.590049
      37A     -0.582870    38A     -0.560402    39A     -0.540608
      40A     -0.534451    41A     -0.518912    42A     -0.504185
      43A     -0.484098    44A     -0.478099    45A     -0.473427
      46A     -0.464081    47A     -0.443093

  @DF-RHF Final Energy:  -682.45470012136764

   => Energetics <=

    Nuclear Repulsion Energy =            801.1797176851669064
    One-Electron Energy =               -2528.7860408751766954
    Two-Electron Energy =                1045.1516230686420386
    Total Energy =                       -682.4547001213677504
  Basis Set: (AUG-CC-PVTZ AUX)
    Blend: AUG-CC-PVTZ-RI
    Molecular point group: c1

    Geometry (in Angstrom), charge = 0, multiplicity = 1:

       Center              X                  Y                   Z               Mass
    ------------   -----------------  -----------------  -----------------  -----------------
         O            0.377211042422    -1.474186279061    -0.131594131606    15.994914619570
         O            1.394747042422     2.066892720939    -0.421612131606    15.994914619570
         O           -1.232100957578     2.351841720939     0.464436868394    15.994914619570
         O           -2.906362957578     0.059861720939    -0.170536131606    15.994914619570
         O            2.912006042422    -0.683987279061     0.954526868394    15.994914619570
         O           -1.674270957578    -2.354385279061     0.003542868394    15.994914619570
         C            0.678362042422     0.931761720939     0.068056868394    12.000000000000
         C           -0.810833957578     1.186696620939    -0.207646431606    12.000000000000
         C            1.119674042422    -0.332586279061    -0.646722131606    12.000000000000
         C           -1.586902957578     0.011098720939     0.327370868394    12.000000000000
         C            2.579139042422    -0.672470279061    -0.428782131606    12.000000000000
         C           -0.975817957578    -1.358353279061     0.009981868394    12.000000000000
         H            0.829915042422     0.809025720939     1.147620868394     1.007825032230
         H           -0.952136957578     1.263980720939    -1.291432131606     1.007825032230
         H            0.918533042422    -0.240461279061    -1.723096131606     1.007825032230
         H           -1.573856957578     0.092148720939     1.429346868394     1.007825032230
         H            3.200386042422     0.095627720939    -0.895625131606     1.007825032230
         H            2.801661042422    -1.633651279061    -0.909821131606     1.007825032230
         H            2.210809042422     2.141372720939     0.103867868394     1.007825032230
         H           -0.609984957578     3.050872720939     0.187491868394     1.007825032230
         H           -3.268420957578    -0.838334279061    -0.037775131606     1.007825032230
         H            2.407572042422    -1.417124279061     1.350639868394     1.007825032230

  Basis Set: AUG-CC-PVTZ
    Blend: AUG-CC-PVTZ
  Basis Set: (AUG-CC-PVTZ AUX)
    Blend: AUG-CC-PVTZ-JKFIT
	 Reference Energy          =    -682.4547001213676367 [Eh]
	 Singles Energy            =      -0.0000000000000000 [Eh]
	 Same-Spin Energy          =      -0.6623645418258338 [Eh]
	 Opposite-Spin Energy      =      -2.0106378974270167 [Eh]
	 Correlation Energy        =      -2.6730024392528504 [Eh]
	 Total Energy              =    -685.1277025606204916 [Eh]

	 ================> DF-SCS-MP2 Energies <==================
	-----------------------------------------------------------
	 SCS Same-Spin Scale       =       0.3333333333333333 [-]
	 SCS Opposite-Spin Scale   =       1.2000000000000000 [-]
	 SCS Same-Spin Energy      =      -0.2207881806086113 [Eh]
	 SCS Opposite-Spin Energy  =      -2.4127654769124200 [Eh]
	 SCS Correlation Energy    =      -2.6335536575210314 [Eh]
	 SCS Total Energy          =    -685.0882537788886566 [Eh]
	-----------------------------------------------------------

  Dipole Moment: [D]
     X:     3.3711      Y:     0.5953      Z:    -0.2656     Total:     3.4335

*** Psi4 exiting successfully. Buy a developer a beer!
