                               Psi4 1.4a3.dev225

  ==> Input File <==

--------------------------------------------------------------------------
#psi4
#
memory 32 gb

molecule  {
0 1
  O        0.3445260    -1.4915130    -0.1284710
  O        1.3620620     2.0495660    -0.4184890
  O       -1.2647860     2.3345150     0.4675600
  O       -2.9390480     0.0425350    -0.1674130
  O        2.8793210    -0.7013140     0.9576500
  O       -1.7069560    -2.3717120     0.0066660
  C        0.6456770     0.9144350     0.0711800
  C       -0.8241260     1.1660500    -0.2009330
  C        1.0869890    -0.3499130    -0.6435990
  C       -1.6195880    -0.0062280     0.3304940
  C        2.5464540    -0.6897970    -0.4256590
  C       -1.2066999    -1.3587123     0.0338436
  H        0.7972300     0.7916990     1.1507440
  H       -0.9848220     1.2466540    -1.2883090
  H        0.8858480    -0.2577880    -1.7199730
  H       -1.6065420     0.0748220     1.4324700
  H        3.1677010     0.0783010    -0.8925020
  H        2.7689760    -1.6509780    -0.9066980
  H        2.1781240     2.1240460     0.1069910
  H       -0.6426700     3.0335460     0.1906150
  H       -3.3011060    -0.8556610    -0.0346520
  H        2.3748870    -1.4344510     1.3537630
units angstrom
no_reorient  #important for SAPT in psi4, default
symmetry c1  #important for SAPT in psi4, default
}

set PROPERTIES_ORIGIN ["COM"]
properties('MP2/aug-cc-pvtz', properties = ['dipole'])
--------------------------------------------------------------------------

    Molecular point group: c1
  Charge       = 0
  Multiplicity = 1
  Basis Set: AUG-CC-PVTZ
    Blend: AUG-CC-PVTZ
  Basis Set: (AUG-CC-PVTZ AUX)
    Blend: AUG-CC-PVTZ-JKFIT

    Orbital Energies [Eh]
    ---------------------

    Doubly Occupied:

       1A    -20.605854     2A    -20.592069     3A    -20.587570
       4A    -20.581916     5A    -20.578166     6A    -20.573513
       7A    -11.411939     8A    -11.330064     9A    -11.312861
      10A    -11.304913    11A    -11.300718    12A    -11.291038
      13A     -1.510313    14A     -1.409962    15A     -1.397080
      16A     -1.378086    17A     -1.369676    18A     -1.344816
      19A     -1.092396    20A     -1.047183    21A     -0.962985
      22A     -0.886047    23A     -0.836141    24A     -0.795578
      25A     -0.756872    26A     -0.738309    27A     -0.729335
      28A     -0.715910    29A     -0.693420    30A     -0.677138
      31A     -0.671299    32A     -0.640382    33A     -0.625222
      34A     -0.613327    35A     -0.604244    36A     -0.594843
      37A     -0.577279    38A     -0.561066    39A     -0.541709
      40A     -0.530920    41A     -0.516723    42A     -0.505544
      43A     -0.493898    44A     -0.472439    45A     -0.471128
      46A     -0.452650    47A     -0.431862

  @DF-RHF Final Energy:  -682.41904554672692

   => Energetics <=

    Nuclear Repulsion Energy =            800.6548418132155120
    One-Electron Energy =               -2527.9149692776045413
    Two-Electron Energy =                1044.8410819176619952
    Total Energy =                       -682.4190455467269203
  Basis Set: (AUG-CC-PVTZ AUX)
    Blend: AUG-CC-PVTZ-RI
    Molecular point group: c1

    Geometry (in Angstrom), charge = 0, multiplicity = 1:

       Center              X                  Y                   Z               Mass
    ------------   -----------------  -----------------  -----------------  -----------------
         O            0.389262005965    -1.475106108775    -0.133233842412    15.994914619570
         O            1.406798005965     2.065972891225    -0.423251842412    15.994914619570
         O           -1.220049994035     2.350921891225     0.462797157588    15.994914619570
         O           -2.894311994035     0.058941891225    -0.172175842412    15.994914619570
         O            2.924057005965    -0.684907108775     0.952887157588    15.994914619570
         O           -1.662219994035    -2.355305108775     0.001903157588    15.994914619570
         C            0.690413005965     0.930841891225     0.066417157588    12.000000000000
         C           -0.779389994035     1.182456891225    -0.205695842412    12.000000000000
         C            1.131725005965    -0.333506108775    -0.648361842412    12.000000000000
         C           -1.574851994035     0.010178891225     0.325731157588    12.000000000000
         C            2.591190005965    -0.673390108775    -0.430421842412    12.000000000000
         C           -1.161963894035    -1.342305408775     0.029080757588    12.000000000000
         H            0.841966005965     0.808105891225     1.145981157588     1.007825032230
         H           -0.940085994035     1.263060891225    -1.293071842412     1.007825032230
         H            0.930584005965    -0.241381108775    -1.724735842412     1.007825032230
         H           -1.561805994035     0.091228891225     1.427707157588     1.007825032230
         H            3.212437005965     0.094707891225    -0.897264842412     1.007825032230
         H            2.813712005965    -1.634571108775    -0.911460842412     1.007825032230
         H            2.222860005965     2.140452891225     0.102228157588     1.007825032230
         H           -0.597933994035     3.049952891225     0.185852157588     1.007825032230
         H           -3.256369994035    -0.839254108775    -0.039414842412     1.007825032230
         H            2.419623005965    -1.418044108775     1.349000157588     1.007825032230

  Basis Set: AUG-CC-PVTZ
    Blend: AUG-CC-PVTZ
  Basis Set: (AUG-CC-PVTZ AUX)
    Blend: AUG-CC-PVTZ-JKFIT
	 Reference Energy          =    -682.4190455467269203 [Eh]
	 Singles Energy            =      -0.0000000000000000 [Eh]
	 Same-Spin Energy          =      -0.6635254094597770 [Eh]
	 Opposite-Spin Energy      =      -2.0133795768990672 [Eh]
	 Correlation Energy        =      -2.6769049863588443 [Eh]
	 Total Energy              =    -685.0959505330857837 [Eh]

	 ================> DF-SCS-MP2 Energies <==================
	-----------------------------------------------------------
	 SCS Same-Spin Scale       =       0.3333333333333333 [-]
	 SCS Opposite-Spin Scale   =       1.2000000000000000 [-]
	 SCS Same-Spin Energy      =      -0.2211751364865923 [Eh]
	 SCS Opposite-Spin Energy  =      -2.4160554922788804 [Eh]
	 SCS Correlation Energy    =      -2.6372306287654728 [Eh]
	 SCS Total Energy          =    -685.0562761754923713 [Eh]
	-----------------------------------------------------------

  Dipole Moment: [D]
     X:     1.4930      Y:     0.2873      Z:    -0.0182     Total:     1.5205

*** Psi4 exiting successfully. Buy a developer a beer!
