                               Psi4 1.4a3.dev225

  ==> Input File <==

--------------------------------------------------------------------------
#psi4
#
memory 32 gb

molecule  {
0 1
  O        0.3445260    -1.4915130    -0.1284710
  O        1.3620620     2.0495660    -0.4184890
  O       -1.2647860     2.3345150     0.4675600
  O       -2.9390480     0.0425350    -0.1674130
  O        2.8793210    -0.7013140     0.9576500
  O       -1.7069560    -2.3717120     0.0066660
  C        0.6456770     0.9144350     0.0711800
  C       -0.8241260     1.1660500    -0.2009330
  C        1.0869890    -0.3499130    -0.6435990
  C       -1.6195880    -0.0062280     0.3304940
  C        2.5581513    -0.6902017    -0.3770482
  C       -1.0085030    -1.3756800     0.0131050
  H        0.7972300     0.7916990     1.1507440
  H       -0.9848220     1.2466540    -1.2883090
  H        0.8858480    -0.2577880    -1.7199730
  H       -1.6065420     0.0748220     1.4324700
  H        3.1677010     0.0783010    -0.8925020
  H        2.7689760    -1.6509780    -0.9066980
  H        2.1781240     2.1240460     0.1069910
  H       -0.6426700     3.0335460     0.1906150
  H       -3.3011060    -0.8556610    -0.0346520
  H        2.3748870    -1.4344510     1.3537630
units angstrom
no_reorient  #important for SAPT in psi4, default
symmetry c1  #important for SAPT in psi4, default
}

set PROPERTIES_ORIGIN ["COM"]
properties('MP2/aug-cc-pvtz', properties = ['dipole'])
--------------------------------------------------------------------------

    Molecular point group: c1
  Charge       = 0
  Multiplicity = 1
  Basis Set: AUG-CC-PVTZ
    Blend: AUG-CC-PVTZ
  Basis Set: (AUG-CC-PVTZ AUX)
    Blend: AUG-CC-PVTZ-JKFIT

    Orbital Energies [Eh]
    ---------------------

    Doubly Occupied:

       1A    -20.628848     2A    -20.600135     3A    -20.593021
       4A    -20.575207     5A    -20.574386     6A    -20.568735
       7A    -11.406269     8A    -11.324835     9A    -11.320752
      10A    -11.313706    11A    -11.308697    12A    -11.306743
      13A     -1.477115    14A     -1.413414    15A     -1.406263
      16A     -1.392508    17A     -1.374818    18A     -1.362681
      19A     -1.096612    20A     -1.054545    21A     -0.953500
      22A     -0.875769    23A     -0.868529    24A     -0.800956
      25A     -0.761418    26A     -0.742505    27A     -0.727433
      28A     -0.709305    29A     -0.694898    30A     -0.687039
      31A     -0.661980    32A     -0.647790    33A     -0.630689
      34A     -0.621839    35A     -0.615748    36A     -0.589579
      37A     -0.584095    38A     -0.559258    39A     -0.539993
      40A     -0.533406    41A     -0.515910    42A     -0.503887
      43A     -0.483768    44A     -0.475438    45A     -0.472190
      46A     -0.463519    47A     -0.441979

  @DF-RHF Final Energy:  -682.45308897659652

   => Energetics <=

    Nuclear Repulsion Energy =            801.6975217526115784
    One-Electron Energy =               -2529.7778014487334985
    Two-Electron Energy =                1045.6271907195255153
    Total Energy =                       -682.4530889765965185
  Basis Set: (AUG-CC-PVTZ AUX)
    Blend: AUG-CC-PVTZ-RI
    Molecular point group: c1

    Geometry (in Angstrom), charge = 0, multiplicity = 1:

       Center              X                  Y                   Z               Mass
    ------------   -----------------  -----------------  -----------------  -----------------
         O            0.375115629112    -1.473935249756    -0.135112363328    15.994914619570
         O            1.392651629112     2.067143750244    -0.425130363328    15.994914619570
         O           -1.234196370888     2.352092750244     0.460918636672    15.994914619570
         O           -2.908458370888     0.060112750244    -0.174054363328    15.994914619570
         O            2.909910629112    -0.683736249756     0.951008636672    15.994914619570
         O           -1.676366370888    -2.354134249756     0.000024636672    15.994914619570
         C            0.676266629112     0.932012750244     0.064538636672    12.000000000000
         C           -0.793536370888     1.183627750244    -0.207574363328    12.000000000000
         C            1.117578629112    -0.332335249756    -0.650240363328    12.000000000000
         C           -1.588998370888     0.011349750244     0.323852636672    12.000000000000
         C            2.588740929112    -0.672623949756    -0.383689563328    12.000000000000
         C           -0.977913370888    -1.358102249756     0.006463636672    12.000000000000
         H            0.827819629112     0.809276750244     1.144102636672     1.007825032230
         H           -0.954232370888     1.264231750244    -1.294950363328     1.007825032230
         H            0.916437629112    -0.240210249756    -1.726614363328     1.007825032230
         H           -1.575952370888     0.092399750244     1.425828636672     1.007825032230
         H            3.198290629112     0.095878750244    -0.899143363328     1.007825032230
         H            2.799565629112    -1.633400249756    -0.913339363328     1.007825032230
         H            2.208713629112     2.141623750244     0.100349636672     1.007825032230
         H           -0.612080370888     3.051123750244     0.183973636672     1.007825032230
         H           -3.270516370888    -0.838083249756    -0.041293363328     1.007825032230
         H            2.405476629112    -1.416873249756     1.347121636672     1.007825032230

  Basis Set: AUG-CC-PVTZ
    Blend: AUG-CC-PVTZ
  Basis Set: (AUG-CC-PVTZ AUX)
    Blend: AUG-CC-PVTZ-JKFIT
	 Reference Energy          =    -682.4530889765965185 [Eh]
	 Singles Energy            =      -0.0000000000000000 [Eh]
	 Same-Spin Energy          =      -0.6625025512227259 [Eh]
	 Opposite-Spin Energy      =      -2.0102545506942748 [Eh]
	 Correlation Energy        =      -2.6727571019170009 [Eh]
	 Total Energy              =    -685.1258460785135185 [Eh]

	 ================> DF-SCS-MP2 Energies <==================
	-----------------------------------------------------------
	 SCS Same-Spin Scale       =       0.3333333333333333 [-]
	 SCS Opposite-Spin Scale   =       1.2000000000000000 [-]
	 SCS Same-Spin Energy      =      -0.2208341837409086 [Eh]
	 SCS Opposite-Spin Energy  =      -2.4123054608331298 [Eh]
	 SCS Correlation Energy    =      -2.6331396445740385 [Eh]
	 SCS Total Energy          =    -685.0862286211705623 [Eh]
	-----------------------------------------------------------

  Dipole Moment: [D]
     X:     3.4626      Y:     0.5549      Z:    -0.0998     Total:     3.5082

*** Psi4 exiting successfully. Buy a developer a beer!
