                               Psi4 1.4a3.dev225

  ==> Input File <==

--------------------------------------------------------------------------
#psi4
#
memory 32 gb

molecule  {
0 1
  O        0.3445260    -1.4915130    -0.1284710
  O        1.3620620     2.0495660    -0.4184890
  O       -1.2647860     2.3345150     0.4675600
  O       -2.9390480     0.0425350    -0.1674130
  O        2.8793210    -0.7013140     0.9576500
  O       -1.7069560    -2.3717120     0.0066660
  C        0.6456770     0.9144350     0.0711800
  C       -1.0180559     1.1992488    -0.2368363
  C        1.0869890    -0.3499130    -0.6435990
  C       -1.6195880    -0.0062280     0.3304940
  C        2.5464540    -0.6897970    -0.4256590
  C       -1.0085030    -1.3756800     0.0131050
  H        0.7972300     0.7916990     1.1507440
  H       -0.9848220     1.2466540    -1.2883090
  H        0.8858480    -0.2577880    -1.7199730
  H       -1.6065420     0.0748220     1.4324700
  H        3.1677010     0.0783010    -0.8925020
  H        2.7689760    -1.6509780    -0.9066980
  H        2.1781240     2.1240460     0.1069910
  H       -0.6426700     3.0335460     0.1906150
  H       -3.3011060    -0.8556610    -0.0346520
  H        2.3748870    -1.4344510     1.3537630
units angstrom
no_reorient  #important for SAPT in psi4, default
symmetry c1  #important for SAPT in psi4, default
}

set PROPERTIES_ORIGIN ["COM"]
properties('MP2/aug-cc-pvtz', properties = ['dipole'])
--------------------------------------------------------------------------

    Molecular point group: c1
  Charge       = 0
  Multiplicity = 1
  Basis Set: AUG-CC-PVTZ
    Blend: AUG-CC-PVTZ
  Basis Set: (AUG-CC-PVTZ AUX)
    Blend: AUG-CC-PVTZ-JKFIT

    Orbital Energies [Eh]
    ---------------------

    Doubly Occupied:

       1A    -20.627546     2A    -20.596496     3A    -20.584238
       4A    -20.580327     5A    -20.572589     6A    -20.571207
       7A    -11.409894     8A    -11.320613     9A    -11.319746
      10A    -11.312008    11A    -11.308791    12A    -11.303411
      13A     -1.476405    14A     -1.413799    15A     -1.400432
      16A     -1.382638    17A     -1.380486    18A     -1.367264
      19A     -1.080685    20A     -1.058526    21A     -0.941343
      22A     -0.889416    23A     -0.861224    24A     -0.799477
      25A     -0.760176    26A     -0.740524    27A     -0.731762
      28A     -0.710999    29A     -0.695562    30A     -0.683917
      31A     -0.665366    32A     -0.641942    33A     -0.628866
      34A     -0.622078    35A     -0.613045    36A     -0.588688
      37A     -0.581729    38A     -0.561920    39A     -0.540098
      40A     -0.533594    41A     -0.516781    42A     -0.502538
      43A     -0.489812    44A     -0.475979    45A     -0.471443
      46A     -0.460913    47A     -0.405974

  @DF-RHF Final Energy:  -682.42305377398702

   => Energetics <=

    Nuclear Repulsion Energy =            799.6273518278468373
    One-Electron Energy =               -2525.7362736494674209
    Two-Electron Energy =                1043.6858680476336758
    Total Energy =                       -682.4230537739870215
  Basis Set: (AUG-CC-PVTZ AUX)
    Blend: AUG-CC-PVTZ-RI
    Molecular point group: c1

    Geometry (in Angstrom), charge = 0, multiplicity = 1:

       Center              X                  Y                   Z               Mass
    ------------   -----------------  -----------------  -----------------  -----------------
         O            0.388974420171    -1.476200046852    -0.129416311184    15.994914619570
         O            1.406510420171     2.064878953148    -0.419434311184    15.994914619570
         O           -1.220337579829     2.349827953148     0.466614688816    15.994914619570
         O           -2.894599579829     0.057847953148    -0.168358311184    15.994914619570
         O            2.923769420171    -0.686001046852     0.956704688816    15.994914619570
         O           -1.662507579829    -2.356399046852     0.005720688816    15.994914619570
         C            0.690125420171     0.929747953148     0.070234688816    12.000000000000
         C           -0.973607479829     1.214561753148    -0.237781611184    12.000000000000
         C            1.131437420171    -0.334600046852    -0.644544311184    12.000000000000
         C           -1.575139579829     0.009084953148     0.329548688816    12.000000000000
         C            2.590902420171    -0.674484046852    -0.426604311184    12.000000000000
         C           -0.964054579829    -1.360367046852     0.012159688816    12.000000000000
         H            0.841678420171     0.807011953148     1.149798688816     1.007825032230
         H           -0.940373579829     1.261966953148    -1.289254311184     1.007825032230
         H            0.930296420171    -0.242475046852    -1.720918311184     1.007825032230
         H           -1.562093579829     0.090134953148     1.431524688816     1.007825032230
         H            3.212149420171     0.093613953148    -0.893447311184     1.007825032230
         H            2.813424420171    -1.635665046852    -0.907643311184     1.007825032230
         H            2.222572420171     2.139358953148     0.106045688816     1.007825032230
         H           -0.598221579829     3.048858953148     0.189669688816     1.007825032230
         H           -3.256657579829    -0.840348046852    -0.035597311184     1.007825032230
         H            2.419335420171    -1.419138046852     1.352817688816     1.007825032230

  Basis Set: AUG-CC-PVTZ
    Blend: AUG-CC-PVTZ
  Basis Set: (AUG-CC-PVTZ AUX)
    Blend: AUG-CC-PVTZ-JKFIT
	 Reference Energy          =    -682.4230537739870215 [Eh]
	 Singles Energy            =      -0.0000000000000000 [Eh]
	 Same-Spin Energy          =      -0.6633290430288703 [Eh]
	 Opposite-Spin Energy      =      -2.0123207986879343 [Eh]
	 Correlation Energy        =      -2.6756498417168046 [Eh]
	 Total Energy              =    -685.0987036157038119 [Eh]

	 ================> DF-SCS-MP2 Energies <==================
	-----------------------------------------------------------
	 SCS Same-Spin Scale       =       0.3333333333333333 [-]
	 SCS Opposite-Spin Scale   =       1.2000000000000000 [-]
	 SCS Same-Spin Energy      =      -0.2211096810096234 [Eh]
	 SCS Opposite-Spin Energy  =      -2.4147849584255212 [Eh]
	 SCS Correlation Energy    =      -2.6358946394351448 [Eh]
	 SCS Total Energy          =    -685.0589484134221721 [Eh]
	-----------------------------------------------------------

  Dipole Moment: [D]
     X:     3.0916      Y:     0.8091      Z:    -0.2657     Total:     3.2067

*** Psi4 exiting successfully. Buy a developer a beer!
