                               Psi4 1.4a3.dev225

  ==> Input File <==

--------------------------------------------------------------------------
#psi4
#
memory 32 gb

molecule  {
0 1
  O        0.3445260    -1.4915130    -0.1284710
  O        1.3620620     2.0495660    -0.4184890
  O       -1.2647860     2.3345150     0.4675600
  O       -2.9390480     0.0425350    -0.1674130
  O        2.8793210    -0.7013140     0.9576500
  O       -1.7069560    -2.3717120     0.0066660
  C        0.7459540     1.0733265     0.0026379
  C       -0.8241260     1.1660500    -0.2009330
  C        1.0869890    -0.3499130    -0.6435990
  C       -1.6195880    -0.0062280     0.3304940
  C        2.5464540    -0.6897970    -0.4256590
  C       -1.0085030    -1.3756800     0.0131050
  H        0.7972300     0.7916990     1.1507440
  H       -0.9848220     1.2466540    -1.2883090
  H        0.8858480    -0.2577880    -1.7199730
  H       -1.6065420     0.0748220     1.4324700
  H        3.1677010     0.0783010    -0.8925020
  H        2.7689760    -1.6509780    -0.9066980
  H        2.1781240     2.1240460     0.1069910
  H       -0.6426700     3.0335460     0.1906150
  H       -3.3011060    -0.8556610    -0.0346520
  H        2.3748870    -1.4344510     1.3537630
units angstrom
no_reorient  #important for SAPT in psi4, default
symmetry c1  #important for SAPT in psi4, default
}

set PROPERTIES_ORIGIN ["COM"]
properties('MP2/aug-cc-pvtz', properties = ['dipole'])
--------------------------------------------------------------------------

    Molecular point group: c1
  Charge       = 0
  Multiplicity = 1
  Basis Set: AUG-CC-PVTZ
    Blend: AUG-CC-PVTZ
  Basis Set: (AUG-CC-PVTZ AUX)
    Blend: AUG-CC-PVTZ-JKFIT

    Orbital Energies [Eh]
    ---------------------

    Doubly Occupied:

       1A    -20.629483     2A    -20.624297     3A    -20.583523
       4A    -20.574322     5A    -20.571559     6A    -20.566263
       7A    -11.403906     8A    -11.322937     9A    -11.319969
      10A    -11.317311    11A    -11.303556    12A    -11.302660
      13A     -1.506087    14A     -1.472444    15A     -1.396005
      16A     -1.383817    17A     -1.375116    18A     -1.361184
      19A     -1.075380    20A     -1.049826    21A     -0.952437
      22A     -0.873255    23A     -0.866459    24A     -0.799349
      25A     -0.792492    26A     -0.758830    27A     -0.716685
      28A     -0.708898    29A     -0.697014    30A     -0.691565
      31A     -0.676764    32A     -0.651689    33A     -0.635764
      34A     -0.617465    35A     -0.615095    36A     -0.603415
      37A     -0.579742    38A     -0.568235    39A     -0.534463
      40A     -0.534115    41A     -0.513362    42A     -0.499214
      43A     -0.478862    44A     -0.473116    45A     -0.456523
      46A     -0.444326    47A     -0.416304

  @DF-RHF Final Energy:  -682.40941033900936

   => Energetics <=

    Nuclear Repulsion Energy =            800.6169874537880560
    One-Electron Energy =               -2527.4626251241393220
    Two-Electron Energy =                1044.4362273313417973
    Total Energy =                       -682.4094103390093551
  Basis Set: (AUG-CC-PVTZ AUX)
    Blend: AUG-CC-PVTZ-RI
    Molecular point group: c1

    Geometry (in Angstrom), charge = 0, multiplicity = 1:

       Center              X                  Y                   Z               Mass
    ------------   -----------------  -----------------  -----------------  -----------------
         O            0.369145565063    -1.484671440067    -0.127216532606    15.994914619570
         O            1.386681565063     2.056407559933    -0.417234532606    15.994914619570
         O           -1.240166434937     2.341356559933     0.468814467394    15.994914619570
         O           -2.914428434937     0.049376559933    -0.166158532606    15.994914619570
         O            2.903940565063    -0.694472440067     0.958904467394    15.994914619570
         O           -1.682336434937    -2.364870440067     0.007920467394    15.994914619570
         C            0.770573565063     1.080168059933     0.003892367394    12.000000000000
         C           -0.799506434937     1.172891559933    -0.199678532606    12.000000000000
         C            1.111608565063    -0.343071440067    -0.642344532606    12.000000000000
         C           -1.594968434937     0.000613559933     0.331748467394    12.000000000000
         C            2.571073565063    -0.682955440067    -0.424404532606    12.000000000000
         C           -0.983883434937    -1.368838440067     0.014359467394    12.000000000000
         H            0.821849565063     0.798540559933     1.151998467394     1.007825032230
         H           -0.960202434937     1.253495559933    -1.287054532606     1.007825032230
         H            0.910467565063    -0.250946440067    -1.718718532606     1.007825032230
         H           -1.581922434937     0.081663559933     1.433724467394     1.007825032230
         H            3.192320565063     0.085142559933    -0.891247532606     1.007825032230
         H            2.793595565063    -1.644136440067    -0.905443532606     1.007825032230
         H            2.202743565063     2.130887559933     0.108245467394     1.007825032230
         H           -0.618050434937     3.040387559933     0.191869467394     1.007825032230
         H           -3.276486434937    -0.848819440067    -0.033397532606     1.007825032230
         H            2.399506565063    -1.427609440067     1.355017467394     1.007825032230

  Basis Set: AUG-CC-PVTZ
    Blend: AUG-CC-PVTZ
  Basis Set: (AUG-CC-PVTZ AUX)
    Blend: AUG-CC-PVTZ-JKFIT
	 Reference Energy          =    -682.4094103390093551 [Eh]
	 Singles Energy            =      -0.0000000000000000 [Eh]
	 Same-Spin Energy          =      -0.6632172069777262 [Eh]
	 Opposite-Spin Energy      =      -2.0103265437497777 [Eh]
	 Correlation Energy        =      -2.6735437507275037 [Eh]
	 Total Energy              =    -685.0829540897368588 [Eh]

	 ================> DF-SCS-MP2 Energies <==================
	-----------------------------------------------------------
	 SCS Same-Spin Scale       =       0.3333333333333333 [-]
	 SCS Opposite-Spin Scale   =       1.2000000000000000 [-]
	 SCS Same-Spin Energy      =      -0.2210724023259087 [Eh]
	 SCS Opposite-Spin Energy  =      -2.4123918524997330 [Eh]
	 SCS Correlation Energy    =      -2.6334642548256415 [Eh]
	 SCS Total Energy          =    -685.0428745938349948 [Eh]
	-----------------------------------------------------------

  Dipole Moment: [D]
     X:     3.7544      Y:     1.2498      Z:    -0.4151     Total:     3.9786

*** Psi4 exiting successfully. Buy a developer a beer!
