                               Psi4 1.4a3.dev225

  ==> Input File <==

--------------------------------------------------------------------------
#psi4
#
memory 32 gb

molecule  {
0 1
  O        0.3445260    -1.4915130    -0.1284710
  O        1.3620620     2.0495660    -0.4184890
  O       -1.2364123     2.2924783     0.5524287
  O       -2.9390480     0.0425350    -0.1674130
  O        2.8793210    -0.7013140     0.9576500
  O       -1.7069560    -2.3717120     0.0066660
  C        0.6456770     0.9144350     0.0711800
  C       -0.8241260     1.1660500    -0.2009330
  C        1.0869890    -0.3499130    -0.6435990
  C       -1.6195880    -0.0062280     0.3304940
  C        2.5464540    -0.6897970    -0.4256590
  C       -1.0085030    -1.3756800     0.0131050
  H        0.7972300     0.7916990     1.1507440
  H       -0.9848220     1.2466540    -1.2883090
  H        0.8858480    -0.2577880    -1.7199730
  H       -1.6065420     0.0748220     1.4324700
  H        3.1677010     0.0783010    -0.8925020
  H        2.7689760    -1.6509780    -0.9066980
  H        2.1781240     2.1240460     0.1069910
  H       -0.6426700     3.0335460     0.1906150
  H       -3.3011060    -0.8556610    -0.0346520
  H        2.3748870    -1.4344510     1.3537630
units angstrom
no_reorient  #important for SAPT in psi4, default
symmetry c1  #important for SAPT in psi4, default
}

set PROPERTIES_ORIGIN ["COM"]
properties('MP2/aug-cc-pvtz', properties = ['dipole'])
--------------------------------------------------------------------------

    Molecular point group: c1
  Charge       = 0
  Multiplicity = 1
  Basis Set: AUG-CC-PVTZ
    Blend: AUG-CC-PVTZ
  Basis Set: (AUG-CC-PVTZ AUX)
    Blend: AUG-CC-PVTZ-JKFIT

    Orbital Energies [Eh]
    ---------------------

    Doubly Occupied:

       1A    -20.628925     2A    -20.600022     3A    -20.586941
       4A    -20.579991     5A    -20.575262     6A    -20.568291
       7A    -11.405633     8A    -11.325062     9A    -11.319759
      10A    -11.312780    11A    -11.307193    12A    -11.306750
      13A     -1.476811    14A     -1.408252    15A     -1.398320
      16A     -1.383307    17A     -1.372846    18A     -1.360138
      19A     -1.096231    20A     -1.056780    21A     -0.955756
      22A     -0.873837    23A     -0.867297    24A     -0.801270
      25A     -0.761300    26A     -0.741230    27A     -0.719950
      28A     -0.708321    29A     -0.690336    30A     -0.685006
      31A     -0.658047    32A     -0.643138    33A     -0.628009
      34A     -0.615903    35A     -0.613118    36A     -0.590110
      37A     -0.582647    38A     -0.558411    39A     -0.542336
      40A     -0.532385    41A     -0.519997    42A     -0.503560
      43A     -0.481903    44A     -0.479209    45A     -0.475082
      46A     -0.463617    47A     -0.442815

  @DF-RHF Final Energy:  -682.44911067585122

   => Energetics <=

    Nuclear Repulsion Energy =            801.8391588472117064
    One-Electron Energy =               -2530.1687689055779629
    Two-Electron Energy =                1045.8804993825149268
    Total Energy =                       -682.4491106758512160
  Basis Set: (AUG-CC-PVTZ AUX)
    Blend: AUG-CC-PVTZ-RI
    Molecular point group: c1

    Geometry (in Angstrom), charge = 0, multiplicity = 1:

       Center              X                  Y                   Z               Mass
    ------------   -----------------  -----------------  -----------------  -----------------
         O            0.373355048987    -1.470186159570    -0.139460287199    15.994914619570
         O            1.390891048987     2.070892840430    -0.429478287199    15.994914619570
         O           -1.207583251013     2.313805140430     0.541439412801    15.994914619570
         O           -2.910218951013     0.063861840430    -0.178402287199    15.994914619570
         O            2.908150048987    -0.679987159570     0.946660712801    15.994914619570
         O           -1.678126951013    -2.350385159570    -0.004323287199    15.994914619570
         C            0.674506048987     0.935761840430     0.060190712801    12.000000000000
         C           -0.795296951013     1.187376840430    -0.211922287199    12.000000000000
         C            1.115818048987    -0.328586159570    -0.654588287199    12.000000000000
         C           -1.590758951013     0.015098840430     0.319504712801    12.000000000000
         C            2.575283048987    -0.668470159570    -0.436648287199    12.000000000000
         C           -0.979673951013    -1.354353159570     0.002115712801    12.000000000000
         H            0.826059048987     0.813025840430     1.139754712801     1.007825032230
         H           -0.955992951013     1.267980840430    -1.299298287199     1.007825032230
         H            0.914677048987    -0.236461159570    -1.730962287199     1.007825032230
         H           -1.577712951013     0.096148840430     1.421480712801     1.007825032230
         H            3.196530048987     0.099627840430    -0.903491287199     1.007825032230
         H            2.797805048987    -1.629651159570    -0.917687287199     1.007825032230
         H            2.206953048987     2.145372840430     0.096001712801     1.007825032230
         H           -0.613840951013     3.054872840430     0.179625712801     1.007825032230
         H           -3.272276951013    -0.834334159570    -0.045641287199     1.007825032230
         H            2.403716048987    -1.413124159570     1.342773712801     1.007825032230

  Basis Set: AUG-CC-PVTZ
    Blend: AUG-CC-PVTZ
  Basis Set: (AUG-CC-PVTZ AUX)
    Blend: AUG-CC-PVTZ-JKFIT
	 Reference Energy          =    -682.4491106758512160 [Eh]
	 Singles Energy            =      -0.0000000000000000 [Eh]
	 Same-Spin Energy          =      -0.6631965674963511 [Eh]
	 Opposite-Spin Energy      =      -2.0125454543542123 [Eh]
	 Correlation Energy        =      -2.6757420218505636 [Eh]
	 Total Energy              =    -685.1248526977017264 [Eh]

	 ================> DF-SCS-MP2 Energies <==================
	-----------------------------------------------------------
	 SCS Same-Spin Scale       =       0.3333333333333333 [-]
	 SCS Opposite-Spin Scale   =       1.2000000000000000 [-]
	 SCS Same-Spin Energy      =      -0.2210655224987837 [Eh]
	 SCS Opposite-Spin Energy  =      -2.4150545452250545 [Eh]
	 SCS Correlation Energy    =      -2.6361200677238381 [Eh]
	 SCS Total Energy          =    -685.0852307435750390 [Eh]
	-----------------------------------------------------------

  Dipole Moment: [D]
     X:     3.2901      Y:     0.6994      Z:    -0.4103     Total:     3.3886

*** Psi4 exiting successfully. Buy a developer a beer!
