                               Psi4 1.4a3.dev225

  ==> Input File <==

--------------------------------------------------------------------------
#psi4
#
memory 32 gb

molecule  {
0 1
  O        0.3445260    -1.4915130    -0.1284710
  O        1.3620620     2.0495660    -0.4184890
  O       -1.2647860     2.3345150     0.4675600
  O       -2.9390480     0.0425350    -0.1674130
  O        2.8793210    -0.7013140     0.9576500
  O       -1.7069560    -2.3717120     0.0066660
  C        0.6456770     0.9144350     0.0711800
  C       -0.8241260     1.1660500    -0.2009330
  C        1.0869890    -0.3499130    -0.6435990
  C       -1.6195880    -0.0062280     0.3304940
  C        2.5698485    -0.6906064    -0.3284374
  C       -1.0085030    -1.3756800     0.0131050
  H        0.7972300     0.7916990     1.1507440
  H       -0.9848220     1.2466540    -1.2883090
  H        0.8858480    -0.2577880    -1.7199730
  H       -1.6065420     0.0748220     1.4324700
  H        3.1677010     0.0783010    -0.8925020
  H        2.7689760    -1.6509780    -0.9066980
  H        2.1781240     2.1240460     0.1069910
  H       -0.6426700     3.0335460     0.1906150
  H       -3.3011060    -0.8556610    -0.0346520
  H        2.3748870    -1.4344510     1.3537630
units angstrom
no_reorient  #important for SAPT in psi4, default
symmetry c1  #important for SAPT in psi4, default
}

set PROPERTIES_ORIGIN ["COM"]
properties('MP2/aug-cc-pvtz', properties = ['dipole'])
--------------------------------------------------------------------------

    Molecular point group: c1
  Charge       = 0
  Multiplicity = 1
  Basis Set: AUG-CC-PVTZ
    Blend: AUG-CC-PVTZ
  Basis Set: (AUG-CC-PVTZ AUX)
    Blend: AUG-CC-PVTZ-JKFIT

    Orbital Energies [Eh]
    ---------------------

    Doubly Occupied:

       1A    -20.627901     2A    -20.599602     3A    -20.598634
       4A    -20.574855     5A    -20.573865     6A    -20.568172
       7A    -11.405548     8A    -11.323312     9A    -11.320329
      10A    -11.312837    11A    -11.310879    12A    -11.306142
      13A     -1.476771    14A     -1.434321    15A     -1.407205
      16A     -1.393591    17A     -1.374361    18A     -1.362315
      19A     -1.095126    20A     -1.050701    21A     -0.950517
      22A     -0.875582    23A     -0.869272    24A     -0.800502
      25A     -0.760821    26A     -0.745381    27A     -0.733799
      28A     -0.710237    29A     -0.695181    30A     -0.687320
      31A     -0.662484    32A     -0.655098    33A     -0.634628
      34A     -0.626052    35A     -0.615330    36A     -0.588991
      37A     -0.584514    38A     -0.558506    39A     -0.539635
      40A     -0.532266    41A     -0.508778    42A     -0.503094
      43A     -0.483258    44A     -0.472797    45A     -0.471560
      46A     -0.461571    47A     -0.437491

  @DF-RHF Final Energy:  -682.44563776673851

   => Energetics <=

    Nuclear Repulsion Energy =            802.0654502215027151
    One-Electron Energy =               -2530.4599110085919165
    Two-Electron Energy =                1045.9488230203505736
    Total Energy =                       -682.4456377667386278
  Basis Set: (AUG-CC-PVTZ AUX)
    Blend: AUG-CC-PVTZ-RI
    Molecular point group: c1

    Geometry (in Angstrom), charge = 0, multiplicity = 1:

       Center              X                  Y                   Z               Mass
    ------------   -----------------  -----------------  -----------------  -----------------
         O            0.374327265264    -1.473907973925    -0.138388617250    15.994914619570
         O            1.391863265264     2.067171026075    -0.428406617250    15.994914619570
         O           -1.234984734736     2.352120026075     0.457642382750    15.994914619570
         O           -2.909246734736     0.060140026075    -0.177330617250    15.994914619570
         O            2.909122265264    -0.683708973925     0.947732382750    15.994914619570
         O           -1.677154734736    -2.354106973925    -0.003251617250    15.994914619570
         C            0.675478265264     0.932040026075     0.061262382750    12.000000000000
         C           -0.794324734736     1.183655026075    -0.210850617250    12.000000000000
         C            1.116790265264    -0.332307973925    -0.653516617250    12.000000000000
         C           -1.589786734736     0.011377026075     0.320576382750    12.000000000000
         C            2.599649765264    -0.673001373925    -0.338355017250    12.000000000000
         C           -0.978701734736    -1.358074973925     0.003187382750    12.000000000000
         H            0.827031265264     0.809304026075     1.140826382750     1.007825032230
         H           -0.955020734736     1.264259026075    -1.298226617250     1.007825032230
         H            0.915649265264    -0.240182973925    -1.729890617250     1.007825032230
         H           -1.576740734736     0.092427026075     1.422552382750     1.007825032230
         H            3.197502265264     0.095906026075    -0.902419617250     1.007825032230
         H            2.798777265264    -1.633372973925    -0.916615617250     1.007825032230
         H            2.207925265264     2.141651026075     0.097073382750     1.007825032230
         H           -0.612868734736     3.051151026075     0.180697382750     1.007825032230
         H           -3.271304734736    -0.838055973925    -0.044569617250     1.007825032230
         H            2.404688265264    -1.416845973925     1.343845382750     1.007825032230

  Basis Set: AUG-CC-PVTZ
    Blend: AUG-CC-PVTZ
  Basis Set: (AUG-CC-PVTZ AUX)
    Blend: AUG-CC-PVTZ-JKFIT
	 Reference Energy          =    -682.4456377667385141 [Eh]
	 Singles Energy            =      -0.0000000000000000 [Eh]
	 Same-Spin Energy          =      -0.6627204425078236 [Eh]
	 Opposite-Spin Energy      =      -2.0099991308866239 [Eh]
	 Correlation Energy        =      -2.6727195733944473 [Eh]
	 Total Energy              =    -685.1183573401330023 [Eh]

	 ================> DF-SCS-MP2 Energies <==================
	-----------------------------------------------------------
	 SCS Same-Spin Scale       =       0.3333333333333333 [-]
	 SCS Opposite-Spin Scale   =       1.2000000000000000 [-]
	 SCS Same-Spin Energy      =      -0.2209068141692745 [Eh]
	 SCS Opposite-Spin Energy  =      -2.4119989570639486 [Eh]
	 SCS Correlation Energy    =      -2.6329057712332231 [Eh]
	 SCS Total Energy          =    -685.0785435379717683 [Eh]
	-----------------------------------------------------------

  Dipole Moment: [D]
     X:     3.5313      Y:     0.5385      Z:     0.0837     Total:     3.5731

*** Psi4 exiting successfully. Buy a developer a beer!
