                               Psi4 1.4a3.dev225

  ==> Input File <==

--------------------------------------------------------------------------
#psi4
#
memory 32 gb

molecule  {
0 1
  O        0.3445260    -1.4915130    -0.1284710
  O        1.3620620     2.0495660    -0.4184890
  O       -1.2647860     2.3345150     0.4675600
  O       -2.9390480     0.0425350    -0.1674130
  O        2.8793210    -0.7013140     0.9576500
  O       -1.7069560    -2.3717120     0.0066660
  C        0.6456770     0.9144350     0.0711800
  C       -0.8241260     1.1660500    -0.2009330
  C        1.0869890    -0.3499130    -0.6435990
  C       -1.6195880    -0.0062280     0.3304940
  C        2.5464540    -0.6897970    -0.4256590
  C       -1.0882361    -1.1969969     0.0545172
  H        0.7972300     0.7916990     1.1507440
  H       -0.9848220     1.2466540    -1.2883090
  H        0.8858480    -0.2577880    -1.7199730
  H       -1.6065420     0.0748220     1.4324700
  H        3.1677010     0.0783010    -0.8925020
  H        2.7689760    -1.6509780    -0.9066980
  H        2.1781240     2.1240460     0.1069910
  H       -0.6426700     3.0335460     0.1906150
  H       -3.3011060    -0.8556610    -0.0346520
  H        2.3748870    -1.4344510     1.3537630
units angstrom
no_reorient  #important for SAPT in psi4, default
symmetry c1  #important for SAPT in psi4, default
}

set PROPERTIES_ORIGIN ["COM"]
properties('MP2/aug-cc-pvtz', properties = ['dipole'])
--------------------------------------------------------------------------

    Molecular point group: c1
  Charge       = 0
  Multiplicity = 1
  Basis Set: AUG-CC-PVTZ
    Blend: AUG-CC-PVTZ
  Basis Set: (AUG-CC-PVTZ AUX)
    Blend: AUG-CC-PVTZ-JKFIT

    Orbital Energies [Eh]
    ---------------------

    Doubly Occupied:

       1A    -20.627110     2A    -20.602724     3A    -20.588658
       4A    -20.584514     5A    -20.583254     6A    -20.568203
       7A    -11.423316     8A    -11.325154     9A    -11.320056
      10A    -11.317915    11A    -11.317263    12A    -11.303251
      13A     -1.444332    14A     -1.409687    15A     -1.404430
      16A     -1.381358    17A     -1.376388    18A     -1.317976
      19A     -1.124667    20A     -1.069612    21A     -0.982947
      22A     -0.898774    23A     -0.851649    24A     -0.806729
      25A     -0.762390    26A     -0.746071    27A     -0.726730
      28A     -0.709145    29A     -0.695899    30A     -0.679371
      31A     -0.662672    32A     -0.638291    33A     -0.629416
      34A     -0.609978    35A     -0.608298    36A     -0.589132
      37A     -0.574893    38A     -0.558384    39A     -0.544537
      40A     -0.536590    41A     -0.520894    42A     -0.496670
      43A     -0.487219    44A     -0.479005    45A     -0.470094
      46A     -0.454330    47A     -0.452262

  @DF-RHF Final Energy:  -682.37971629595825

   => Energetics <=

    Nuclear Repulsion Energy =            802.1926906793073613
    One-Electron Energy =               -2530.6203296464746018
    Two-Electron Energy =                1046.0479226712088803
    Total Energy =                       -682.3797162959583602
  Basis Set: (AUG-CC-PVTZ AUX)
    Blend: AUG-CC-PVTZ-RI
    Molecular point group: c1

    Geometry (in Angstrom), charge = 0, multiplicity = 1:

       Center              X                  Y                   Z               Mass
    ------------   -----------------  -----------------  -----------------  -----------------
         O            0.381277823657    -1.486005347493    -0.134627194570    15.994914619570
         O            1.398813823657     2.055073652507    -0.424645194570    15.994914619570
         O           -1.228034176343     2.340022652507     0.461403805430    15.994914619570
         O           -2.902296176343     0.048042652507    -0.173569194570    15.994914619570
         O            2.916072823657    -0.695806347493     0.951493805430    15.994914619570
         O           -1.670204176343    -2.366204347493     0.000509805430    15.994914619570
         C            0.682428823657     0.919942652507     0.065023805430    12.000000000000
         C           -0.787374176343     1.171557652507    -0.207089194570    12.000000000000
         C            1.123740823657    -0.344405347493    -0.649755194570    12.000000000000
         C           -1.582836176343    -0.000720347493     0.324337805430    12.000000000000
         C            2.583205823657    -0.684289347493    -0.431815194570    12.000000000000
         C           -1.051484276343    -1.191489247493     0.048361005430    12.000000000000
         H            0.833981823657     0.797206652507     1.144587805430     1.007825032230
         H           -0.948070176343     1.252161652507    -1.294465194570     1.007825032230
         H            0.922599823657    -0.252280347493    -1.726129194570     1.007825032230
         H           -1.569790176343     0.080329652507     1.426313805430     1.007825032230
         H            3.204452823657     0.083808652507    -0.898658194570     1.007825032230
         H            2.805727823657    -1.645470347493    -0.912854194570     1.007825032230
         H            2.214875823657     2.129553652507     0.100834805430     1.007825032230
         H           -0.605918176343     3.039053652507     0.184458805430     1.007825032230
         H           -3.264354176343    -0.850153347493    -0.040808194570     1.007825032230
         H            2.411638823657    -1.428943347493     1.347606805430     1.007825032230

  Basis Set: AUG-CC-PVTZ
    Blend: AUG-CC-PVTZ
  Basis Set: (AUG-CC-PVTZ AUX)
    Blend: AUG-CC-PVTZ-JKFIT
	 Reference Energy          =    -682.3797162959582465 [Eh]
	 Singles Energy            =      -0.0000000000000000 [Eh]
	 Same-Spin Energy          =      -0.6697179308580303 [Eh]
	 Opposite-Spin Energy      =      -2.0255485109621172 [Eh]
	 Correlation Energy        =      -2.6952664418201477 [Eh]
	 Total Energy              =    -685.0749827377784413 [Eh]

	 ================> DF-SCS-MP2 Energies <==================
	-----------------------------------------------------------
	 SCS Same-Spin Scale       =       0.3333333333333333 [-]
	 SCS Opposite-Spin Scale   =       1.2000000000000000 [-]
	 SCS Same-Spin Energy      =      -0.2232393102860101 [Eh]
	 SCS Opposite-Spin Energy  =      -2.4306582131545404 [Eh]
	 SCS Correlation Energy    =      -2.6538975234405506 [Eh]
	 SCS Total Energy          =    -685.0336138193988518 [Eh]
	-----------------------------------------------------------

  Dipole Moment: [D]
     X:     2.8428      Y:     1.2501      Z:    -0.0288     Total:     3.1057

*** Psi4 exiting successfully. Buy a developer a beer!
