                               Psi4 1.4a3.dev225

  ==> Input File <==

--------------------------------------------------------------------------
#psi4
#
memory 32 gb

molecule  {
0 1
  O        0.3445260    -1.4915130    -0.1284710
  O        1.3620620     2.0495660    -0.4184890
  O       -1.3032808     2.3868399     0.3342839
  O       -2.9390480     0.0425350    -0.1674130
  O        2.8793210    -0.7013140     0.9576500
  O       -1.7069560    -2.3717120     0.0066660
  C        0.6456770     0.9144350     0.0711800
  C       -0.8241260     1.1660500    -0.2009330
  C        1.0869890    -0.3499130    -0.6435990
  C       -1.6195880    -0.0062280     0.3304940
  C        2.5464540    -0.6897970    -0.4256590
  C       -1.0085030    -1.3756800     0.0131050
  H        0.7972300     0.7916990     1.1507440
  H       -0.9848220     1.2466540    -1.2883090
  H        0.8858480    -0.2577880    -1.7199730
  H       -1.6065420     0.0748220     1.4324700
  H        3.1677010     0.0783010    -0.8925020
  H        2.7689760    -1.6509780    -0.9066980
  H        2.1781240     2.1240460     0.1069910
  H       -0.6426700     3.0335460     0.1906150
  H       -3.3011060    -0.8556610    -0.0346520
  H        2.3748870    -1.4344510     1.3537630
units angstrom
no_reorient  #important for SAPT in psi4, default
symmetry c1  #important for SAPT in psi4, default
}

set PROPERTIES_ORIGIN ["COM"]
properties('MP2/aug-cc-pvtz', properties = ['dipole'])
--------------------------------------------------------------------------

    Molecular point group: c1
  Charge       = 0
  Multiplicity = 1
  Basis Set: AUG-CC-PVTZ
    Blend: AUG-CC-PVTZ
  Basis Set: (AUG-CC-PVTZ AUX)
    Blend: AUG-CC-PVTZ-JKFIT

    Orbital Energies [Eh]
    ---------------------

    Doubly Occupied:

       1A    -20.630870     2A    -20.601554     3A    -20.588547
       4A    -20.575884     5A    -20.570528     6A    -20.568864
       7A    -11.408637     8A    -11.327836     9A    -11.322908
      10A    -11.317330    11A    -11.308542    12A    -11.307172
      13A     -1.478826    14A     -1.410861    15A     -1.400285
      16A     -1.384863    17A     -1.377753    18A     -1.365374
      19A     -1.100583    20A     -1.060109    21A     -0.957437
      22A     -0.880130    23A     -0.869570    24A     -0.801806
      25A     -0.763332    26A     -0.742927    27A     -0.722211
      28A     -0.706525    29A     -0.702259    30A     -0.686796
      31A     -0.666130    32A     -0.644434    33A     -0.630055
      34A     -0.618840    35A     -0.615839    36A     -0.590028
      37A     -0.583004    38A     -0.562714    39A     -0.539782
      40A     -0.536498    41A     -0.518985    42A     -0.505370
      43A     -0.487215    44A     -0.478664    45A     -0.469322
      46A     -0.461757    47A     -0.448391

  @DF-RHF Final Energy:  -682.45422403073860

   => Energetics <=

    Nuclear Repulsion Energy =            800.7055927121833747
    One-Electron Energy =               -2527.7249370021127106
    Two-Electron Energy =                1044.5651202591907349
    Total Energy =                       -682.4542240307387146
  Basis Set: (AUG-CC-PVTZ AUX)
    Blend: AUG-CC-PVTZ-RI
    Molecular point group: c1

    Geometry (in Angstrom), charge = 0, multiplicity = 1:

       Center              X                  Y                   Z               Mass
    ------------   -----------------  -----------------  -----------------  -----------------
         O            0.379362179210    -1.478663131824    -0.119863253903    15.994914619570
         O            1.396898179210     2.062415868176    -0.409881253903    15.994914619570
         O           -1.268444620790     2.399689768176     0.342891646097    15.994914619570
         O           -2.904211820790     0.055384868176    -0.158805253903    15.994914619570
         O            2.914157179210    -0.688464131824     0.966257746097    15.994914619570
         O           -1.672119820790    -2.358862131824     0.015273746097    15.994914619570
         C            0.680513179210     0.927284868176     0.079787746097    12.000000000000
         C           -0.789289820790     1.178899868176    -0.192325253903    12.000000000000
         C            1.121825179210    -0.337063131824    -0.634991253903    12.000000000000
         C           -1.584751820790     0.006621868176     0.339101746097    12.000000000000
         C            2.581290179210    -0.676947131824    -0.417051253903    12.000000000000
         C           -0.973666820790    -1.362830131824     0.021712746097    12.000000000000
         H            0.832066179210     0.804548868176     1.159351746097     1.007825032230
         H           -0.949985820790     1.259503868176    -1.279701253903     1.007825032230
         H            0.920684179210    -0.244938131824    -1.711365253903     1.007825032230
         H           -1.571705820790     0.087671868176     1.441077746097     1.007825032230
         H            3.202537179210     0.091150868176    -0.883894253903     1.007825032230
         H            2.803812179210    -1.638128131824    -0.898090253903     1.007825032230
         H            2.212960179210     2.136895868176     0.115598746097     1.007825032230
         H           -0.607833820790     3.046395868176     0.199222746097     1.007825032230
         H           -3.266269820790    -0.842811131824    -0.026044253903     1.007825032230
         H            2.409723179210    -1.421601131824     1.362370746097     1.007825032230

  Basis Set: AUG-CC-PVTZ
    Blend: AUG-CC-PVTZ
  Basis Set: (AUG-CC-PVTZ AUX)
    Blend: AUG-CC-PVTZ-JKFIT
	 Reference Energy          =    -682.4542240307386010 [Eh]
	 Singles Energy            =      -0.0000000000000000 [Eh]
	 Same-Spin Energy          =      -0.6618080174986145 [Eh]
	 Opposite-Spin Energy      =      -2.0093967588989892 [Eh]
	 Correlation Energy        =      -2.6712047763976035 [Eh]
	 Total Energy              =    -685.1254288071362453 [Eh]

	 ================> DF-SCS-MP2 Energies <==================
	-----------------------------------------------------------
	 SCS Same-Spin Scale       =       0.3333333333333333 [-]
	 SCS Opposite-Spin Scale   =       1.2000000000000000 [-]
	 SCS Same-Spin Energy      =      -0.2206026724995382 [Eh]
	 SCS Opposite-Spin Energy  =      -2.4112761106787870 [Eh]
	 SCS Correlation Energy    =      -2.6318787831783252 [Eh]
	 SCS Total Energy          =    -685.0861028139169093 [Eh]
	-----------------------------------------------------------

  Dipole Moment: [D]
     X:     3.5424      Y:     0.4067      Z:    -0.0156     Total:     3.5657

*** Psi4 exiting successfully. Buy a developer a beer!
