                               Psi4 1.4a3.dev225

  ==> Input File <==

--------------------------------------------------------------------------
#psi4
#
memory 32 gb

molecule  {
0 1
  O        0.3445260    -1.4915130    -0.1284710
  O        1.3620620     2.0495660    -0.4184890
  O       -1.2647860     2.3345150     0.4675600
  O       -2.9390480     0.0425350    -0.1674130
  O        2.8793210    -0.7013140     0.9576500
  O       -1.7069560    -2.3717120     0.0066660
  C        0.6456770     0.9144350     0.0711800
  C       -0.8241260     1.1660500    -0.2009330
  C        1.0869890    -0.3499130    -0.6435990
  C       -1.6195880    -0.0062280     0.3304940
  C        2.5464540    -0.6897970    -0.4256590
  C       -1.0659163    -1.4575545     0.0125757
  H        0.7972300     0.7916990     1.1507440
  H       -0.9848220     1.2466540    -1.2883090
  H        0.8858480    -0.2577880    -1.7199730
  H       -1.6065420     0.0748220     1.4324700
  H        3.1677010     0.0783010    -0.8925020
  H        2.7689760    -1.6509780    -0.9066980
  H        2.1781240     2.1240460     0.1069910
  H       -0.6426700     3.0335460     0.1906150
  H       -3.3011060    -0.8556610    -0.0346520
  H        2.3748870    -1.4344510     1.3537630
units angstrom
no_reorient  #important for SAPT in psi4, default
symmetry c1  #important for SAPT in psi4, default
}

set PROPERTIES_ORIGIN ["COM"]
properties('MP2/aug-cc-pvtz', properties = ['dipole'])
--------------------------------------------------------------------------

    Molecular point group: c1
  Charge       = 0
  Multiplicity = 1
  Basis Set: AUG-CC-PVTZ
    Blend: AUG-CC-PVTZ
  Basis Set: (AUG-CC-PVTZ AUX)
    Blend: AUG-CC-PVTZ-JKFIT

    Orbital Energies [Eh]
    ---------------------

    Doubly Occupied:

       1A    -20.608694     2A    -20.595194     3A    -20.587383
       4A    -20.582123     5A    -20.574491     6A    -20.571856
       7A    -11.399199     8A    -11.318104     9A    -11.317891
      10A    -11.308105    11A    -11.303600    12A    -11.301567
      13A     -1.511540    14A     -1.412351    15A     -1.397864
      16A     -1.383005    17A     -1.376320    18A     -1.363730
      19A     -1.088226    20A     -1.046070    21A     -0.947320
      22A     -0.867655    23A     -0.857296    24A     -0.793324
      25A     -0.759466    26A     -0.736937    27A     -0.727233
      28A     -0.710651    29A     -0.696133    30A     -0.685189
      31A     -0.668233    32A     -0.643081    33A     -0.629799
      34A     -0.615392    35A     -0.609508    36A     -0.592389
      37A     -0.582740    38A     -0.558898    39A     -0.542893
      40A     -0.536272    41A     -0.520265    42A     -0.514225
      43A     -0.483483    44A     -0.475674    45A     -0.470301
      46A     -0.458664    47A     -0.431384

  @DF-RHF Final Energy:  -682.44458497393134

   => Energetics <=

    Nuclear Repulsion Energy =            800.7211676919746424
    One-Electron Energy =               -2528.0080640524929549
    Two-Electron Energy =                1044.8423113865869709
    Total Energy =                       -682.4445849739313417
  Basis Set: (AUG-CC-PVTZ AUX)
    Blend: AUG-CC-PVTZ-RI
    Molecular point group: c1

    Geometry (in Angstrom), charge = 0, multiplicity = 1:

       Center              X                  Y                   Z               Mass
    ------------   -----------------  -----------------  -----------------  -----------------
         O            0.379773521480    -1.468444376293    -0.131800435828    15.994914619570
         O            1.397309521480     2.072634623707    -0.421818435828    15.994914619570
         O           -1.229538478520     2.357583623707     0.464230564172    15.994914619570
         O           -2.903800478520     0.065603623707    -0.170742435828    15.994914619570
         O            2.914568521480    -0.678245376293     0.954320564172    15.994914619570
         O           -1.671708478520    -2.348643376293     0.003336564172    15.994914619570
         C            0.680924521480     0.937503623707     0.067850564172    12.000000000000
         C           -0.788878478520     1.189118623707    -0.204262435828    12.000000000000
         C            1.122236521480    -0.326844376293    -0.646928435828    12.000000000000
         C           -1.584340478520     0.016840623707     0.327164564172    12.000000000000
         C            2.581701521480    -0.666728376293    -0.428988435828    12.000000000000
         C           -1.030668778520    -1.434485876293     0.009246264172    12.000000000000
         H            0.832477521480     0.814767623707     1.147414564172     1.007825032230
         H           -0.949574478520     1.269722623707    -1.291638435828     1.007825032230
         H            0.921095521480    -0.234719376293    -1.723302435828     1.007825032230
         H           -1.571294478520     0.097890623707     1.429140564172     1.007825032230
         H            3.202948521480     0.101369623707    -0.895831435828     1.007825032230
         H            2.804223521480    -1.627909376293    -0.910027435828     1.007825032230
         H            2.213371521480     2.147114623707     0.103661564172     1.007825032230
         H           -0.607422478520     3.056614623707     0.187285564172     1.007825032230
         H           -3.265858478520    -0.832592376293    -0.037981435828     1.007825032230
         H            2.410134521480    -1.411382376293     1.350433564172     1.007825032230

  Basis Set: AUG-CC-PVTZ
    Blend: AUG-CC-PVTZ
  Basis Set: (AUG-CC-PVTZ AUX)
    Blend: AUG-CC-PVTZ-JKFIT
	 Reference Energy          =    -682.4445849739313417 [Eh]
	 Singles Energy            =      -0.0000000000000000 [Eh]
	 Same-Spin Energy          =      -0.6602354535131846 [Eh]
	 Opposite-Spin Energy      =      -2.0063109193763990 [Eh]
	 Correlation Energy        =      -2.6665463728895835 [Eh]
	 Total Energy              =    -685.1111313468209119 [Eh]

	 ================> DF-SCS-MP2 Energies <==================
	-----------------------------------------------------------
	 SCS Same-Spin Scale       =       0.3333333333333333 [-]
	 SCS Opposite-Spin Scale   =       1.2000000000000000 [-]
	 SCS Same-Spin Energy      =      -0.2200784845043949 [Eh]
	 SCS Opposite-Spin Energy  =      -2.4075731032516789 [Eh]
	 SCS Correlation Energy    =      -2.6276515877560738 [Eh]
	 SCS Total Energy          =    -685.0722365616874185 [Eh]
	-----------------------------------------------------------

  Dipole Moment: [D]
     X:     2.7161      Y:    -0.0213      Z:    -0.2518     Total:     2.7278

*** Psi4 exiting successfully. Buy a developer a beer!
