                               Psi4 1.4a3.dev225

  ==> Input File <==

--------------------------------------------------------------------------
#psi4
#
memory 32 gb

molecule  {
0 1
  O        0.3445260    -1.4915130    -0.1284710
  O        1.3620620     2.0495660    -0.4184890
  O       -1.3283619     2.2777132     0.5176251
  O       -2.9390480     0.0425350    -0.1674130
  O        2.8793210    -0.7013140     0.9576500
  O       -1.7069560    -2.3717120     0.0066660
  C        0.6456770     0.9144350     0.0711800
  C       -0.8241260     1.1660500    -0.2009330
  C        1.0869890    -0.3499130    -0.6435990
  C       -1.6195880    -0.0062280     0.3304940
  C        2.5464540    -0.6897970    -0.4256590
  C       -1.0085030    -1.3756800     0.0131050
  H        0.7972300     0.7916990     1.1507440
  H       -0.9848220     1.2466540    -1.2883090
  H        0.8858480    -0.2577880    -1.7199730
  H       -1.6065420     0.0748220     1.4324700
  H        3.1677010     0.0783010    -0.8925020
  H        2.7689760    -1.6509780    -0.9066980
  H        2.1781240     2.1240460     0.1069910
  H       -0.6426700     3.0335460     0.1906150
  H       -3.3011060    -0.8556610    -0.0346520
  H        2.3748870    -1.4344510     1.3537630
units angstrom
no_reorient  #important for SAPT in psi4, default
symmetry c1  #important for SAPT in psi4, default
}

set PROPERTIES_ORIGIN ["COM"]
properties('MP2/aug-cc-pvtz', properties = ['dipole'])
--------------------------------------------------------------------------

    Molecular point group: c1
  Charge       = 0
  Multiplicity = 1
  Basis Set: AUG-CC-PVTZ
    Blend: AUG-CC-PVTZ
  Basis Set: (AUG-CC-PVTZ AUX)
    Blend: AUG-CC-PVTZ-JKFIT

    Orbital Energies [Eh]
    ---------------------

    Doubly Occupied:

       1A    -20.629115     2A    -20.602198     3A    -20.587861
       4A    -20.585152     5A    -20.574042     6A    -20.567529
       7A    -11.404568     8A    -11.326803     9A    -11.318103
      10A    -11.315487    11A    -11.307944    12A    -11.306216
      13A     -1.476711    14A     -1.408250    15A     -1.397666
      16A     -1.383869    17A     -1.371576    18A     -1.354843
      19A     -1.096225    20A     -1.055881    21A     -0.956473
      22A     -0.872075    23A     -0.866850    24A     -0.801403
      25A     -0.761816    26A     -0.741817    27A     -0.717742
      28A     -0.706822    29A     -0.689473    30A     -0.682366
      31A     -0.653913    32A     -0.643922    33A     -0.628913
      34A     -0.615030    35A     -0.612639    36A     -0.588678
      37A     -0.581523    38A     -0.559960    39A     -0.542732
      40A     -0.533168    41A     -0.519580    42A     -0.503832
      43A     -0.480380    44A     -0.478067    45A     -0.473329
      46A     -0.464609    47A     -0.444066

  @DF-RHF Final Energy:  -682.43951312607169

   => Energetics <=

    Nuclear Repulsion Energy =            801.2671805668190927
    One-Electron Energy =               -2529.0309548322588853
    Two-Electron Energy =                1045.3242611393679908
    Total Energy =                       -682.4395131260716880
  Basis Set: (AUG-CC-PVTZ AUX)
    Blend: AUG-CC-PVTZ-RI
    Molecular point group: c1

    Geometry (in Angstrom), charge = 0, multiplicity = 1:

       Center              X                  Y                   Z               Mass
    ------------   -----------------  -----------------  -----------------  -----------------
         O            0.381615339275    -1.468859737137    -0.136333706561    15.994914619570
         O            1.399151339275     2.072219262863    -0.426351706561    15.994914619570
         O           -1.291272560725     2.300366462863     0.509762393439    15.994914619570
         O           -2.901958660725     0.065188262863    -0.175275706561    15.994914619570
         O            2.916410339275    -0.678660737137     0.949787293439    15.994914619570
         O           -1.669866660725    -2.349058737137    -0.001196706561    15.994914619570
         C            0.682766339275     0.937088262863     0.063317293439    12.000000000000
         C           -0.787036660725     1.188703262863    -0.208795706561    12.000000000000
         C            1.124078339275    -0.327259737137    -0.651461706561    12.000000000000
         C           -1.582498660725     0.016425262863     0.322631293439    12.000000000000
         C            2.583543339275    -0.667143737137    -0.433521706561    12.000000000000
         C           -0.971413660725    -1.353026737137     0.005242293439    12.000000000000
         H            0.834319339275     0.814352262863     1.142881293439     1.007825032230
         H           -0.947732660725     1.269307262863    -1.296171706561     1.007825032230
         H            0.922937339275    -0.235134737137    -1.727835706561     1.007825032230
         H           -1.569452660725     0.097475262863     1.424607293439     1.007825032230
         H            3.204790339275     0.100954262863    -0.900364706561     1.007825032230
         H            2.806065339275    -1.628324737137    -0.914560706561     1.007825032230
         H            2.215213339275     2.146699262863     0.099128293439     1.007825032230
         H           -0.605580660725     3.056199262863     0.182752293439     1.007825032230
         H           -3.264016660725    -0.833007737137    -0.042514706561     1.007825032230
         H            2.411976339275    -1.411797737137     1.345900293439     1.007825032230

  Basis Set: AUG-CC-PVTZ
    Blend: AUG-CC-PVTZ
  Basis Set: (AUG-CC-PVTZ AUX)
    Blend: AUG-CC-PVTZ-JKFIT
	 Reference Energy          =    -682.4395131260716880 [Eh]
	 Singles Energy            =      -0.0000000000000000 [Eh]
	 Same-Spin Energy          =      -0.6640728657799597 [Eh]
	 Opposite-Spin Energy      =      -2.0147766584322886 [Eh]
	 Correlation Energy        =      -2.6788495242122483 [Eh]
	 Total Energy              =    -685.1183626502839843 [Eh]

	 ================> DF-SCS-MP2 Energies <==================
	-----------------------------------------------------------
	 SCS Same-Spin Scale       =       0.3333333333333333 [-]
	 SCS Opposite-Spin Scale   =       1.2000000000000000 [-]
	 SCS Same-Spin Energy      =      -0.2213576219266532 [Eh]
	 SCS Opposite-Spin Energy  =      -2.4177319901187464 [Eh]
	 SCS Correlation Energy    =      -2.6390896120453995 [Eh]
	 SCS Total Energy          =    -685.0786027381170697 [Eh]
	-----------------------------------------------------------

  Dipole Moment: [D]
     X:     3.4841      Y:     0.6969      Z:    -0.3233     Total:     3.5678

*** Psi4 exiting successfully. Buy a developer a beer!
