                               Psi4 1.4a3.dev225

  ==> Input File <==

--------------------------------------------------------------------------
#psi4
#
memory 32 gb

molecule  {
0 1
  O        0.3445260    -1.4915130    -0.1284710
  O        1.3620620     2.0495660    -0.4184890
  O       -1.2647860     2.3345150     0.4675600
  O       -2.9390480     0.0425350    -0.1674130
  O        2.8793210    -0.7013140     0.9576500
  O       -1.7069560    -2.3717120     0.0066660
  C        0.5454000     0.7555435     0.1397221
  C       -0.8241260     1.1660500    -0.2009330
  C        1.0869890    -0.3499130    -0.6435990
  C       -1.6195880    -0.0062280     0.3304940
  C        2.5464540    -0.6897970    -0.4256590
  C       -1.0085030    -1.3756800     0.0131050
  H        0.7972300     0.7916990     1.1507440
  H       -0.9848220     1.2466540    -1.2883090
  H        0.8858480    -0.2577880    -1.7199730
  H       -1.6065420     0.0748220     1.4324700
  H        3.1677010     0.0783010    -0.8925020
  H        2.7689760    -1.6509780    -0.9066980
  H        2.1781240     2.1240460     0.1069910
  H       -0.6426700     3.0335460     0.1906150
  H       -3.3011060    -0.8556610    -0.0346520
  H        2.3748870    -1.4344510     1.3537630
units angstrom
no_reorient  #important for SAPT in psi4, default
symmetry c1  #important for SAPT in psi4, default
}

set PROPERTIES_ORIGIN ["COM"]
properties('MP2/aug-cc-pvtz', properties = ['dipole'])
--------------------------------------------------------------------------

    Molecular point group: c1
  Charge       = 0
  Multiplicity = 1
  Basis Set: AUG-CC-PVTZ
    Blend: AUG-CC-PVTZ
  Basis Set: (AUG-CC-PVTZ AUX)
    Blend: AUG-CC-PVTZ-JKFIT

    Orbital Energies [Eh]
    ---------------------

    Doubly Occupied:

       1A    -20.630512     2A    -20.590829     3A    -20.578704
       4A    -20.577158     5A    -20.574987     6A    -20.572926
       7A    -11.410771     8A    -11.333456     9A    -11.323646
      10A    -11.320156    11A    -11.312576    12A    -11.311807
      13A     -1.483686    14A     -1.403033    15A     -1.394153
      16A     -1.384121    17A     -1.366961    18A     -1.329558
      19A     -1.120422    20A     -1.068109    21A     -0.961709
      22A     -0.887132    23A     -0.870652    24A     -0.814203
      25A     -0.759676    26A     -0.731279    27A     -0.718201
      28A     -0.713077    29A     -0.692676    30A     -0.690108
      31A     -0.653178    32A     -0.647196    33A     -0.629095
      34A     -0.618361    35A     -0.612988    36A     -0.587531
      37A     -0.585413    38A     -0.547661    39A     -0.541634
      40A     -0.528836    41A     -0.506678    42A     -0.499141
      43A     -0.488355    44A     -0.479875    45A     -0.478555
      46A     -0.477660    47A     -0.453726

  @DF-RHF Final Energy:  -682.41784822230454

   => Energetics <=

    Nuclear Repulsion Energy =            802.4795915316341279
    One-Electron Energy =               -2531.2705373456738016
    Two-Electron Energy =                1046.3730975917351316
    Total Energy =                       -682.4178482223046558
  Basis Set: (AUG-CC-PVTZ AUX)
    Blend: AUG-CC-PVTZ-RI
    Molecular point group: c1

    Geometry (in Angstrom), charge = 0, multiplicity = 1:

       Center              X                  Y                   Z               Mass
    ------------   -----------------  -----------------  -----------------  -----------------
         O            0.382662434339    -1.463253611107    -0.136455686207    15.994914619570
         O            1.400198434339     2.077825388893    -0.426473686207    15.994914619570
         O           -1.226649565661     2.362774388893     0.459575313793    15.994914619570
         O           -2.900911565661     0.070794388893    -0.175397686207    15.994914619570
         O            2.917457434339    -0.673054611107     0.949665313793    15.994914619570
         O           -1.668819565661    -2.343452611107    -0.001318686207    15.994914619570
         C            0.583536434339     0.783802888893     0.131737413793    12.000000000000
         C           -0.785989565661     1.194309388893    -0.208917686207    12.000000000000
         C            1.125125434339    -0.321653611107    -0.651583686207    12.000000000000
         C           -1.581451565661     0.022031388893     0.322509313793    12.000000000000
         C            2.584590434339    -0.661537611107    -0.433643686207    12.000000000000
         C           -0.970366565661    -1.347420611107     0.005120313793    12.000000000000
         H            0.835366434339     0.819958388893     1.142759313793     1.007825032230
         H           -0.946685565661     1.274913388893    -1.296293686207     1.007825032230
         H            0.923984434339    -0.229528611107    -1.727957686207     1.007825032230
         H           -1.568405565661     0.103081388893     1.424485313793     1.007825032230
         H            3.205837434339     0.106560388893    -0.900486686207     1.007825032230
         H            2.807112434339    -1.622718611107    -0.914682686207     1.007825032230
         H            2.216260434339     2.152305388893     0.099006313793     1.007825032230
         H           -0.604533565661     3.061805388893     0.182630313793     1.007825032230
         H           -3.262969565661    -0.827401611107    -0.042636686207     1.007825032230
         H            2.413023434339    -1.406191611107     1.345778313793     1.007825032230

  Basis Set: AUG-CC-PVTZ
    Blend: AUG-CC-PVTZ
  Basis Set: (AUG-CC-PVTZ AUX)
    Blend: AUG-CC-PVTZ-JKFIT
	 Reference Energy          =    -682.4178482223045421 [Eh]
	 Singles Energy            =      -0.0000000000000000 [Eh]
	 Same-Spin Energy          =      -0.6649944286660696 [Eh]
	 Opposite-Spin Energy      =      -2.0169823353633678 [Eh]
	 Correlation Energy        =      -2.6819767640294376 [Eh]
	 Total Energy              =    -685.0998249863339424 [Eh]

	 ================> DF-SCS-MP2 Energies <==================
	-----------------------------------------------------------
	 SCS Same-Spin Scale       =       0.3333333333333333 [-]
	 SCS Opposite-Spin Scale   =       1.2000000000000000 [-]
	 SCS Same-Spin Energy      =      -0.2216648095553565 [Eh]
	 SCS Opposite-Spin Energy  =      -2.4203788024360411 [Eh]
	 SCS Correlation Energy    =      -2.6420436119913977 [Eh]
	 SCS Total Energy          =    -685.0598918342959678 [Eh]
	-----------------------------------------------------------

  Dipole Moment: [D]
     X:     3.0835      Y:     0.0510      Z:    -0.1900     Total:     3.0897

*** Psi4 exiting successfully. Buy a developer a beer!
