                               Psi4 1.4a3.dev225

  ==> Input File <==

--------------------------------------------------------------------------
#psi4
#
memory 32 gb

molecule  {
0 1
  O        0.3445260    -1.4915130    -0.1284710
  O        1.3620620     2.0495660    -0.4184890
  O       -1.2647860     2.3345150     0.4675600
  O       -2.9390480     0.0425350    -0.1674130
  O        2.8793210    -0.7013140     0.9576500
  O       -1.7069560    -2.3717120     0.0066660
  C        0.6456770     0.9144350     0.0711800
  C       -0.8241260     1.1660500    -0.2009330
  C        1.0869890    -0.3499130    -0.6435990
  C       -1.6195880    -0.0062280     0.3304940
  C        2.5464540    -0.6897970    -0.4256590
  C       -1.0580522    -1.3714381     0.0182896
  H        0.7972300     0.7916990     1.1507440
  H       -0.9848220     1.2466540    -1.2883090
  H        0.8858480    -0.2577880    -1.7199730
  H       -1.6065420     0.0748220     1.4324700
  H        3.1677010     0.0783010    -0.8925020
  H        2.7689760    -1.6509780    -0.9066980
  H        2.1781240     2.1240460     0.1069910
  H       -0.6426700     3.0335460     0.1906150
  H       -3.3011060    -0.8556610    -0.0346520
  H        2.3748870    -1.4344510     1.3537630
units angstrom
no_reorient  #important for SAPT in psi4, default
symmetry c1  #important for SAPT in psi4, default
}

set PROPERTIES_ORIGIN ["COM"]
properties('MP2/aug-cc-pvtz', properties = ['dipole'])
--------------------------------------------------------------------------

    Molecular point group: c1
  Charge       = 0
  Multiplicity = 1
  Basis Set: AUG-CC-PVTZ
    Blend: AUG-CC-PVTZ
  Basis Set: (AUG-CC-PVTZ AUX)
    Blend: AUG-CC-PVTZ-JKFIT

    Orbital Energies [Eh]
    ---------------------

    Doubly Occupied:

       1A    -20.618799     2A    -20.598467     3A    -20.584187
       4A    -20.578415     5A    -20.578053     6A    -20.575602
       7A    -11.407561     8A    -11.322620     9A    -11.320015
      10A    -11.312162    11A    -11.308528    12A    -11.303580
      13A     -1.472762    14A     -1.409549    15A     -1.398973
      16A     -1.383061    17A     -1.375219    18A     -1.366084
      19A     -1.094678    20A     -1.056145    21A     -0.958039
      22A     -0.878660    23A     -0.858945    24A     -0.798331
      25A     -0.760367    26A     -0.740217    27A     -0.720487
      28A     -0.709375    29A     -0.694821    30A     -0.682859
      31A     -0.663908    32A     -0.644713    33A     -0.627041
      34A     -0.613477    35A     -0.611966    36A     -0.591139
      37A     -0.581222    38A     -0.559303    39A     -0.540095
      40A     -0.535574    41A     -0.518669    42A     -0.508754
      43A     -0.487776    44A     -0.476587    45A     -0.472910
      46A     -0.465186    47A     -0.444069

  @DF-RHF Final Energy:  -682.45251281844151

   => Energetics <=

    Nuclear Repulsion Energy =            801.1347578157730140
    One-Electron Energy =               -2528.7566422212689758
    Two-Electron Energy =                1045.1693715870546839
    Total Energy =                       -682.4525128184413916
  Basis Set: (AUG-CC-PVTZ AUX)
    Blend: AUG-CC-PVTZ-RI
    Molecular point group: c1

    Geometry (in Angstrom), charge = 0, multiplicity = 1:

       Center              X                  Y                   Z               Mass
    ------------   -----------------  -----------------  -----------------  -----------------
         O            0.379243499582    -1.474248419699    -0.132185539288    15.994914619570
         O            1.396779499582     2.066830580301    -0.422203539288    15.994914619570
         O           -1.230068500418     2.351779580301     0.463845460712    15.994914619570
         O           -2.904330500418     0.059799580301    -0.171127539288    15.994914619570
         O            2.914038499582    -0.684049419699     0.953935460712    15.994914619570
         O           -1.672238500418    -2.354447419699     0.002951460712    15.994914619570
         C            0.680394499582     0.931699580301     0.067465460712    12.000000000000
         C           -0.789408500418     1.183314580301    -0.204647539288    12.000000000000
         C            1.121706499582    -0.332648419699    -0.647313539288    12.000000000000
         C           -1.584870500418     0.011036580301     0.326779460712    12.000000000000
         C            2.581171499582    -0.672532419699    -0.429373539288    12.000000000000
         C           -1.023334700418    -1.354173519699     0.014575060712    12.000000000000
         H            0.831947499582     0.808963580301     1.147029460712     1.007825032230
         H           -0.950104500418     1.263918580301    -1.292023539288     1.007825032230
         H            0.920565499582    -0.240523419699    -1.723687539288     1.007825032230
         H           -1.571824500418     0.092086580301     1.428755460712     1.007825032230
         H            3.202418499582     0.095565580301    -0.896216539288     1.007825032230
         H            2.803693499582    -1.633713419699    -0.910412539288     1.007825032230
         H            2.212841499582     2.141310580301     0.103276460712     1.007825032230
         H           -0.607952500418     3.050810580301     0.186900460712     1.007825032230
         H           -3.266388500418    -0.838396419699    -0.038366539288     1.007825032230
         H            2.409604499582    -1.417186419699     1.350048460712     1.007825032230

  Basis Set: AUG-CC-PVTZ
    Blend: AUG-CC-PVTZ
  Basis Set: (AUG-CC-PVTZ AUX)
    Blend: AUG-CC-PVTZ-JKFIT
	 Reference Energy          =    -682.4525128184415053 [Eh]
	 Singles Energy            =      -0.0000000000000000 [Eh]
	 Same-Spin Energy          =      -0.6624310320007836 [Eh]
	 Opposite-Spin Energy      =      -2.0109558216689098 [Eh]
	 Correlation Energy        =      -2.6733868536696934 [Eh]
	 Total Energy              =    -685.1258996721112453 [Eh]

	 ================> DF-SCS-MP2 Energies <==================
	-----------------------------------------------------------
	 SCS Same-Spin Scale       =       0.3333333333333333 [-]
	 SCS Opposite-Spin Scale   =       1.2000000000000000 [-]
	 SCS Same-Spin Energy      =      -0.2208103440002612 [Eh]
	 SCS Opposite-Spin Energy  =      -2.4131469860026917 [Eh]
	 SCS Correlation Energy    =      -2.6339573300029531 [Eh]
	 SCS Total Energy          =    -685.0864701484445050 [Eh]
	-----------------------------------------------------------

  Dipole Moment: [D]
     X:     2.9387      Y:     0.4907      Z:    -0.2053     Total:     2.9865

*** Psi4 exiting successfully. Buy a developer a beer!
