                               Psi4 1.4a3.dev225

  ==> Input File <==

--------------------------------------------------------------------------
#psi4
#
memory 32 gb

molecule  {
0 1
  O        0.3445260    -1.4915130    -0.1284710
  O        1.3620620     2.0495660    -0.4184890
  O       -1.2647860     2.3345150     0.4675600
  O       -2.9390480     0.0425350    -0.1674130
  O        2.8793210    -0.7013140     0.9576500
  O       -1.7069560    -2.3717120     0.0066660
  C        0.6557047     0.9303242     0.0643258
  C       -0.8241260     1.1660500    -0.2009330
  C        1.0869890    -0.3499130    -0.6435990
  C       -1.6195880    -0.0062280     0.3304940
  C        2.5464540    -0.6897970    -0.4256590
  C       -1.0085030    -1.3756800     0.0131050
  H        0.7972300     0.7916990     1.1507440
  H       -0.9848220     1.2466540    -1.2883090
  H        0.8858480    -0.2577880    -1.7199730
  H       -1.6065420     0.0748220     1.4324700
  H        3.1677010     0.0783010    -0.8925020
  H        2.7689760    -1.6509780    -0.9066980
  H        2.1781240     2.1240460     0.1069910
  H       -0.6426700     3.0335460     0.1906150
  H       -3.3011060    -0.8556610    -0.0346520
  H        2.3748870    -1.4344510     1.3537630
units angstrom
no_reorient  #important for SAPT in psi4, default
symmetry c1  #important for SAPT in psi4, default
}

set PROPERTIES_ORIGIN ["COM"]
properties('MP2/aug-cc-pvtz', properties = ['dipole'])
--------------------------------------------------------------------------

    Molecular point group: c1
  Charge       = 0
  Multiplicity = 1
  Basis Set: AUG-CC-PVTZ
    Blend: AUG-CC-PVTZ
  Basis Set: (AUG-CC-PVTZ AUX)
    Blend: AUG-CC-PVTZ-JKFIT

    Orbital Energies [Eh]
    ---------------------

    Doubly Occupied:

       1A    -20.629815     2A    -20.602876     3A    -20.587276
       4A    -20.575453     5A    -20.574539     6A    -20.569005
       7A    -11.406684     8A    -11.325547     9A    -11.321044
      10A    -11.314815    11A    -11.307075    12A    -11.306944
      13A     -1.477297    14A     -1.415433    15A     -1.398885
      16A     -1.384316    17A     -1.375761    18A     -1.362840
      19A     -1.095968    20A     -1.057475    21A     -0.955917
      22A     -0.875382    23A     -0.868396    24A     -0.800254
      25A     -0.763545    26A     -0.744796    27A     -0.720671
      28A     -0.707672    29A     -0.694825    30A     -0.686116
      31A     -0.663468    32A     -0.644373    33A     -0.629002
      34A     -0.617170    35A     -0.614897    36A     -0.592024
      37A     -0.582533    38A     -0.560998    39A     -0.540916
      40A     -0.534437    41A     -0.519477    42A     -0.504118
      43A     -0.483604    44A     -0.477618    45A     -0.471196
      46A     -0.463464    47A     -0.443540

  @DF-RHF Final Energy:  -682.45493720378704

   => Energetics <=

    Nuclear Repulsion Energy =            801.2537582656435688
    One-Electron Energy =               -2528.9184818820090186
    Two-Electron Energy =                1045.2097864125782962
    Total Energy =                       -682.4549372037870398
  Basis Set: (AUG-CC-PVTZ AUX)
    Blend: AUG-CC-PVTZ-RI
    Molecular point group: c1

    Geometry (in Angstrom), charge = 0, multiplicity = 1:

       Center              X                  Y                   Z               Mass
    ------------   -----------------  -----------------  -----------------  -----------------
         O            0.375228156237    -1.475033420405    -0.131374152401    15.994914619570
         O            1.392764156237     2.066045579595    -0.421392152401    15.994914619570
         O           -1.234083843763     2.350994579595     0.464656847599    15.994914619570
         O           -2.908345843763     0.059014579595    -0.170316152401    15.994914619570
         O            2.910023156237    -0.684834420405     0.954746847599    15.994914619570
         O           -1.676253843763    -2.355232420405     0.003762847599    15.994914619570
         C            0.686406856237     0.946803779595     0.061422647599    12.000000000000
         C           -0.793423843763     1.182529579595    -0.203836152401    12.000000000000
         C            1.117691156237    -0.333433420405    -0.646502152401    12.000000000000
         C           -1.588885843763     0.010251579595     0.327590847599    12.000000000000
         C            2.577156156237    -0.673317420405    -0.428562152401    12.000000000000
         C           -0.977800843763    -1.359200420405     0.010201847599    12.000000000000
         H            0.827932156237     0.808178579595     1.147840847599     1.007825032230
         H           -0.954119843763     1.263133579595    -1.291212152401     1.007825032230
         H            0.916550156237    -0.241308420405    -1.722876152401     1.007825032230
         H           -1.575839843763     0.091301579595     1.429566847599     1.007825032230
         H            3.198403156237     0.094780579595    -0.895405152401     1.007825032230
         H            2.799678156237    -1.634498420405    -0.909601152401     1.007825032230
         H            2.208826156237     2.140525579595     0.104087847599     1.007825032230
         H           -0.611967843763     3.050025579595     0.187711847599     1.007825032230
         H           -3.270403843763    -0.839181420405    -0.037555152401     1.007825032230
         H            2.405589156237    -1.417971420405     1.350859847599     1.007825032230

  Basis Set: AUG-CC-PVTZ
    Blend: AUG-CC-PVTZ
  Basis Set: (AUG-CC-PVTZ AUX)
    Blend: AUG-CC-PVTZ-JKFIT
	 Reference Energy          =    -682.4549372037870398 [Eh]
	 Singles Energy            =      -0.0000000000000000 [Eh]
	 Same-Spin Energy          =      -0.6623684039084922 [Eh]
	 Opposite-Spin Energy      =      -2.0104852233596593 [Eh]
	 Correlation Energy        =      -2.6728536272681516 [Eh]
	 Total Energy              =    -685.1277908310552220 [Eh]

	 ================> DF-SCS-MP2 Energies <==================
	-----------------------------------------------------------
	 SCS Same-Spin Scale       =       0.3333333333333333 [-]
	 SCS Opposite-Spin Scale   =       1.2000000000000000 [-]
	 SCS Same-Spin Energy      =      -0.2207894679694974 [Eh]
	 SCS Opposite-Spin Energy  =      -2.4125822680315911 [Eh]
	 SCS Correlation Energy    =      -2.6333717360010884 [Eh]
	 SCS Total Energy          =    -685.0883089397881349 [Eh]
	-----------------------------------------------------------

  Dipole Moment: [D]
     X:     3.4278      Y:     0.6293      Z:    -0.2756     Total:     3.4960

*** Psi4 exiting successfully. Buy a developer a beer!
