                               Psi4 1.4a3.dev225

  ==> Input File <==

--------------------------------------------------------------------------
#psi4
#
memory 32 gb

molecule  {
0 1
  O        0.3445260    -1.4915130    -0.1284710
  O        1.3620620     2.0495660    -0.4184890
  O       -1.2647860     2.3345150     0.4675600
  O       -2.9390480     0.0425350    -0.1674130
  O        2.8793210    -0.7013140     0.9576500
  O       -1.7069560    -2.3717120     0.0066660
  C        0.6456770     0.9144350     0.0711800
  C       -0.8241260     1.1660500    -0.2009330
  C        1.0869890    -0.3499130    -0.6435990
  C       -1.6195880    -0.0062280     0.3304940
  C        2.5464540    -0.6897970    -0.4256590
  C       -1.0085030    -1.3756800     0.0131050
  H        0.7972300     0.7916990     1.1507440
  H       -0.9556612     1.2320271    -1.0909877
  H        0.8858480    -0.2577880    -1.7199730
  H       -1.6065420     0.0748220     1.4324700
  H        3.1677010     0.0783010    -0.8925020
  H        2.7689760    -1.6509780    -0.9066980
  H        2.1781240     2.1240460     0.1069910
  H       -0.6426700     3.0335460     0.1906150
  H       -3.3011060    -0.8556610    -0.0346520
  H        2.3748870    -1.4344510     1.3537630
units angstrom
no_reorient  #important for SAPT in psi4, default
symmetry c1  #important for SAPT in psi4, default
}

set PROPERTIES_ORIGIN ["COM"]
properties('MP2/aug-cc-pvtz', properties = ['dipole'])
--------------------------------------------------------------------------

    Molecular point group: c1
  Charge       = 0
  Multiplicity = 1
  Basis Set: AUG-CC-PVTZ
    Blend: AUG-CC-PVTZ
  Basis Set: (AUG-CC-PVTZ AUX)
    Blend: AUG-CC-PVTZ-JKFIT

    Orbital Energies [Eh]
    ---------------------

    Doubly Occupied:

       1A    -20.629938     2A    -20.600657     3A    -20.587716
       4A    -20.575829     5A    -20.571791     6A    -20.569194
       7A    -11.406818     8A    -11.326777     9A    -11.319932
      10A    -11.313308    11A    -11.307754    12A    -11.283265
      13A     -1.477841    14A     -1.409509    15A     -1.399320
      16A     -1.384062    17A     -1.374549    18A     -1.362259
      19A     -1.103419    20A     -1.060973    21A     -0.957009
      22A     -0.897010    23A     -0.868673    24A     -0.811063
      25A     -0.762645    26A     -0.743990    27A     -0.722718
      28A     -0.714280    29A     -0.695909    30A     -0.687425
      31A     -0.663925    32A     -0.647326    33A     -0.630364
      34A     -0.618135    35A     -0.616263    36A     -0.591525
      37A     -0.584312    38A     -0.561075    39A     -0.541934
      40A     -0.534058    41A     -0.520444    42A     -0.504462
      43A     -0.484125    44A     -0.482550    45A     -0.475763
      46A     -0.465578    47A     -0.444960

  @DF-RHF Final Energy:  -682.42387710437868

   => Energetics <=

    Nuclear Repulsion Energy =            802.6597769691494477
    One-Electron Energy =               -2531.5824467242232458
    Two-Electron Energy =                1046.4987926506953499
    Total Energy =                       -682.4238771043785619
  Basis Set: (AUG-CC-PVTZ AUX)
    Blend: AUG-CC-PVTZ-RI
    Molecular point group: c1

    Geometry (in Angstrom), charge = 0, multiplicity = 1:

       Center              X                  Y                   Z               Mass
    ------------   -----------------  -----------------  -----------------  -----------------
         O            0.375738937316    -1.473879731185    -0.132953030901    15.994914619570
         O            1.393274937316     2.067199268815    -0.422971030901    15.994914619570
         O           -1.233573062684     2.352148268815     0.463077969099    15.994914619570
         O           -2.907835062684     0.060168268815    -0.171895030901    15.994914619570
         O            2.910533937316    -0.683680731185     0.953167969099    15.994914619570
         O           -1.675743062684    -2.354078731185     0.002183969099    15.994914619570
         C            0.676889937316     0.932068268815     0.066697969099    12.000000000000
         C           -0.792913062684     1.183683268815    -0.205415030901    12.000000000000
         C            1.118201937316    -0.332279731185    -0.648081030901    12.000000000000
         C           -1.588375062684     0.011405268815     0.326011969099    12.000000000000
         C            2.577666937316    -0.672163731185    -0.430141030901    12.000000000000
         C           -0.977290062684    -1.358046731185     0.008622969099    12.000000000000
         H            0.828442937316     0.809332268815     1.146261969099     1.007825032230
         H           -0.924448262684     1.249660368815    -1.095469730901     1.007825032230
         H            0.917060937316    -0.240154731185    -1.724455030901     1.007825032230
         H           -1.575329062684     0.092455268815     1.427987969099     1.007825032230
         H            3.198913937316     0.095934268815    -0.896984030901     1.007825032230
         H            2.800188937316    -1.633344731185    -0.911180030901     1.007825032230
         H            2.209336937316     2.141679268815     0.102508969099     1.007825032230
         H           -0.611457062684     3.051179268815     0.186132969099     1.007825032230
         H           -3.269893062684    -0.838027731185    -0.039134030901     1.007825032230
         H            2.406099937316    -1.416817731185     1.349280969099     1.007825032230

  Basis Set: AUG-CC-PVTZ
    Blend: AUG-CC-PVTZ
  Basis Set: (AUG-CC-PVTZ AUX)
    Blend: AUG-CC-PVTZ-JKFIT
	 Reference Energy          =    -682.4238771043786755 [Eh]
	 Singles Energy            =      -0.0000000000000000 [Eh]
	 Same-Spin Energy          =      -0.6621088833433115 [Eh]
	 Opposite-Spin Energy      =      -2.0097658998864438 [Eh]
	 Correlation Energy        =      -2.6718747832297556 [Eh]
	 Total Energy              =    -685.0957518876084578 [Eh]

	 ================> DF-SCS-MP2 Energies <==================
	-----------------------------------------------------------
	 SCS Same-Spin Scale       =       0.3333333333333333 [-]
	 SCS Opposite-Spin Scale   =       1.2000000000000000 [-]
	 SCS Same-Spin Energy      =      -0.2207029611144372 [Eh]
	 SCS Opposite-Spin Energy  =      -2.4117190798637327 [Eh]
	 SCS Correlation Energy    =      -2.6324220409781698 [Eh]
	 SCS Total Energy          =    -685.0562991453568884 [Eh]
	-----------------------------------------------------------

  Dipole Moment: [D]
     X:     3.4150      Y:     0.5293      Z:    -0.3353     Total:     3.4721

*** Psi4 exiting successfully. Buy a developer a beer!
