                               Psi4 1.4a3.dev225

  ==> Input File <==

--------------------------------------------------------------------------
#psi4
#
memory 32 gb

molecule  {
0 1
  O        0.3445260    -1.4915130    -0.1284710
  O        1.3620620     2.0495660    -0.4184890
  O       -1.2485442     2.3478362     0.4545250
  O       -2.9390480     0.0425350    -0.1674130
  O        2.8793210    -0.7013140     0.9576500
  O       -1.7069560    -2.3717120     0.0066660
  C        0.6456770     0.9144350     0.0711800
  C       -0.8241260     1.1660500    -0.2009330
  C        1.0869890    -0.3499130    -0.6435990
  C       -1.6195880    -0.0062280     0.3304940
  C        2.5464540    -0.6897970    -0.4256590
  C       -1.0085030    -1.3756800     0.0131050
  H        0.7972300     0.7916990     1.1507440
  H       -0.9848220     1.2466540    -1.2883090
  H        0.8858480    -0.2577880    -1.7199730
  H       -1.6065420     0.0748220     1.4324700
  H        3.1677010     0.0783010    -0.8925020
  H        2.7689760    -1.6509780    -0.9066980
  H        2.1781240     2.1240460     0.1069910
  H       -0.6426700     3.0335460     0.1906150
  H       -3.3011060    -0.8556610    -0.0346520
  H        2.3748870    -1.4344510     1.3537630
units angstrom
no_reorient  #important for SAPT in psi4, default
symmetry c1  #important for SAPT in psi4, default
}

set PROPERTIES_ORIGIN ["COM"]
properties('MP2/aug-cc-pvtz', properties = ['dipole'])
--------------------------------------------------------------------------

    Molecular point group: c1
  Charge       = 0
  Multiplicity = 1
  Basis Set: AUG-CC-PVTZ
    Blend: AUG-CC-PVTZ
  Basis Set: (AUG-CC-PVTZ AUX)
    Blend: AUG-CC-PVTZ-JKFIT

    Orbital Energies [Eh]
    ---------------------

    Doubly Occupied:

       1A    -20.629968     2A    -20.600258     3A    -20.587579
       4A    -20.575951     5A    -20.572018     6A    -20.569737
       7A    -11.407578     8A    -11.326148     9A    -11.321981
      10A    -11.314416    11A    -11.307755    12A    -11.307426
      13A     -1.477971    14A     -1.410069    15A     -1.399665
      16A     -1.383999    17A     -1.376241    18A     -1.364552
      19A     -1.098913    20A     -1.058983    21A     -0.956499
      22A     -0.878190    23A     -0.868519    24A     -0.801477
      25A     -0.762391    26A     -0.742053    27A     -0.722663
      28A     -0.708330    29A     -0.696860    30A     -0.686795
      31A     -0.663777    32A     -0.643908    33A     -0.628738
      34A     -0.617794    35A     -0.615097    36A     -0.590556
      37A     -0.583299    38A     -0.559853    39A     -0.540647
      40A     -0.534502    41A     -0.519586    42A     -0.504458
      43A     -0.485026    44A     -0.478160    45A     -0.472300
      46A     -0.464968    47A     -0.445398

  @DF-RHF Final Energy:  -682.45598335166903

   => Energetics <=

    Nuclear Repulsion Energy =            801.4064437717388500
    One-Electron Energy =               -2529.1987577409158803
    Two-Electron Energy =                1045.3363306175078833
    Total Energy =                       -682.4559833516691469
  Basis Set: (AUG-CC-PVTZ AUX)
    Blend: AUG-CC-PVTZ-RI
    Molecular point group: c1

    Geometry (in Angstrom), charge = 0, multiplicity = 1:

       Center              X                  Y                   Z               Mass
    ------------   -----------------  -----------------  -----------------  -----------------
         O            0.374444917956    -1.475159235295    -0.130665110469    15.994914619570
         O            1.391980917956     2.065919764705    -0.420683110469    15.994914619570
         O           -1.218625282044     2.364189964705     0.452330889531    15.994914619570
         O           -2.909129082044     0.058888764705    -0.169607110469    15.994914619570
         O            2.909239917956    -0.684960235295     0.955455889531    15.994914619570
         O           -1.677037082044    -2.355358235295     0.004471889531    15.994914619570
         C            0.675595917956     0.930788764705     0.068985889531    12.000000000000
         C           -0.794207082044     1.182403764705    -0.203127110469    12.000000000000
         C            1.116907917956    -0.333559235295    -0.645793110469    12.000000000000
         C           -1.589669082044     0.010125764705     0.328299889531    12.000000000000
         C            2.576372917956    -0.673443235295    -0.427853110469    12.000000000000
         C           -0.978584082044    -1.359326235295     0.010910889531    12.000000000000
         H            0.827148917956     0.808052764705     1.148549889531     1.007825032230
         H           -0.954903082044     1.263007764705    -1.290503110469     1.007825032230
         H            0.915766917956    -0.241434235295    -1.722167110469     1.007825032230
         H           -1.576623082044     0.091175764705     1.430275889531     1.007825032230
         H            3.197619917956     0.094654764705    -0.894696110469     1.007825032230
         H            2.798894917956    -1.634624235295    -0.908892110469     1.007825032230
         H            2.208042917956     2.140399764705     0.104796889531     1.007825032230
         H           -0.612751082044     3.049899764705     0.188420889531     1.007825032230
         H           -3.271187082044    -0.839307235295    -0.036846110469     1.007825032230
         H            2.404805917956    -1.418097235295     1.351568889531     1.007825032230

  Basis Set: AUG-CC-PVTZ
    Blend: AUG-CC-PVTZ
  Basis Set: (AUG-CC-PVTZ AUX)
    Blend: AUG-CC-PVTZ-JKFIT
	 Reference Energy          =    -682.4559833516690333 [Eh]
	 Singles Energy            =      -0.0000000000000000 [Eh]
	 Same-Spin Energy          =      -0.6620784546316301 [Eh]
	 Opposite-Spin Energy      =      -2.0099347281520785 [Eh]
	 Correlation Energy        =      -2.6720131827837088 [Eh]
	 Total Energy              =    -685.1279965344527909 [Eh]

	 ================> DF-SCS-MP2 Energies <==================
	-----------------------------------------------------------
	 SCS Same-Spin Scale       =       0.3333333333333333 [-]
	 SCS Opposite-Spin Scale   =       1.2000000000000000 [-]
	 SCS Same-Spin Energy      =      -0.2206928182105433 [Eh]
	 SCS Opposite-Spin Energy  =      -2.4119216737824942 [Eh]
	 SCS Correlation Energy    =      -2.6326144919930377 [Eh]
	 SCS Total Energy          =    -685.0885978436621144 [Eh]
	-----------------------------------------------------------

  Dipole Moment: [D]
     X:     3.3732      Y:     0.5386      Z:    -0.2497     Total:     3.4251

*** Psi4 exiting successfully. Buy a developer a beer!
