                               Psi4 1.4a3.dev225

  ==> Input File <==

--------------------------------------------------------------------------
#psi4
#
memory 32 gb

molecule  {
0 1
  O        0.3445260    -1.4915130    -0.1284710
  O        1.3620620     2.0495660    -0.4184890
  O       -1.2808935     2.3208379     0.4803914
  O       -2.9390480     0.0425350    -0.1674130
  O        2.8793210    -0.7013140     0.9576500
  O       -1.7069560    -2.3717120     0.0066660
  C        0.6456770     0.9144350     0.0711800
  C       -0.8241260     1.1660500    -0.2009330
  C        1.0869890    -0.3499130    -0.6435990
  C       -1.6195880    -0.0062280     0.3304940
  C        2.5464540    -0.6897970    -0.4256590
  C       -1.0085030    -1.3756800     0.0131050
  H        0.7972300     0.7916990     1.1507440
  H       -0.9848220     1.2466540    -1.2883090
  H        0.8858480    -0.2577880    -1.7199730
  H       -1.6065420     0.0748220     1.4324700
  H        3.1677010     0.0783010    -0.8925020
  H        2.7689760    -1.6509780    -0.9066980
  H        2.1781240     2.1240460     0.1069910
  H       -0.6426700     3.0335460     0.1906150
  H       -3.3011060    -0.8556610    -0.0346520
  H        2.3748870    -1.4344510     1.3537630
units angstrom
no_reorient  #important for SAPT in psi4, default
symmetry c1  #important for SAPT in psi4, default
}

set PROPERTIES_ORIGIN ["COM"]
properties('MP2/aug-cc-pvtz', properties = ['dipole'])
--------------------------------------------------------------------------

    Molecular point group: c1
  Charge       = 0
  Multiplicity = 1
  Basis Set: AUG-CC-PVTZ
    Blend: AUG-CC-PVTZ
  Basis Set: (AUG-CC-PVTZ AUX)
    Blend: AUG-CC-PVTZ-JKFIT

    Orbital Energies [Eh]
    ---------------------

    Doubly Occupied:

       1A    -20.629617     2A    -20.601042     3A    -20.587686
       4A    -20.577646     5A    -20.575162     6A    -20.568842
       7A    -11.406369     8A    -11.326402     9A    -11.320373
      10A    -11.314817    11A    -11.307630    12A    -11.306964
      13A     -1.477453    14A     -1.408874    15A     -1.398737
      16A     -1.383935    17A     -1.373761    18A     -1.360970
      19A     -1.097664    20A     -1.057734    21A     -0.956452
      22A     -0.874895    23A     -0.868166    24A     -0.801438
      25A     -0.762153    26A     -0.741836    27A     -0.719830
      28A     -0.707612    29A     -0.692978    30A     -0.685520
      31A     -0.660604    32A     -0.643925    33A     -0.628787
      34A     -0.616243    35A     -0.614608    36A     -0.589792
      37A     -0.582657    38A     -0.560128    39A     -0.541683
      40A     -0.533941    41A     -0.519725    42A     -0.504215
      43A     -0.483258    44A     -0.478058    45A     -0.472846
      46A     -0.464804    47A     -0.444916

  @DF-RHF Final Energy:  -682.45248542602747

   => Energetics <=

    Nuclear Repulsion Energy =            801.3121015216497653
    One-Electron Energy =               -2529.0636810629648608
    Two-Electron Energy =                1045.2990941152875166
    Total Energy =                       -682.4524854260275788
  Basis Set: (AUG-CC-PVTZ AUX)
    Blend: AUG-CC-PVTZ-RI
    Molecular point group: c1

    Geometry (in Angstrom), charge = 0, multiplicity = 1:

       Center              X                  Y                   Z               Mass
    ------------   -----------------  -----------------  -----------------  -----------------
         O            0.377351016608    -1.472733843610    -0.132988817943    15.994914619570
         O            1.394887016608     2.068345156390    -0.423006817943    15.994914619570
         O           -1.248068483392     2.339617056390     0.475873582057    15.994914619570
         O           -2.906222983392     0.061314156390    -0.171930817943    15.994914619570
         O            2.912146016608    -0.682534843610     0.953132182057    15.994914619570
         O           -1.674130983392    -2.352932843610     0.002148182057    15.994914619570
         C            0.678502016608     0.933214156390     0.066662182057    12.000000000000
         C           -0.791300983392     1.184829156390    -0.205450817943    12.000000000000
         C            1.119814016608    -0.331133843610    -0.648116817943    12.000000000000
         C           -1.586762983392     0.012551156390     0.325976182057    12.000000000000
         C            2.579279016608    -0.671017843610    -0.430176817943    12.000000000000
         C           -0.975677983392    -1.356900843610     0.008587182057    12.000000000000
         H            0.830055016608     0.810478156390     1.146226182057     1.007825032230
         H           -0.951996983392     1.265433156390    -1.292826817943     1.007825032230
         H            0.918673016608    -0.239008843610    -1.724490817943     1.007825032230
         H           -1.573716983392     0.093601156390     1.427952182057     1.007825032230
         H            3.200526016608     0.097080156390    -0.897019817943     1.007825032230
         H            2.801801016608    -1.632198843610    -0.911215817943     1.007825032230
         H            2.210949016608     2.142825156390     0.102473182057     1.007825032230
         H           -0.609844983392     3.052325156390     0.186097182057     1.007825032230
         H           -3.268280983392    -0.836881843610    -0.039169817943     1.007825032230
         H            2.407712016608    -1.415671843610     1.349245182057     1.007825032230

  Basis Set: AUG-CC-PVTZ
    Blend: AUG-CC-PVTZ
  Basis Set: (AUG-CC-PVTZ AUX)
    Blend: AUG-CC-PVTZ-JKFIT
	 Reference Energy          =    -682.4524854260274651 [Eh]
	 Singles Energy            =      -0.0000000000000000 [Eh]
	 Same-Spin Energy          =      -0.6628368341714825 [Eh]
	 Opposite-Spin Energy      =      -2.0117357034662255 [Eh]
	 Correlation Energy        =      -2.6745725376377081 [Eh]
	 Total Energy              =    -685.1270579636651519 [Eh]

	 ================> DF-SCS-MP2 Energies <==================
	-----------------------------------------------------------
	 SCS Same-Spin Scale       =       0.3333333333333333 [-]
	 SCS Opposite-Spin Scale   =       1.2000000000000000 [-]
	 SCS Same-Spin Energy      =      -0.2209456113904942 [Eh]
	 SCS Opposite-Spin Energy  =      -2.4140828441594704 [Eh]
	 SCS Correlation Energy    =      -2.6350284555499646 [Eh]
	 SCS Total Energy          =    -685.0875138815774790 [Eh]
	-----------------------------------------------------------

  Dipole Moment: [D]
     X:     3.4192      Y:     0.6056      Z:    -0.2804     Total:     3.4837

*** Psi4 exiting successfully. Buy a developer a beer!
