                               Psi4 1.4a3.dev225

  ==> Input File <==

--------------------------------------------------------------------------
#psi4
#
memory 32 gb

molecule  {
0 1
  O        0.3445260    -1.4915130    -0.1284710
  O        1.3620620     2.0495660    -0.4184890
  O       -1.2647860     2.3345150     0.4675600
  O       -2.9390480     0.0425350    -0.1674130
  O        2.8793210    -0.7013140     0.9576500
  O       -1.7069560    -2.3717120     0.0066660
  C        0.6456770     0.9144350     0.0711800
  C       -0.8241260     1.1660500    -0.2009330
  C        1.0869890    -0.3499130    -0.6435990
  C       -1.6195880    -0.0062280     0.3304940
  C        2.5464540    -0.6897970    -0.4256590
  C       -1.0085030    -1.3756800     0.0131050
  H        0.7972300     0.7916990     1.1507440
  H       -0.9848220     1.2466540    -1.2883090
  H        0.9041523    -0.2661716    -1.6220206
  H       -1.6065420     0.0748220     1.4324700
  H        3.1677010     0.0783010    -0.8925020
  H        2.7689760    -1.6509780    -0.9066980
  H        2.1781240     2.1240460     0.1069910
  H       -0.6426700     3.0335460     0.1906150
  H       -3.3011060    -0.8556610    -0.0346520
  H        2.3748870    -1.4344510     1.3537630
units angstrom
no_reorient  #important for SAPT in psi4, default
symmetry c1  #important for SAPT in psi4, default
}

set PROPERTIES_ORIGIN ["COM"]
properties('MP2/aug-cc-pvtz', properties = ['dipole'])
--------------------------------------------------------------------------

    Molecular point group: c1
  Charge       = 0
  Multiplicity = 1
  Basis Set: AUG-CC-PVTZ
    Blend: AUG-CC-PVTZ
  Basis Set: (AUG-CC-PVTZ AUX)
    Blend: AUG-CC-PVTZ-JKFIT

    Orbital Energies [Eh]
    ---------------------

    Doubly Occupied:

       1A    -20.628790     2A    -20.600655     3A    -20.587042
       4A    -20.575464     5A    -20.574974     6A    -20.568794
       7A    -11.406612     8A    -11.321056     9A    -11.314608
      10A    -11.313718    11A    -11.307435    12A    -11.306995
      13A     -1.477310    14A     -1.409384    15A     -1.398949
      16A     -1.383552    17A     -1.374699    18A     -1.362774
      19A     -1.100993    20A     -1.061251    21A     -0.956300
      22A     -0.878221    23A     -0.870077    24A     -0.810070
      25A     -0.762842    26A     -0.742700    27A     -0.722214
      28A     -0.710674    29A     -0.695634    30A     -0.686849
      31A     -0.662932    32A     -0.643912    33A     -0.628354
      34A     -0.616983    35A     -0.615046    36A     -0.591216
      37A     -0.588009    38A     -0.560316    39A     -0.541050
      40A     -0.534370    41A     -0.520232    42A     -0.504066
      43A     -0.485315    44A     -0.478807    45A     -0.472688
      46A     -0.464977    47A     -0.444859

  @DF-RHF Final Energy:  -682.44960534429924

   => Energetics <=

    Nuclear Repulsion Energy =            801.9806917427468989
    One-Electron Energy =               -2530.3330534639276266
    Two-Electron Energy =                1045.9027563768815980
    Total Energy =                       -682.4496053442992434
  Basis Set: (AUG-CC-PVTZ AUX)
    Blend: AUG-CC-PVTZ-RI
    Molecular point group: c1

    Geometry (in Angstrom), charge = 0, multiplicity = 1:

       Center              X                  Y                   Z               Mass
    ------------   -----------------  -----------------  -----------------  -----------------
         O            0.375800389669    -1.473915070887    -0.132390561161    15.994914619570
         O            1.393336389669     2.067163929113    -0.422408561161    15.994914619570
         O           -1.233511610331     2.352112929113     0.463640438839    15.994914619570
         O           -2.907773610331     0.060132929113    -0.171332561161    15.994914619570
         O            2.910595389669    -0.683716070887     0.953730438839    15.994914619570
         O           -1.675681610331    -2.354114070887     0.002746438839    15.994914619570
         C            0.676951389669     0.932032929113     0.067260438839    12.000000000000
         C           -0.792851610331     1.183647929113    -0.204852561161    12.000000000000
         C            1.118263389669    -0.332315070887    -0.647518561161    12.000000000000
         C           -1.588313610331     0.011369929113     0.326574438839    12.000000000000
         C            2.577728389669    -0.672199070887    -0.429578561161    12.000000000000
         C           -0.977228610331    -1.358082070887     0.009185438839    12.000000000000
         H            0.828504389669     0.809296929113     1.146824438839     1.007825032230
         H           -0.953547610331     1.264251929113    -1.292228561161     1.007825032230
         H            0.935426689669    -0.248573670887    -1.625940161161     1.007825032230
         H           -1.575267610331     0.092419929113     1.428550438839     1.007825032230
         H            3.198975389669     0.095898929113    -0.896421561161     1.007825032230
         H            2.800250389669    -1.633380070887    -0.910617561161     1.007825032230
         H            2.209398389669     2.141643929113     0.103071438839     1.007825032230
         H           -0.611395610331     3.051143929113     0.186695438839     1.007825032230
         H           -3.269831610331    -0.838063070887    -0.038571561161     1.007825032230
         H            2.406161389669    -1.416853070887     1.349843438839     1.007825032230

  Basis Set: AUG-CC-PVTZ
    Blend: AUG-CC-PVTZ
  Basis Set: (AUG-CC-PVTZ AUX)
    Blend: AUG-CC-PVTZ-JKFIT
	 Reference Energy          =    -682.4496053442992434 [Eh]
	 Singles Energy            =      -0.0000000000000000 [Eh]
	 Same-Spin Energy          =      -0.6622400130494615 [Eh]
	 Opposite-Spin Energy      =      -2.0100716554879261 [Eh]
	 Correlation Energy        =      -2.6723116685373878 [Eh]
	 Total Energy              =    -685.1219170128366613 [Eh]

	 ================> DF-SCS-MP2 Energies <==================
	-----------------------------------------------------------
	 SCS Same-Spin Scale       =       0.3333333333333333 [-]
	 SCS Opposite-Spin Scale   =       1.2000000000000000 [-]
	 SCS Same-Spin Energy      =      -0.2207466710164872 [Eh]
	 SCS Opposite-Spin Energy  =      -2.4120859865855113 [Eh]
	 SCS Correlation Energy    =      -2.6328326576019982 [Eh]
	 SCS Total Energy          =    -685.0824380019012096 [Eh]
	-----------------------------------------------------------

  Dipole Moment: [D]
     X:     3.4076      Y:     0.5878      Z:    -0.3033     Total:     3.4712

*** Psi4 exiting successfully. Buy a developer a beer!
