                               Psi4 1.4a3.dev225

  ==> Input File <==

--------------------------------------------------------------------------
#psi4
#
memory 32 gb

molecule  {
0 1
  O        0.3445260    -1.4915130    -0.1284710
  O        1.3620620     2.0495660    -0.4184890
  O       -1.2647860     2.3345150     0.4675600
  O       -2.9390480     0.0425350    -0.1674130
  O        2.8793210    -0.7013140     0.9576500
  O       -1.7069560    -2.3717120     0.0066660
  C        0.6456770     0.9144350     0.0711800
  C       -0.7271611     1.1494506    -0.1829813
  C        1.0869890    -0.3499130    -0.6435990
  C       -1.6195880    -0.0062280     0.3304940
  C        2.5464540    -0.6897970    -0.4256590
  C       -1.0085030    -1.3756800     0.0131050
  H        0.7972300     0.7916990     1.1507440
  H       -0.9848220     1.2466540    -1.2883090
  H        0.8858480    -0.2577880    -1.7199730
  H       -1.6065420     0.0748220     1.4324700
  H        3.1677010     0.0783010    -0.8925020
  H        2.7689760    -1.6509780    -0.9066980
  H        2.1781240     2.1240460     0.1069910
  H       -0.6426700     3.0335460     0.1906150
  H       -3.3011060    -0.8556610    -0.0346520
  H        2.3748870    -1.4344510     1.3537630
units angstrom
no_reorient  #important for SAPT in psi4, default
symmetry c1  #important for SAPT in psi4, default
}

set PROPERTIES_ORIGIN ["COM"]
properties('MP2/aug-cc-pvtz', properties = ['dipole'])
--------------------------------------------------------------------------

    Molecular point group: c1
  Charge       = 0
  Multiplicity = 1
  Basis Set: AUG-CC-PVTZ
    Blend: AUG-CC-PVTZ
  Basis Set: (AUG-CC-PVTZ AUX)
    Blend: AUG-CC-PVTZ-JKFIT

    Orbital Energies [Eh]
    ---------------------

    Doubly Occupied:

       1A    -20.630829     2A    -20.602339     3A    -20.588996
       4A    -20.577675     5A    -20.572965     6A    -20.568455
       7A    -11.405607     8A    -11.329064     9A    -11.324129
      10A    -11.313501    11A    -11.309184    12A    -11.308670
      13A     -1.478445    14A     -1.411916    15A     -1.398449
      16A     -1.384846    17A     -1.371256    18A     -1.356694
      19A     -1.112441    20A     -1.058493    21A     -0.965151
      22A     -0.877216    23A     -0.864504    24A     -0.803616
      25A     -0.764839    26A     -0.744305    27A     -0.720583
      28A     -0.704346    29A     -0.694296    30A     -0.686432
      31A     -0.661642    32A     -0.644522    33A     -0.630673
      34A     -0.616782    35A     -0.609930    36A     -0.590138
      37A     -0.583669    38A     -0.558149    39A     -0.544860
      40A     -0.532848    41A     -0.523609    42A     -0.504946
      43A     -0.485189    44A     -0.478197    45A     -0.469797
      46A     -0.464329    47A     -0.450271

  @DF-RHF Final Energy:  -682.44183601185034

   => Energetics <=

    Nuclear Repulsion Energy =            802.2499695087573173
    One-Electron Energy =               -2530.8260233872611025
    Two-Electron Energy =                1046.1342178666534437
    Total Energy =                       -682.4418360118504552
  Basis Set: (AUG-CC-PVTZ AUX)
    Blend: AUG-CC-PVTZ-RI
    Molecular point group: c1

    Geometry (in Angstrom), charge = 0, multiplicity = 1:

       Center              X                  Y                   Z               Mass
    ------------   -----------------  -----------------  -----------------  -----------------
         O            0.369368792835    -1.472843764954    -0.133046011888    15.994914619570
         O            1.386904792835     2.068235235046    -0.423064011888    15.994914619570
         O           -1.239943207165     2.353184235046     0.462984988112    15.994914619570
         O           -2.914205207165     0.061204235046    -0.171988011888    15.994914619570
         O            2.904163792835    -0.682644764954     0.953074988112    15.994914619570
         O           -1.682113207165    -2.353042764954     0.002090988112    15.994914619570
         C            0.670519792835     0.933104235046     0.066604988112    12.000000000000
         C           -0.702318307165     1.168119835046    -0.187556311888    12.000000000000
         C            1.111831792835    -0.331243764954    -0.648174011888    12.000000000000
         C           -1.594745207165     0.012441235046     0.325918988112    12.000000000000
         C            2.571296792835    -0.671127764954    -0.430234011888    12.000000000000
         C           -0.983660207165    -1.357010764954     0.008529988112    12.000000000000
         H            0.822072792835     0.810368235046     1.146168988112     1.007825032230
         H           -0.959979207165     1.265323235046    -1.292884011888     1.007825032230
         H            0.910690792835    -0.239118764954    -1.724548011888     1.007825032230
         H           -1.581699207165     0.093491235046     1.427894988112     1.007825032230
         H            3.192543792835     0.096970235046    -0.897077011888     1.007825032230
         H            2.793818792835    -1.632308764954    -0.911273011888     1.007825032230
         H            2.202966792835     2.142715235046     0.102415988112     1.007825032230
         H           -0.617827207165     3.052215235046     0.186039988112     1.007825032230
         H           -3.276263207165    -0.836991764954    -0.039227011888     1.007825032230
         H            2.399729792835    -1.415781764954     1.349187988112     1.007825032230

  Basis Set: AUG-CC-PVTZ
    Blend: AUG-CC-PVTZ
  Basis Set: (AUG-CC-PVTZ AUX)
    Blend: AUG-CC-PVTZ-JKFIT
	 Reference Energy          =    -682.4418360118503415 [Eh]
	 Singles Energy            =      -0.0000000000000000 [Eh]
	 Same-Spin Energy          =      -0.6635421573146021 [Eh]
	 Opposite-Spin Energy      =      -2.0128360455259875 [Eh]
	 Correlation Energy        =      -2.6763782028405894 [Eh]
	 Total Energy              =    -685.1182142146909655 [Eh]

	 ================> DF-SCS-MP2 Energies <==================
	-----------------------------------------------------------
	 SCS Same-Spin Scale       =       0.3333333333333333 [-]
	 SCS Opposite-Spin Scale   =       1.2000000000000000 [-]
	 SCS Same-Spin Energy      =      -0.2211807191048674 [Eh]
	 SCS Opposite-Spin Energy  =      -2.4154032546311850 [Eh]
	 SCS Correlation Energy    =      -2.6365839737360521 [Eh]
	 SCS Total Energy          =    -685.0784199855863790 [Eh]
	-----------------------------------------------------------

  Dipole Moment: [D]
     X:     3.5092      Y:     0.4570      Z:    -0.2621     Total:     3.5485

*** Psi4 exiting successfully. Buy a developer a beer!
