                               Psi4 1.4a3.dev225

  ==> Input File <==

--------------------------------------------------------------------------
#psi4
#
memory 32 gb

molecule  {
0 1
  O        0.3224827    -1.6305196    -0.1532756
  O        1.3620620     2.0495660    -0.4184890
  O       -1.2647860     2.3345150     0.4675600
  O       -2.9390480     0.0425350    -0.1674130
  O        2.8793210    -0.7013140     0.9576500
  O       -1.7069560    -2.3717120     0.0066660
  C        0.6456770     0.9144350     0.0711800
  C       -0.8241260     1.1660500    -0.2009330
  C        1.0869890    -0.3499130    -0.6435990
  C       -1.6195880    -0.0062280     0.3304940
  C        2.5464540    -0.6897970    -0.4256590
  C       -1.0085030    -1.3756800     0.0131050
  H        0.7972300     0.7916990     1.1507440
  H       -0.9848220     1.2466540    -1.2883090
  H        0.8858480    -0.2577880    -1.7199730
  H       -1.6065420     0.0748220     1.4324700
  H        3.1677010     0.0783010    -0.8925020
  H        2.7689760    -1.6509780    -0.9066980
  H        2.1781240     2.1240460     0.1069910
  H       -0.6426700     3.0335460     0.1906150
  H       -3.3011060    -0.8556610    -0.0346520
  H        2.3748870    -1.4344510     1.3537630
units angstrom
no_reorient  #important for SAPT in psi4, default
symmetry c1  #important for SAPT in psi4, default
}

set PROPERTIES_ORIGIN ["COM"]
properties('MP2/aug-cc-pvtz', properties = ['dipole'])
--------------------------------------------------------------------------

    Molecular point group: c1
  Charge       = 0
  Multiplicity = 1
  Basis Set: AUG-CC-PVTZ
    Blend: AUG-CC-PVTZ
  Basis Set: (AUG-CC-PVTZ AUX)
    Blend: AUG-CC-PVTZ-JKFIT

    Orbital Energies [Eh]
    ---------------------

    Doubly Occupied:

       1A    -20.628585     2A    -20.606902     3A    -20.588858
       4A    -20.577189     5A    -20.576979     6A    -20.557394
       7A    -11.398231     8A    -11.334373     9A    -11.325257
      10A    -11.321541    11A    -11.310332    12A    -11.309778
      13A     -1.463920    14A     -1.413853    15A     -1.394336
      16A     -1.385536    17A     -1.370728    18A     -1.351663
      19A     -1.104617    20A     -1.052775    21A     -0.958657
      22A     -0.879429    23A     -0.852265    24A     -0.798668
      25A     -0.762158    26A     -0.742222    27A     -0.718519
      28A     -0.707401    29A     -0.691457    30A     -0.676849
      31A     -0.659953    32A     -0.643326    33A     -0.631878
      34A     -0.617377    35A     -0.613639    36A     -0.592720
      37A     -0.579106    38A     -0.562354    39A     -0.542795
      40A     -0.534552    41A     -0.518806    42A     -0.499867
      43A     -0.482915    44A     -0.478677    45A     -0.471316
      46A     -0.464701    47A     -0.449575

  @DF-RHF Final Energy:  -682.43957908541552

   => Energetics <=

    Nuclear Repulsion Energy =            797.7810129954624472
    One-Electron Energy =               -2522.0331263654370559
    Two-Electron Energy =                1041.8125342845592058
    Total Energy =                       -682.4395790854155166
  Basis Set: (AUG-CC-PVTZ AUX)
    Blend: AUG-CC-PVTZ-RI
    Molecular point group: c1

    Geometry (in Angstrom), charge = 0, multiplicity = 1:

       Center              X                  Y                   Z               Mass
    ------------   -----------------  -----------------  -----------------  -----------------
         O            0.355840959070    -1.600481470742    -0.154412388713    15.994914619570
         O            1.395420259070     2.079604129258    -0.419625788713    15.994914619570
         O           -1.231427740930     2.364553129258     0.466423211287    15.994914619570
         O           -2.905689740930     0.072573129258    -0.168549788713    15.994914619570
         O            2.912679259070    -0.671275870742     0.956513211287    15.994914619570
         O           -1.673597740930    -2.341673870742     0.005529211287    15.994914619570
         C            0.679035259070     0.944473129258     0.070043211287    12.000000000000
         C           -0.790767740930     1.196088129258    -0.202069788713    12.000000000000
         C            1.120347259070    -0.319874870742    -0.644735788713    12.000000000000
         C           -1.586229740930     0.023810129258     0.329357211287    12.000000000000
         C            2.579812259070    -0.659758870742    -0.426795788713    12.000000000000
         C           -0.975144740930    -1.345641870742     0.011968211287    12.000000000000
         H            0.830588259070     0.821737129258     1.149607211287     1.007825032230
         H           -0.951463740930     1.276692129258    -1.289445788713     1.007825032230
         H            0.919206259070    -0.227749870742    -1.721109788713     1.007825032230
         H           -1.573183740930     0.104860129258     1.431333211287     1.007825032230
         H            3.201059259070     0.108339129258    -0.893638788713     1.007825032230
         H            2.802334259070    -1.620939870742    -0.907834788713     1.007825032230
         H            2.211482259070     2.154084129258     0.105854211287     1.007825032230
         H           -0.609311740930     3.063584129258     0.189478211287     1.007825032230
         H           -3.267747740930    -0.825622870742    -0.035788788713     1.007825032230
         H            2.408245259070    -1.404412870742     1.352626211287     1.007825032230

  Basis Set: AUG-CC-PVTZ
    Blend: AUG-CC-PVTZ
  Basis Set: (AUG-CC-PVTZ AUX)
    Blend: AUG-CC-PVTZ-JKFIT
	 Reference Energy          =    -682.4395790854155166 [Eh]
	 Singles Energy            =      -0.0000000000000000 [Eh]
	 Same-Spin Energy          =      -0.6634022014722361 [Eh]
	 Opposite-Spin Energy      =      -2.0144883212614273 [Eh]
	 Correlation Energy        =      -2.6778905227336631 [Eh]
	 Total Energy              =    -685.1174696081492357 [Eh]

	 ================> DF-SCS-MP2 Energies <==================
	-----------------------------------------------------------
	 SCS Same-Spin Scale       =       0.3333333333333333 [-]
	 SCS Opposite-Spin Scale   =       1.2000000000000000 [-]
	 SCS Same-Spin Energy      =      -0.2211340671574120 [Eh]
	 SCS Opposite-Spin Energy  =      -2.4173859855137128 [Eh]
	 SCS Correlation Energy    =      -2.6385200526711245 [Eh]
	 SCS Total Energy          =    -685.0780991380865999 [Eh]
	-----------------------------------------------------------

  Dipole Moment: [D]
     X:     3.5501      Y:     0.9830      Z:    -0.2568     Total:     3.6926

*** Psi4 exiting successfully. Buy a developer a beer!
