                               Psi4 1.4a3.dev225

  ==> Input File <==

--------------------------------------------------------------------------
#psi4
#
memory 32 gb

molecule  {
0 1
  O        0.3445260    -1.4915130    -0.1284710
  O        1.3620620     2.0495660    -0.4184890
  O       -1.2647860     2.3345150     0.4675600
  O       -2.9390480     0.0425350    -0.1674130
  O        2.8793210    -0.7013140     0.9576500
  O       -1.7069560    -2.3717120     0.0066660
  C        0.6456770     0.9144350     0.0711800
  C       -0.8241260     1.1660500    -0.2009330
  C        1.0869890    -0.3499130    -0.6435990
  C       -1.6195880    -0.0062280     0.3304940
  C        2.5464540    -0.6897970    -0.4256590
  C       -0.9970203    -1.3593051     0.0132109
  H        0.7972300     0.7916990     1.1507440
  H       -0.9848220     1.2466540    -1.2883090
  H        0.8858480    -0.2577880    -1.7199730
  H       -1.6065420     0.0748220     1.4324700
  H        3.1677010     0.0783010    -0.8925020
  H        2.7689760    -1.6509780    -0.9066980
  H        2.1781240     2.1240460     0.1069910
  H       -0.6426700     3.0335460     0.1906150
  H       -3.3011060    -0.8556610    -0.0346520
  H        2.3748870    -1.4344510     1.3537630
units angstrom
no_reorient  #important for SAPT in psi4, default
symmetry c1  #important for SAPT in psi4, default
}

set PROPERTIES_ORIGIN ["COM"]
properties('MP2/aug-cc-pvtz', properties = ['dipole'])
--------------------------------------------------------------------------

    Molecular point group: c1
  Charge       = 0
  Multiplicity = 1
  Basis Set: AUG-CC-PVTZ
    Blend: AUG-CC-PVTZ
  Basis Set: (AUG-CC-PVTZ AUX)
    Blend: AUG-CC-PVTZ-JKFIT

    Orbital Energies [Eh]
    ---------------------

    Doubly Occupied:

       1A    -20.633768     2A    -20.601707     3A    -20.588669
       4A    -20.575819     5A    -20.575463     6A    -20.565694
       7A    -11.408384     8A    -11.327792     9A    -11.321787
      10A    -11.315872    11A    -11.308630    12A    -11.308032
      13A     -1.479268    14A     -1.409785    15A     -1.397272
      16A     -1.385004    17A     -1.372019    18A     -1.358614
      19A     -1.100315    20A     -1.060748    21A     -0.958287
      22A     -0.878167    23A     -0.870520    24A     -0.803201
      25A     -0.763428    26A     -0.743063    27A     -0.721535
      28A     -0.708244    29A     -0.695364    30A     -0.685577
      31A     -0.662585    32A     -0.642240    33A     -0.629136
      34A     -0.618037    35A     -0.615864    36A     -0.590500
      37A     -0.582728    38A     -0.560752    39A     -0.541975
      40A     -0.533639    41A     -0.519792    42A     -0.500974
      43A     -0.483598    44A     -0.478108    45A     -0.471412
      46A     -0.465459    47A     -0.447149

  @DF-RHF Final Energy:  -682.45217038188650

   => Energetics <=

    Nuclear Repulsion Energy =            801.5166984480347310
    One-Electron Energy =               -2529.4057847359335938
    Two-Electron Energy =                1045.4369159060124730
    Total Energy =                       -682.4521703818863898
  Basis Set: (AUG-CC-PVTZ AUX)
    Blend: AUG-CC-PVTZ-RI
    Molecular point group: c1

    Geometry (in Angstrom), charge = 0, multiplicity = 1:

       Center              X                  Y                   Z               Mass
    ------------   -----------------  -----------------  -----------------  -----------------
         O            0.375130092649    -1.475066155446    -0.131843246818    15.994914619570
         O            1.392666092649     2.066012844554    -0.421861246818    15.994914619570
         O           -1.234181907351     2.350961844554     0.464187753182    15.994914619570
         O           -2.908443907351     0.058981844554    -0.170785246818    15.994914619570
         O            2.909925092649    -0.684867155446     0.954277753182    15.994914619570
         O           -1.676351907351    -2.355265155446     0.003293753182    15.994914619570
         C            0.676281092649     0.930881844554     0.067807753182    12.000000000000
         C           -0.793521907351     1.182496844554    -0.204305246818    12.000000000000
         C            1.117593092649    -0.333466155446    -0.646971246818    12.000000000000
         C           -1.588983907351     0.010218844554     0.327121753182    12.000000000000
         C            2.577058092649    -0.673350155446    -0.429031246818    12.000000000000
         C           -0.966416207351    -1.342858255446     0.009838653182    12.000000000000
         H            0.827834092649     0.808145844554     1.147371753182     1.007825032230
         H           -0.954217907351     1.263100844554    -1.291681246818     1.007825032230
         H            0.916452092649    -0.241341155446    -1.723345246818     1.007825032230
         H           -1.575937907351     0.091268844554     1.429097753182     1.007825032230
         H            3.198305092649     0.094747844554    -0.895874246818     1.007825032230
         H            2.799580092649    -1.634531155446    -0.910070246818     1.007825032230
         H            2.208728092649     2.140492844554     0.103618753182     1.007825032230
         H           -0.612065907351     3.049992844554     0.187242753182     1.007825032230
         H           -3.270501907351    -0.839214155446    -0.038024246818     1.007825032230
         H            2.405491092649    -1.418004155446     1.350390753182     1.007825032230

  Basis Set: AUG-CC-PVTZ
    Blend: AUG-CC-PVTZ
  Basis Set: (AUG-CC-PVTZ AUX)
    Blend: AUG-CC-PVTZ-JKFIT
	 Reference Energy          =    -682.4521703818865035 [Eh]
	 Singles Energy            =      -0.0000000000000000 [Eh]
	 Same-Spin Energy          =      -0.6629907950133461 [Eh]
	 Opposite-Spin Energy      =      -2.0118794026080784 [Eh]
	 Correlation Energy        =      -2.6748701976214244 [Eh]
	 Total Energy              =    -685.1270405795079341 [Eh]

	 ================> DF-SCS-MP2 Energies <==================
	-----------------------------------------------------------
	 SCS Same-Spin Scale       =       0.3333333333333333 [-]
	 SCS Opposite-Spin Scale   =       1.2000000000000000 [-]
	 SCS Same-Spin Energy      =      -0.2209969316711154 [Eh]
	 SCS Opposite-Spin Energy  =      -2.4142552831296942 [Eh]
	 SCS Correlation Energy    =      -2.6352522148008095 [Eh]
	 SCS Total Energy          =    -685.0874225966873610 [Eh]
	-----------------------------------------------------------

  Dipole Moment: [D]
     X:     3.5192      Y:     0.6788      Z:    -0.2669     Total:     3.5940

*** Psi4 exiting successfully. Buy a developer a beer!
