                               Psi4 1.4a3.dev225

  ==> Input File <==

--------------------------------------------------------------------------
#psi4
#
memory 32 gb

molecule  {
0 1
  O        0.3445260    -1.4915130    -0.1284710
  O        1.3620620     2.0495660    -0.4184890
  O       -1.2647860     2.3345150     0.4675600
  O       -2.9390480     0.0425350    -0.1674130
  O        2.8793210    -0.7013140     0.9576500
  O       -1.7069560    -2.3717120     0.0066660
  C        0.6456770     0.9144350     0.0711800
  C       -0.8241260     1.1660500    -0.2009330
  C        1.0869890    -0.3499130    -0.6435990
  C       -1.6195880    -0.0062280     0.3304940
  C        2.4996649    -0.6881781    -0.6201022
  C       -1.0085030    -1.3756800     0.0131050
  H        0.7972300     0.7916990     1.1507440
  H       -0.9848220     1.2466540    -1.2883090
  H        0.8858480    -0.2577880    -1.7199730
  H       -1.6065420     0.0748220     1.4324700
  H        3.1677010     0.0783010    -0.8925020
  H        2.7689760    -1.6509780    -0.9066980
  H        2.1781240     2.1240460     0.1069910
  H       -0.6426700     3.0335460     0.1906150
  H       -3.3011060    -0.8556610    -0.0346520
  H        2.3748870    -1.4344510     1.3537630
units angstrom
no_reorient  #important for SAPT in psi4, default
symmetry c1  #important for SAPT in psi4, default
}

set PROPERTIES_ORIGIN ["COM"]
properties('MP2/aug-cc-pvtz', properties = ['dipole'])
--------------------------------------------------------------------------

    Molecular point group: c1
  Charge       = 0
  Multiplicity = 1
  Basis Set: AUG-CC-PVTZ
    Blend: AUG-CC-PVTZ
  Basis Set: (AUG-CC-PVTZ AUX)
    Blend: AUG-CC-PVTZ-JKFIT

    Orbital Energies [Eh]
    ---------------------

    Doubly Occupied:

       1A    -20.633763     2A    -20.602728     3A    -20.576988
       4A    -20.576974     5A    -20.571553     6A    -20.564602
       7A    -11.409761     8A    -11.332795     9A    -11.322882
      10A    -11.318731    11A    -11.312884    12A    -11.309697
      13A     -1.480631    14A     -1.411019    15A     -1.398683
      16A     -1.377920    17A     -1.365507    18A     -1.320366
      19A     -1.107271    20A     -1.072105    21A     -0.967055
      22A     -0.880309    23A     -0.871272    24A     -0.804534
      25A     -0.767003    26A     -0.743317    27A     -0.716409
      28A     -0.703799    29A     -0.696838    30A     -0.675654
      31A     -0.665243    32A     -0.645157    33A     -0.632312
      34A     -0.618786    35A     -0.604641    36A     -0.590778
      37A     -0.581103    38A     -0.560638    39A     -0.542169
      40A     -0.526584    41A     -0.510965    42A     -0.502952
      43A     -0.483872    44A     -0.478915    45A     -0.472459
      46A     -0.466370    47A     -0.451863

  @DF-RHF Final Energy:  -682.42284534963142

   => Energetics <=

    Nuclear Repulsion Energy =            800.0614896851091089
    One-Electron Energy =               -2526.5129481855706217
    Two-Electron Energy =                1044.0286131508300969
    Total Energy =                       -682.4228453496314160
  Basis Set: (AUG-CC-PVTZ AUX)
    Blend: AUG-CC-PVTZ-RI
    Molecular point group: c1

    Geometry (in Angstrom), charge = 0, multiplicity = 1:

       Center              X                  Y                   Z               Mass
    ------------   -----------------  -----------------  -----------------  -----------------
         O            0.379057475315    -1.474071635650    -0.118731093720    15.994914619570
         O            1.396593475315     2.067007364350    -0.408749093720    15.994914619570
         O           -1.230254524685     2.351956364350     0.477299906280    15.994914619570
         O           -2.904516524685     0.059976364350    -0.157673093720    15.994914619570
         O            2.913852475315    -0.683872635650     0.967389906280    15.994914619570
         O           -1.672424524685    -2.354270635650     0.016405906280    15.994914619570
         C            0.680208475315     0.931876364350     0.080919906280    12.000000000000
         C           -0.789594524685     1.183491364350    -0.191193093720    12.000000000000
         C            1.121520475315    -0.332471635650    -0.633859093720    12.000000000000
         C           -1.585056524685     0.011213364350     0.340233906280    12.000000000000
         C            2.534196375315    -0.670736735650    -0.610362293720    12.000000000000
         C           -0.973971524685    -1.358238635650     0.022844906280    12.000000000000
         H            0.831761475315     0.809140364350     1.160483906280     1.007825032230
         H           -0.950290524685     1.264095364350    -1.278569093720     1.007825032230
         H            0.920379475315    -0.240346635650    -1.710233093720     1.007825032230
         H           -1.572010524685     0.092263364350     1.442209906280     1.007825032230
         H            3.202232475315     0.095742364350    -0.882762093720     1.007825032230
         H            2.803507475315    -1.633536635650    -0.896958093720     1.007825032230
         H            2.212655475315     2.141487364350     0.116730906280     1.007825032230
         H           -0.608138524685     3.050987364350     0.200354906280     1.007825032230
         H           -3.266574524685    -0.838219635650    -0.024912093720     1.007825032230
         H            2.409418475315    -1.417009635650     1.363502906280     1.007825032230

  Basis Set: AUG-CC-PVTZ
    Blend: AUG-CC-PVTZ
  Basis Set: (AUG-CC-PVTZ AUX)
    Blend: AUG-CC-PVTZ-JKFIT
	 Reference Energy          =    -682.4228453496314160 [Eh]
	 Singles Energy            =      -0.0000000000000000 [Eh]
	 Same-Spin Energy          =      -0.6637023819346569 [Eh]
	 Opposite-Spin Energy      =      -2.0155828729389942 [Eh]
	 Correlation Energy        =      -2.6792852548736512 [Eh]
	 Total Energy              =    -685.1021306045050778 [Eh]

	 ================> DF-SCS-MP2 Energies <==================
	-----------------------------------------------------------
	 SCS Same-Spin Scale       =       0.3333333333333333 [-]
	 SCS Opposite-Spin Scale   =       1.2000000000000000 [-]
	 SCS Same-Spin Energy      =      -0.2212341273115523 [Eh]
	 SCS Opposite-Spin Energy  =      -2.4186994475267931 [Eh]
	 SCS Correlation Energy    =      -2.6399335748383455 [Eh]
	 SCS Total Energy          =    -685.0627789244697396 [Eh]
	-----------------------------------------------------------

  Dipole Moment: [D]
     X:     3.1399      Y:     0.6579      Z:    -0.8074     Total:     3.3081

*** Psi4 exiting successfully. Buy a developer a beer!
