                               Psi4 1.4a3.dev225

  ==> Input File <==

--------------------------------------------------------------------------
#psi4
#
memory 32 gb

molecule  {
0 1
  O        0.3445260    -1.4915130    -0.1284710
  O        1.3620620     2.0495660    -0.4184890
  O       -1.2647860     2.3345150     0.4675600
  O       -2.9390480     0.0425350    -0.1674130
  O        2.8793210    -0.7013140     0.9576500
  O       -1.7069560    -2.3717120     0.0066660
  C        0.6456770     0.9144350     0.0711800
  C       -0.8241260     1.1660500    -0.2009330
  C        1.0869890    -0.3499130    -0.6435990
  C       -1.6195880    -0.0062280     0.3304940
  C        2.5464540    -0.6897970    -0.4256590
  C       -1.0085030    -1.3756800     0.0131050
  H        0.7972300     0.7916990     1.1507440
  H       -0.9848220     1.2466540    -1.2883090
  H        0.8858480    -0.2577880    -1.7199730
  H       -1.6077226     0.0674874     1.3327463
  H        3.1677010     0.0783010    -0.8925020
  H        2.7689760    -1.6509780    -0.9066980
  H        2.1781240     2.1240460     0.1069910
  H       -0.6426700     3.0335460     0.1906150
  H       -3.3011060    -0.8556610    -0.0346520
  H        2.3748870    -1.4344510     1.3537630
units angstrom
no_reorient  #important for SAPT in psi4, default
symmetry c1  #important for SAPT in psi4, default
}

set PROPERTIES_ORIGIN ["COM"]
properties('MP2/aug-cc-pvtz', properties = ['dipole'])
--------------------------------------------------------------------------

    Molecular point group: c1
  Charge       = 0
  Multiplicity = 1
  Basis Set: AUG-CC-PVTZ
    Blend: AUG-CC-PVTZ
  Basis Set: (AUG-CC-PVTZ AUX)
    Blend: AUG-CC-PVTZ-JKFIT

    Orbital Energies [Eh]
    ---------------------

    Doubly Occupied:

       1A    -20.629846     2A    -20.600761     3A    -20.587765
       4A    -20.574973     5A    -20.573766     6A    -20.569613
       7A    -11.406583     8A    -11.326359     9A    -11.314806
      10A    -11.309577    11A    -11.307610    12A    -11.306610
      13A     -1.477868    14A     -1.409467    15A     -1.399126
      16A     -1.383919    17A     -1.375019    18A     -1.362477
      19A     -1.099421    20A     -1.061258    21A     -0.960659
      22A     -0.877724    23A     -0.868927    24A     -0.805844
      25A     -0.762180    26A     -0.744788    27A     -0.721242
      28A     -0.713719    29A     -0.694895    30A     -0.686837
      31A     -0.665786    32A     -0.643822    33A     -0.628990
      34A     -0.617506    35A     -0.616132    36A     -0.590187
      37A     -0.584695    38A     -0.560067    39A     -0.541423
      40A     -0.534112    41A     -0.519715    42A     -0.504522
      43A     -0.485579    44A     -0.478777    45A     -0.473344
      46A     -0.466252    47A     -0.445847

  @DF-RHF Final Energy:  -682.44995259863595

   => Energetics <=

    Nuclear Repulsion Energy =            801.9697553217539507
    One-Electron Energy =               -2530.2986216275648985
    Two-Electron Energy =                1045.8789137071751156
    Total Energy =                       -682.4499525986359458
  Basis Set: (AUG-CC-PVTZ AUX)
    Blend: AUG-CC-PVTZ-RI
    Molecular point group: c1

    Geometry (in Angstrom), charge = 0, multiplicity = 1:

       Center              X                  Y                   Z               Mass
    ------------   -----------------  -----------------  -----------------  -----------------
         O            0.375910682393    -1.473921008668    -0.131271631350    15.994914619570
         O            1.393446682393     2.067157991332    -0.421289631350    15.994914619570
         O           -1.233401317607     2.352106991332     0.464759368650    15.994914619570
         O           -2.907663317607     0.060126991332    -0.170213631350    15.994914619570
         O            2.910705682393    -0.683722008668     0.954849368650    15.994914619570
         O           -1.675571317607    -2.354120008668     0.003865368650    15.994914619570
         C            0.677061682393     0.932026991332     0.068379368650    12.000000000000
         C           -0.792741317607     1.183641991332    -0.203733631350    12.000000000000
         C            1.118373682393    -0.332321008668    -0.646399631350    12.000000000000
         C           -1.588203317607     0.011363991332     0.327693368650    12.000000000000
         C            2.577838682393    -0.672205008668    -0.428459631350    12.000000000000
         C           -0.977118317607    -1.358088008668     0.010304368650    12.000000000000
         H            0.828614682393     0.809290991332     1.147943368650     1.007825032230
         H           -0.953437317607     1.264245991332    -1.291109631350     1.007825032230
         H            0.917232682393    -0.240196008668    -1.722773631350     1.007825032230
         H           -1.576337917607     0.085079391332     1.329945668650     1.007825032230
         H            3.199085682393     0.095892991332    -0.895302631350     1.007825032230
         H            2.800360682393    -1.633386008668    -0.909498631350     1.007825032230
         H            2.209508682393     2.141637991332     0.104190368650     1.007825032230
         H           -0.611285317607     3.051137991332     0.187814368650     1.007825032230
         H           -3.269721317607    -0.838069008668    -0.037452631350     1.007825032230
         H            2.406271682393    -1.416859008668     1.350962368650     1.007825032230

  Basis Set: AUG-CC-PVTZ
    Blend: AUG-CC-PVTZ
  Basis Set: (AUG-CC-PVTZ AUX)
    Blend: AUG-CC-PVTZ-JKFIT
	 Reference Energy          =    -682.4499525986359458 [Eh]
	 Singles Energy            =      -0.0000000000000000 [Eh]
	 Same-Spin Energy          =      -0.6622277973510620 [Eh]
	 Opposite-Spin Energy      =      -2.0101204947342328 [Eh]
	 Correlation Energy        =      -2.6723482920852950 [Eh]
	 Total Energy              =    -685.1223008907212488 [Eh]

	 ================> DF-SCS-MP2 Energies <==================
	-----------------------------------------------------------
	 SCS Same-Spin Scale       =       0.3333333333333333 [-]
	 SCS Opposite-Spin Scale   =       1.2000000000000000 [-]
	 SCS Same-Spin Energy      =      -0.2207425991170207 [Eh]
	 SCS Opposite-Spin Energy  =      -2.4121445936810795 [Eh]
	 SCS Correlation Energy    =      -2.6328871927980999 [Eh]
	 SCS Total Energy          =    -685.0828397914340258 [Eh]
	-----------------------------------------------------------

  Dipole Moment: [D]
     X:     3.4342      Y:     0.5597      Z:    -0.2427     Total:     3.4880

*** Psi4 exiting successfully. Buy a developer a beer!
