                               Psi4 1.4a3.dev225

  ==> Input File <==

--------------------------------------------------------------------------
#psi4
#
memory 32 gb

molecule  {
0 1
  O        0.3517453    -1.3512374    -0.1021152
  O        1.3620620     2.0495660    -0.4184890
  O       -1.2647860     2.3345150     0.4675600
  O       -2.9390480     0.0425350    -0.1674130
  O        2.8793210    -0.7013140     0.9576500
  O       -1.7069560    -2.3717120     0.0066660
  C        0.6456770     0.9144350     0.0711800
  C       -0.8241260     1.1660500    -0.2009330
  C        1.0869890    -0.3499130    -0.6435990
  C       -1.6195880    -0.0062280     0.3304940
  C        2.5464540    -0.6897970    -0.4256590
  C       -1.0085030    -1.3756800     0.0131050
  H        0.7972300     0.7916990     1.1507440
  H       -0.9848220     1.2466540    -1.2883090
  H        0.8858480    -0.2577880    -1.7199730
  H       -1.6065420     0.0748220     1.4324700
  H        3.1677010     0.0783010    -0.8925020
  H        2.7689760    -1.6509780    -0.9066980
  H        2.1781240     2.1240460     0.1069910
  H       -0.6426700     3.0335460     0.1906150
  H       -3.3011060    -0.8556610    -0.0346520
  H        2.3748870    -1.4344510     1.3537630
units angstrom
no_reorient  #important for SAPT in psi4, default
symmetry c1  #important for SAPT in psi4, default
}

set PROPERTIES_ORIGIN ["COM"]
properties('MP2/aug-cc-pvtz', properties = ['dipole'])
--------------------------------------------------------------------------

    Molecular point group: c1
  Charge       = 0
  Multiplicity = 1
  Basis Set: AUG-CC-PVTZ
    Blend: AUG-CC-PVTZ
  Basis Set: (AUG-CC-PVTZ AUX)
    Blend: AUG-CC-PVTZ-JKFIT

    Orbital Energies [Eh]
    ---------------------

    Doubly Occupied:

       1A    -20.628179     2A    -20.593689     3A    -20.586530
       4A    -20.581378     5A    -20.573664     6A    -20.572855
       7A    -11.417299     8A    -11.319000     9A    -11.316959
      10A    -11.306937    11A    -11.304841    12A    -11.304777
      13A     -1.498564    14A     -1.412636    15A     -1.403380
      16A     -1.383456    17A     -1.378211    18A     -1.362688
      19A     -1.092091    20A     -1.067404    21A     -0.955552
      22A     -0.886323    23A     -0.873205    24A     -0.805193
      25A     -0.760752    26A     -0.744230    27A     -0.723264
      28A     -0.711537    29A     -0.696692    30A     -0.696398
      31A     -0.663047    32A     -0.648769    33A     -0.627020
      34A     -0.615673    35A     -0.611405    36A     -0.586983
      37A     -0.585087    38A     -0.556919    39A     -0.539343
      40A     -0.533629    41A     -0.519286    42A     -0.510689
      43A     -0.484125    44A     -0.477434    45A     -0.469705
      46A     -0.462261    47A     -0.436909

  @DF-RHF Final Energy:  -682.44707441914784

   => Energetics <=

    Nuclear Repulsion Energy =            805.0916329161120757
    One-Electron Energy =               -2536.5054776845076958
    Two-Electron Energy =                1048.9667703492477813
    Total Energy =                       -682.4470744191478389
  Basis Set: (AUG-CC-PVTZ AUX)
    Blend: AUG-CC-PVTZ-RI
    Molecular point group: c1

    Geometry (in Angstrom), charge = 0, multiplicity = 1:

       Center              X                  Y                   Z               Mass
    ------------   -----------------  -----------------  -----------------  -----------------
         O            0.382474754045    -1.346288581019    -0.107847982118    15.994914619570
         O            1.392791454045     2.054514818981    -0.424221782118    15.994914619570
         O           -1.234056545955     2.339463818981     0.461827217882    15.994914619570
         O           -2.908318545955     0.047483818981    -0.173145782118    15.994914619570
         O            2.910050454045    -0.696365181019     0.951917217882    15.994914619570
         O           -1.676226545955    -2.366763181019     0.000933217882    15.994914619570
         C            0.676406454045     0.919383818981     0.065447217882    12.000000000000
         C           -0.793396545955     1.170998818981    -0.206665782118    12.000000000000
         C            1.117718454045    -0.344964181019    -0.649331782118    12.000000000000
         C           -1.588858545955    -0.001279181019     0.324761217882    12.000000000000
         C            2.577183454045    -0.684848181019    -0.431391782118    12.000000000000
         C           -0.977773545955    -1.370731181019     0.007372217882    12.000000000000
         H            0.827959454045     0.796647818981     1.145011217882     1.007825032230
         H           -0.954092545955     1.251602818981    -1.294041782118     1.007825032230
         H            0.916577454045    -0.252839181019    -1.725705782118     1.007825032230
         H           -1.575812545955     0.079770818981     1.426737217882     1.007825032230
         H            3.198430454045     0.083249818981    -0.898234782118     1.007825032230
         H            2.799705454045    -1.646029181019    -0.912430782118     1.007825032230
         H            2.208853454045     2.128994818981     0.101258217882     1.007825032230
         H           -0.611940545955     3.038494818981     0.184882217882     1.007825032230
         H           -3.270376545955    -0.850712181019    -0.040384782118     1.007825032230
         H            2.405616454045    -1.429502181019     1.348030217882     1.007825032230

  Basis Set: AUG-CC-PVTZ
    Blend: AUG-CC-PVTZ
  Basis Set: (AUG-CC-PVTZ AUX)
    Blend: AUG-CC-PVTZ-JKFIT
	 Reference Energy          =    -682.4470744191478389 [Eh]
	 Singles Energy            =      -0.0000000000000000 [Eh]
	 Same-Spin Energy          =      -0.6625108484292204 [Eh]
	 Opposite-Spin Energy      =      -2.0091723645254138 [Eh]
	 Correlation Energy        =      -2.6716832129546342 [Eh]
	 Total Energy              =    -685.1187576321025290 [Eh]

	 ================> DF-SCS-MP2 Energies <==================
	-----------------------------------------------------------
	 SCS Same-Spin Scale       =       0.3333333333333333 [-]
	 SCS Opposite-Spin Scale   =       1.2000000000000000 [-]
	 SCS Same-Spin Energy      =      -0.2208369494764068 [Eh]
	 SCS Opposite-Spin Energy  =      -2.4110068374304965 [Eh]
	 SCS Correlation Energy    =      -2.6318437869069031 [Eh]
	 SCS Total Energy          =    -685.0789182060547091 [Eh]
	-----------------------------------------------------------

  Dipole Moment: [D]
     X:     3.2202      Y:     0.1022      Z:    -0.2656     Total:     3.2327

*** Psi4 exiting successfully. Buy a developer a beer!
