                               Psi4 1.4a3.dev225

  ==> Input File <==

--------------------------------------------------------------------------
#psi4
#
memory 32 gb

molecule  {
0 1
  O        0.3509942    -1.3980421    -0.1110553
  O        1.3620620     2.0495660    -0.4184890
  O       -1.2647860     2.3345150     0.4675600
  O       -2.9390480     0.0425350    -0.1674130
  O        2.8793210    -0.7013140     0.9576500
  O       -1.7069560    -2.3717120     0.0066660
  C        0.6456770     0.9144350     0.0711800
  C       -0.8241260     1.1660500    -0.2009330
  C        1.0869890    -0.3499130    -0.6435990
  C       -1.6195880    -0.0062280     0.3304940
  C        2.5464540    -0.6897970    -0.4256590
  C       -1.0085030    -1.3756800     0.0131050
  H        0.7972300     0.7916990     1.1507440
  H       -0.9848220     1.2466540    -1.2883090
  H        0.8858480    -0.2577880    -1.7199730
  H       -1.6065420     0.0748220     1.4324700
  H        3.1677010     0.0783010    -0.8925020
  H        2.7689760    -1.6509780    -0.9066980
  H        2.1781240     2.1240460     0.1069910
  H       -0.6426700     3.0335460     0.1906150
  H       -3.3011060    -0.8556610    -0.0346520
  H        2.3748870    -1.4344510     1.3537630
units angstrom
no_reorient  #important for SAPT in psi4, default
symmetry c1  #important for SAPT in psi4, default
}

set PROPERTIES_ORIGIN ["COM"]
properties('MP2/aug-cc-pvtz', properties = ['dipole'])
--------------------------------------------------------------------------

    Molecular point group: c1
  Charge       = 0
  Multiplicity = 1
  Basis Set: AUG-CC-PVTZ
    Blend: AUG-CC-PVTZ
  Basis Set: (AUG-CC-PVTZ AUX)
    Blend: AUG-CC-PVTZ-JKFIT

    Orbital Energies [Eh]
    ---------------------

    Doubly Occupied:

       1A    -20.628978     2A    -20.596097     3A    -20.586886
       4A    -20.577345     5A    -20.574316     6A    -20.573524
       7A    -11.413693     8A    -11.321289     9A    -11.318357
      10A    -11.309553    11A    -11.305745    12A    -11.305644
      13A     -1.490828    14A     -1.408876    15A     -1.404156
      16A     -1.383478    17A     -1.377910    18A     -1.363131
      19A     -1.094040    20A     -1.064043    21A     -0.955635
      22A     -0.880549    23A     -0.874269    24A     -0.803772
      25A     -0.761393    26A     -0.743039    27A     -0.722692
      28A     -0.709998    29A     -0.696243    30A     -0.693182
      31A     -0.662967    32A     -0.646716    33A     -0.627351
      34A     -0.616438    35A     -0.612934    36A     -0.588168
      37A     -0.584590    38A     -0.558009    39A     -0.539842
      40A     -0.533947    41A     -0.519428    42A     -0.508742
      43A     -0.484027    44A     -0.477707    45A     -0.471016
      46A     -0.463437    47A     -0.440069

  @DF-RHF Final Energy:  -682.45248785808167

   => Energetics <=

    Nuclear Repulsion Energy =            803.8343068774545372
    One-Electron Energy =               -2534.0254875576429185
    Two-Electron Energy =                1047.7386928221067137
    Total Energy =                       -682.4524878580816676
  Basis Set: (AUG-CC-PVTZ AUX)
    Blend: AUG-CC-PVTZ-RI
    Molecular point group: c1

    Geometry (in Angstrom), charge = 0, multiplicity = 1:

       Center              X                  Y                   Z               Mass
    ------------   -----------------  -----------------  -----------------  -----------------
         O            0.381791129096    -1.388888581827    -0.115984948432    15.994914619570
         O            1.392858929096     2.058719518173    -0.423418648432    15.994914619570
         O           -1.233989070904     2.343668518173     0.462630351568    15.994914619570
         O           -2.908251070904     0.051688518173    -0.172342648432    15.994914619570
         O            2.910117929096    -0.692160481827     0.952720351568    15.994914619570
         O           -1.676159070904    -2.362558481827     0.001736351568    15.994914619570
         C            0.676473929096     0.923588518173     0.066250351568    12.000000000000
         C           -0.793329070904     1.175203518173    -0.205862648432    12.000000000000
         C            1.117785929096    -0.340759481827    -0.648528648432    12.000000000000
         C           -1.588791070904     0.002925518173     0.325564351568    12.000000000000
         C            2.577250929096    -0.680643481827    -0.430588648432    12.000000000000
         C           -0.977706070904    -1.366526481827     0.008175351568    12.000000000000
         H            0.828026929096     0.800852518173     1.145814351568     1.007825032230
         H           -0.954025070904     1.255807518173    -1.293238648432     1.007825032230
         H            0.916644929096    -0.248634481827    -1.724902648432     1.007825032230
         H           -1.575745070904     0.083975518173     1.427540351568     1.007825032230
         H            3.198497929096     0.087454518173    -0.897431648432     1.007825032230
         H            2.799772929096    -1.641824481827    -0.911627648432     1.007825032230
         H            2.208920929096     2.133199518173     0.102061351568     1.007825032230
         H           -0.611873070904     3.042699518173     0.185685351568     1.007825032230
         H           -3.270309070904    -0.846507481827    -0.039581648432     1.007825032230
         H            2.405683929096    -1.425297481827     1.348833351568     1.007825032230

  Basis Set: AUG-CC-PVTZ
    Blend: AUG-CC-PVTZ
  Basis Set: (AUG-CC-PVTZ AUX)
    Blend: AUG-CC-PVTZ-JKFIT
	 Reference Energy          =    -682.4524878580816676 [Eh]
	 Singles Energy            =      -0.0000000000000000 [Eh]
	 Same-Spin Energy          =      -0.6623772407795566 [Eh]
	 Opposite-Spin Energy      =      -2.0094856842737063 [Eh]
	 Correlation Energy        =      -2.6718629250532628 [Eh]
	 Total Energy              =    -685.1243507831349007 [Eh]

	 ================> DF-SCS-MP2 Energies <==================
	-----------------------------------------------------------
	 SCS Same-Spin Scale       =       0.3333333333333333 [-]
	 SCS Opposite-Spin Scale   =       1.2000000000000000 [-]
	 SCS Same-Spin Energy      =      -0.2207924135931855 [Eh]
	 SCS Opposite-Spin Energy  =      -2.4113828211284476 [Eh]
	 SCS Correlation Energy    =      -2.6321752347216330 [Eh]
	 SCS Total Energy          =    -685.0846630928033392 [Eh]
	-----------------------------------------------------------

  Dipole Moment: [D]
     X:     3.2811      Y:     0.2646      Z:    -0.2664     Total:     3.3025

*** Psi4 exiting successfully. Buy a developer a beer!
