                               Psi4 1.4a3.dev225

  ==> Input File <==

--------------------------------------------------------------------------
#psi4
#
memory 32 gb

molecule  {
0 1
  O        0.3445260    -1.4915130    -0.1284710
  O        1.3620620     2.0495660    -0.4184890
  O       -1.2647860     2.3345150     0.4675600
  O       -2.9390480     0.0425350    -0.1674130
  O        2.8793210    -0.7013140     0.9576500
  O       -1.7069560    -2.3717120     0.0066660
  C        0.6456770     0.9144350     0.0711800
  C       -0.8241260     1.1660500    -0.2009330
  C        1.0869890    -0.3499130    -0.6435990
  C       -1.6195880    -0.0062280     0.3304940
  C        2.5464540    -0.6897970    -0.4256590
  C       -1.0085030    -1.3756800     0.0131050
  H        0.7972300     0.7916990     1.1507440
  H       -0.9819059     1.2451913    -1.2685769
  H        0.8858480    -0.2577880    -1.7199730
  H       -1.6065420     0.0748220     1.4324700
  H        3.1677010     0.0783010    -0.8925020
  H        2.7689760    -1.6509780    -0.9066980
  H        2.1781240     2.1240460     0.1069910
  H       -0.6426700     3.0335460     0.1906150
  H       -3.3011060    -0.8556610    -0.0346520
  H        2.3748870    -1.4344510     1.3537630
units angstrom
no_reorient  #important for SAPT in psi4, default
symmetry c1  #important for SAPT in psi4, default
}

set PROPERTIES_ORIGIN ["COM"]
properties('MP2/aug-cc-pvtz', properties = ['dipole'])
--------------------------------------------------------------------------

    Molecular point group: c1
  Charge       = 0
  Multiplicity = 1
  Basis Set: AUG-CC-PVTZ
    Blend: AUG-CC-PVTZ
  Basis Set: (AUG-CC-PVTZ AUX)
    Blend: AUG-CC-PVTZ-JKFIT

    Orbital Energies [Eh]
    ---------------------

    Doubly Occupied:

       1A    -20.629798     2A    -20.600637     3A    -20.587632
       4A    -20.575571     5A    -20.574505     6A    -20.569268
       7A    -11.406943     8A    -11.326321     9A    -11.320995
      10A    -11.314426    11A    -11.307546    12A    -11.304983
      13A     -1.477713    14A     -1.409334    15A     -1.399175
      16A     -1.383964    17A     -1.374799    18A     -1.362775
      19A     -1.098558    20A     -1.058523    21A     -0.956464
      22A     -0.877725    23A     -0.868428    24A     -0.802354
      25A     -0.762279    26A     -0.742045    27A     -0.721125
      28A     -0.708539    29A     -0.694952    30A     -0.686403
      31A     -0.662440    32A     -0.644261    33A     -0.628928
      34A     -0.616920    35A     -0.615243    36A     -0.590314
      37A     -0.583149    38A     -0.560137    39A     -0.541263
      40A     -0.534190    41A     -0.519741    42A     -0.504340
      43A     -0.484111    44A     -0.478340    45A     -0.473228
      46A     -0.465051    47A     -0.445138

  @DF-RHF Final Energy:  -682.45500452145097

   => Energetics <=

    Nuclear Repulsion Energy =            801.4724365189694026
    One-Electron Energy =               -2529.3537368834195149
    Two-Electron Energy =                1045.4262958429990249
    Total Energy =                       -682.4550045214509737
  Basis Set: (AUG-CC-PVTZ AUX)
    Blend: AUG-CC-PVTZ-RI
    Molecular point group: c1

    Geometry (in Angstrom), charge = 0, multiplicity = 1:

       Center              X                  Y                   Z               Mass
    ------------   -----------------  -----------------  -----------------  -----------------
         O            0.375887493349    -1.473954246090    -0.131947801386    15.994914619570
         O            1.393423493349     2.067124753910    -0.421965801386    15.994914619570
         O           -1.233424506651     2.352073753910     0.464083198614    15.994914619570
         O           -2.907686506651     0.060093753910    -0.170889801386    15.994914619570
         O            2.910682493349    -0.683755246090     0.954173198614    15.994914619570
         O           -1.675594506651    -2.354153246090     0.003189198614    15.994914619570
         C            0.677038493349     0.931993753910     0.067703198614    12.000000000000
         C           -0.792764506651     1.183608753910    -0.204409801386    12.000000000000
         C            1.118350493349    -0.332354246090    -0.647075801386    12.000000000000
         C           -1.588226506651     0.011330753910     0.327017198614    12.000000000000
         C            2.577815493349    -0.672238246090    -0.429135801386    12.000000000000
         C           -0.977141506651    -1.358121246090     0.009628198614    12.000000000000
         H            0.828591493349     0.809257753910     1.147267198614     1.007825032230
         H           -0.950544406651     1.262750053910    -1.272053701386     1.007825032230
         H            0.917209493349    -0.240229246090    -1.723449801386     1.007825032230
         H           -1.575180506651     0.092380753910     1.428993198614     1.007825032230
         H            3.199062493349     0.095859753910    -0.895978801386     1.007825032230
         H            2.800337493349    -1.633419246090    -0.910174801386     1.007825032230
         H            2.209485493349     2.141604753910     0.103514198614     1.007825032230
         H           -0.611308506651     3.051104753910     0.187138198614     1.007825032230
         H           -3.269744506651    -0.838102246090    -0.038128801386     1.007825032230
         H            2.406248493349    -1.416892246090     1.350286198614     1.007825032230

  Basis Set: AUG-CC-PVTZ
    Blend: AUG-CC-PVTZ
  Basis Set: (AUG-CC-PVTZ AUX)
    Blend: AUG-CC-PVTZ-JKFIT
	 Reference Energy          =    -682.4550045214509737 [Eh]
	 Singles Energy            =      -0.0000000000000000 [Eh]
	 Same-Spin Energy          =      -0.6624017752336006 [Eh]
	 Opposite-Spin Energy      =      -2.0106397358066839 [Eh]
	 Correlation Energy        =      -2.6730415110402843 [Eh]
	 Total Energy              =    -685.1280460324912838 [Eh]

	 ================> DF-SCS-MP2 Energies <==================
	-----------------------------------------------------------
	 SCS Same-Spin Scale       =       0.3333333333333333 [-]
	 SCS Opposite-Spin Scale   =       1.2000000000000000 [-]
	 SCS Same-Spin Energy      =      -0.2208005917445335 [Eh]
	 SCS Opposite-Spin Energy  =      -2.4127676829680205 [Eh]
	 SCS Correlation Energy    =      -2.6335682747125539 [Eh]
	 SCS Total Energy          =    -685.0885727961634757 [Eh]
	-----------------------------------------------------------

  Dipole Moment: [D]
     X:     3.3979      Y:     0.5684      Z:    -0.2756     Total:     3.4561

*** Psi4 exiting successfully. Buy a developer a beer!
