                               Psi4 1.4a3.dev225

  ==> Input File <==

--------------------------------------------------------------------------
#psi4
#
memory 32 gb

molecule  {
0 1
  O        0.3445260    -1.4915130    -0.1284710
  O        1.3620620     2.0495660    -0.4184890
  O       -1.2647860     2.3345150     0.4675600
  O       -2.9390480     0.0425350    -0.1674130
  O        2.8793210    -0.7013140     0.9576500
  O       -1.7069560    -2.3717120     0.0066660
  C        0.6456770     0.9144350     0.0711800
  C       -0.8241260     1.1660500    -0.2009330
  C        1.0869890    -0.3499130    -0.6435990
  C       -1.6195880    -0.0062280     0.3304940
  C        2.5464540    -0.6897970    -0.4256590
  C       -0.9287699    -1.5543631    -0.0283072
  H        0.7972300     0.7916990     1.1507440
  H       -0.9848220     1.2466540    -1.2883090
  H        0.8858480    -0.2577880    -1.7199730
  H       -1.6065420     0.0748220     1.4324700
  H        3.1677010     0.0783010    -0.8925020
  H        2.7689760    -1.6509780    -0.9066980
  H        2.1781240     2.1240460     0.1069910
  H       -0.6426700     3.0335460     0.1906150
  H       -3.3011060    -0.8556610    -0.0346520
  H        2.3748870    -1.4344510     1.3537630
units angstrom
no_reorient  #important for SAPT in psi4, default
symmetry c1  #important for SAPT in psi4, default
}

set PROPERTIES_ORIGIN ["COM"]
properties('MP2/aug-cc-pvtz', properties = ['dipole'])
--------------------------------------------------------------------------

    Molecular point group: c1
  Charge       = 0
  Multiplicity = 1
  Basis Set: AUG-CC-PVTZ
    Blend: AUG-CC-PVTZ
  Basis Set: (AUG-CC-PVTZ AUX)
    Blend: AUG-CC-PVTZ-JKFIT

    Orbital Energies [Eh]
    ---------------------

    Doubly Occupied:

       1A    -20.636055     2A    -20.598686     3A    -20.591212
       4A    -20.573329     5A    -20.564916     6A    -20.561833
       7A    -11.398910     8A    -11.336685     9A    -11.312432
      10A    -11.311506    11A    -11.299782    12A    -11.294237
      13A     -1.518042    14A     -1.444837    15A     -1.404910
      16A     -1.389579    17A     -1.372322    18A     -1.353731
      19A     -1.103770    20A     -1.043139    21A     -0.937957
      22A     -0.887276    23A     -0.848570    24A     -0.801832
      25A     -0.755626    26A     -0.741926    27A     -0.724252
      28A     -0.711165    29A     -0.705077    30A     -0.691830
      31A     -0.664475    32A     -0.647400    33A     -0.636328
      34A     -0.622338    35A     -0.610882    36A     -0.592115
      37A     -0.580476    38A     -0.556082    39A     -0.540696
      40A     -0.537975    41A     -0.522868    42A     -0.520338
      43A     -0.489269    44A     -0.474815    45A     -0.463451
      46A     -0.453058    47A     -0.399535

  @DF-RHF Final Energy:  -682.42585170363282

   => Energetics <=

    Nuclear Repulsion Energy =            800.7646409501788867
    One-Electron Energy =               -2527.9259302123082307
    Two-Electron Energy =                1044.7354375584964146
    Total Energy =                       -682.4258517036328158
  Basis Set: (AUG-CC-PVTZ AUX)
    Blend: AUG-CC-PVTZ-RI
    Molecular point group: c1

    Geometry (in Angstrom), charge = 0, multiplicity = 1:

       Center              X                  Y                   Z               Mass
    ------------   -----------------  -----------------  -----------------  -----------------
         O            0.370530175745    -1.461919703681    -0.129045024243    15.994914619570
         O            1.388066175745     2.079159296319    -0.419063024243    15.994914619570
         O           -1.238781824255     2.364108296319     0.466985975757    15.994914619570
         O           -2.913043824255     0.072128296319    -0.167987024243    15.994914619570
         O            2.905325175745    -0.671720703681     0.957075975757    15.994914619570
         O           -1.680951824255    -2.342118703681     0.006091975757    15.994914619570
         C            0.671681175745     0.944028296319     0.070605975757    12.000000000000
         C           -0.798121824255     1.195643296319    -0.201507024243    12.000000000000
         C            1.112993175745    -0.320319703681    -0.644173024243    12.000000000000
         C           -1.593583824255     0.023365296319     0.329919975757    12.000000000000
         C            2.572458175745    -0.660203703681    -0.426233024243    12.000000000000
         C           -0.902765724255    -1.524769803681    -0.028881224243    12.000000000000
         H            0.823234175745     0.821292296319     1.150169975757     1.007825032230
         H           -0.958817824255     1.276247296319    -1.288883024243     1.007825032230
         H            0.911852175745    -0.228194703681    -1.720547024243     1.007825032230
         H           -1.580537824255     0.104415296319     1.431895975757     1.007825032230
         H            3.193705175745     0.107894296319    -0.893076024243     1.007825032230
         H            2.794980175745    -1.621384703681    -0.907272024243     1.007825032230
         H            2.204128175745     2.153639296319     0.106416975757     1.007825032230
         H           -0.616665824255     3.063139296319     0.190040975757     1.007825032230
         H           -3.275101824255    -0.826067703681    -0.035226024243     1.007825032230
         H            2.400891175745    -1.404857703681     1.353188975757     1.007825032230

  Basis Set: AUG-CC-PVTZ
    Blend: AUG-CC-PVTZ
  Basis Set: (AUG-CC-PVTZ AUX)
    Blend: AUG-CC-PVTZ-JKFIT
	 Reference Energy          =    -682.4258517036328158 [Eh]
	 Singles Energy            =      -0.0000000000000000 [Eh]
	 Same-Spin Energy          =      -0.6602189284196639 [Eh]
	 Opposite-Spin Energy      =      -2.0054540260456184 [Eh]
	 Correlation Energy        =      -2.6656729544652822 [Eh]
	 Total Energy              =    -685.0915246580981375 [Eh]

	 ================> DF-SCS-MP2 Energies <==================
	-----------------------------------------------------------
	 SCS Same-Spin Scale       =       0.3333333333333333 [-]
	 SCS Opposite-Spin Scale   =       1.2000000000000000 [-]
	 SCS Same-Spin Energy      =      -0.2200729761398880 [Eh]
	 SCS Opposite-Spin Energy  =      -2.4065448312547422 [Eh]
	 SCS Correlation Energy    =      -2.6266178073946302 [Eh]
	 SCS Total Energy          =    -685.0524695110274251 [Eh]
	-----------------------------------------------------------

  Dipole Moment: [D]
     X:     3.9931      Y:    -0.3610      Z:    -0.5201     Total:     4.0430

*** Psi4 exiting successfully. Buy a developer a beer!
