                               Psi4 1.4a3.dev225

  ==> Input File <==

--------------------------------------------------------------------------
#psi4
#
memory 32 gb

molecule  {
0 1
  O        0.3445260    -1.4915130    -0.1284710
  O        1.3620620     2.0495660    -0.4184890
  O       -1.2214632     2.2693881     0.5935119
  O       -2.9390480     0.0425350    -0.1674130
  O        2.8793210    -0.7013140     0.9576500
  O       -1.7069560    -2.3717120     0.0066660
  C        0.6456770     0.9144350     0.0711800
  C       -0.8241260     1.1660500    -0.2009330
  C        1.0869890    -0.3499130    -0.6435990
  C       -1.6195880    -0.0062280     0.3304940
  C        2.5464540    -0.6897970    -0.4256590
  C       -1.0085030    -1.3756800     0.0131050
  H        0.7972300     0.7916990     1.1507440
  H       -0.9848220     1.2466540    -1.2883090
  H        0.8858480    -0.2577880    -1.7199730
  H       -1.6065420     0.0748220     1.4324700
  H        3.1677010     0.0783010    -0.8925020
  H        2.7689760    -1.6509780    -0.9066980
  H        2.1781240     2.1240460     0.1069910
  H       -0.6426700     3.0335460     0.1906150
  H       -3.3011060    -0.8556610    -0.0346520
  H        2.3748870    -1.4344510     1.3537630
units angstrom
no_reorient  #important for SAPT in psi4, default
symmetry c1  #important for SAPT in psi4, default
}

set PROPERTIES_ORIGIN ["COM"]
properties('MP2/aug-cc-pvtz', properties = ['dipole'])
--------------------------------------------------------------------------

    Molecular point group: c1
  Charge       = 0
  Multiplicity = 1
  Basis Set: AUG-CC-PVTZ
    Blend: AUG-CC-PVTZ
  Basis Set: (AUG-CC-PVTZ AUX)
    Blend: AUG-CC-PVTZ-JKFIT

    Orbital Energies [Eh]
    ---------------------

    Doubly Occupied:

       1A    -20.628463     2A    -20.599715     3A    -20.586580
       4A    -20.582682     5A    -20.575113     6A    -20.567760
       7A    -11.404915     8A    -11.324418     9A    -11.319015
      10A    -11.311881    11A    -11.307113    12A    -11.306341
      13A     -1.476331    14A     -1.407734    15A     -1.397891
      16A     -1.382974    17A     -1.371953    18A     -1.358531
      19A     -1.095126    20A     -1.055893    21A     -0.955401
      22A     -0.872722    23A     -0.866668    24A     -0.801142
      25A     -0.760793    26A     -0.740900    27A     -0.719331
      28A     -0.708353    29A     -0.688819    30A     -0.683895
      31A     -0.655408    32A     -0.642624    33A     -0.627700
      34A     -0.615490    35A     -0.611791    36A     -0.590032
      37A     -0.582404    38A     -0.557604    39A     -0.542887
      40A     -0.531407    41A     -0.520091    42A     -0.503164
      43A     -0.481264    44A     -0.480092    45A     -0.475196
      46A     -0.462740    47A     -0.441579

  @DF-RHF Final Energy:  -682.44391127490667

   => Energetics <=

    Nuclear Repulsion Energy =            802.1049536830258830
    One-Electron Energy =               -2530.7378783024596487
    Two-Electron Energy =                1046.1890133445269839
    Total Energy =                       -682.4439112749066680
  Basis Set: (AUG-CC-PVTZ AUX)
    Blend: AUG-CC-PVTZ-RI
    Molecular point group: c1

    Geometry (in Angstrom), charge = 0, multiplicity = 1:

       Center              X                  Y                   Z               Mass
    ------------   -----------------  -----------------  -----------------  -----------------
         O            0.372012096918    -1.468111851962    -0.143150995565    15.994914619570
         O            1.389548096918     2.072967148038    -0.433168995565    15.994914619570
         O           -1.193977103082     2.292789248038     0.578831904435    15.994914619570
         O           -2.911561903082     0.065936148038    -0.182092995565    15.994914619570
         O            2.906807096918    -0.677912851962     0.942970004435    15.994914619570
         O           -1.679469903082    -2.348310851962    -0.008013995565    15.994914619570
         C            0.673163096918     0.937836148038     0.056500004435    12.000000000000
         C           -0.796639903082     1.189451148038    -0.215612995565    12.000000000000
         C            1.114475096918    -0.326511851962    -0.658278995565    12.000000000000
         C           -1.592101903082     0.017173148038     0.315814004435    12.000000000000
         C            2.573940096918    -0.666395851962    -0.440338995565    12.000000000000
         C           -0.981016903082    -1.352278851962    -0.001574995565    12.000000000000
         H            0.824716096918     0.815100148038     1.136064004435     1.007825032230
         H           -0.957335903082     1.270055148038    -1.302988995565     1.007825032230
         H            0.913334096918    -0.234386851962    -1.734652995565     1.007825032230
         H           -1.579055903082     0.098223148038     1.417790004435     1.007825032230
         H            3.195187096918     0.101702148038    -0.907181995565     1.007825032230
         H            2.796462096918    -1.627576851962    -0.921377995565     1.007825032230
         H            2.205610096918     2.147447148038     0.092311004435     1.007825032230
         H           -0.615183903082     3.056947148038     0.175935004435     1.007825032230
         H           -3.273619903082    -0.832259851962    -0.049331995565     1.007825032230
         H            2.402373096918    -1.411049851962     1.339083004435     1.007825032230

  Basis Set: AUG-CC-PVTZ
    Blend: AUG-CC-PVTZ
  Basis Set: (AUG-CC-PVTZ AUX)
    Blend: AUG-CC-PVTZ-JKFIT
	 Reference Energy          =    -682.4439112749066680 [Eh]
	 Singles Energy            =      -0.0000000000000000 [Eh]
	 Same-Spin Energy          =      -0.6636599863476285 [Eh]
	 Opposite-Spin Energy      =      -2.0136488848307215 [Eh]
	 Correlation Energy        =      -2.6773088711783499 [Eh]
	 Total Energy              =    -685.1212201460849656 [Eh]

	 ================> DF-SCS-MP2 Energies <==================
	-----------------------------------------------------------
	 SCS Same-Spin Scale       =       0.3333333333333333 [-]
	 SCS Opposite-Spin Scale   =       1.2000000000000000 [-]
	 SCS Same-Spin Energy      =      -0.2212199954492095 [Eh]
	 SCS Opposite-Spin Energy  =      -2.4163786617968657 [Eh]
	 SCS Correlation Energy    =      -2.6375986572460750 [Eh]
	 SCS Total Energy          =    -685.0815099321526986 [Eh]
	-----------------------------------------------------------

  Dipole Moment: [D]
     X:     3.2357      Y:     0.7649      Z:    -0.4762     Total:     3.3588

*** Psi4 exiting successfully. Buy a developer a beer!
