                               Psi4 1.4a3.dev225

  ==> Input File <==

--------------------------------------------------------------------------
#psi4
#
memory 32 gb

molecule  {
0 1
  O        0.3445260    -1.4915130    -0.1284710
  O        1.3620620     2.0495660    -0.4184890
  O       -1.2647860     2.3345150     0.4675600
  O       -2.9390480     0.0425350    -0.1674130
  O        2.8793210    -0.7013140     0.9576500
  O       -1.7069560    -2.3717120     0.0066660
  C        0.6456770     0.9144350     0.0711800
  C       -0.8241260     1.1660500    -0.2009330
  C        1.0869890    -0.3499130    -0.6435990
  C       -1.6195880    -0.0062280     0.3304940
  C        2.5464540    -0.6897970    -0.4256590
  C       -1.0085030    -1.3756800     0.0131050
  H        0.7972300     0.7916990     1.1507440
  H       -0.9848220     1.2466540    -1.2883090
  H        0.8858480    -0.2577880    -1.7199730
  H       -1.6071323     0.0711547     1.3826082
  H        3.1677010     0.0783010    -0.8925020
  H        2.7689760    -1.6509780    -0.9066980
  H        2.1781240     2.1240460     0.1069910
  H       -0.6426700     3.0335460     0.1906150
  H       -3.3011060    -0.8556610    -0.0346520
  H        2.3748870    -1.4344510     1.3537630
units angstrom
no_reorient  #important for SAPT in psi4, default
symmetry c1  #important for SAPT in psi4, default
}

set PROPERTIES_ORIGIN ["COM"]
properties('MP2/aug-cc-pvtz', properties = ['dipole'])
--------------------------------------------------------------------------

    Molecular point group: c1
  Charge       = 0
  Multiplicity = 1
  Basis Set: AUG-CC-PVTZ
    Blend: AUG-CC-PVTZ
  Basis Set: (AUG-CC-PVTZ AUX)
    Blend: AUG-CC-PVTZ-JKFIT

    Orbital Energies [Eh]
    ---------------------

    Doubly Occupied:

       1A    -20.629807     2A    -20.600703     3A    -20.587697
       4A    -20.574929     5A    -20.574602     6A    -20.569427
       7A    -11.406749     8A    -11.326310     9A    -11.315437
      10A    -11.314706    11A    -11.307565    12A    -11.306951
      13A     -1.477772    14A     -1.409407    15A     -1.399120
      16A     -1.383926    17A     -1.374936    18A     -1.362645
      19A     -1.098750    20A     -1.059656    21A     -0.958368
      22A     -0.876959    23A     -0.868643    24A     -0.803469
      25A     -0.762208    26A     -0.743113    27A     -0.721124
      28A     -0.710866    29A     -0.694865    30A     -0.686546
      31A     -0.664144    32A     -0.643858    33A     -0.628868
      34A     -0.617073    35A     -0.615693    36A     -0.590153
      37A     -0.583906    38A     -0.560038    39A     -0.541306
      40A     -0.534153    41A     -0.519686    42A     -0.504416
      43A     -0.484816    44A     -0.478439    45A     -0.472997
      46A     -0.465664    47A     -0.445542

  @DF-RHF Final Energy:  -682.45430478868661

   => Energetics <=

    Nuclear Repulsion Energy =            801.6540696576481650
    One-Electron Energy =               -2529.7007412778443722
    Two-Electron Energy =                1045.5923668315097075
    Total Energy =                       -682.4543047886866134
  Basis Set: (AUG-CC-PVTZ AUX)
    Blend: AUG-CC-PVTZ-RI
    Molecular point group: c1

    Geometry (in Angstrom), charge = 0, multiplicity = 1:

       Center              X                  Y                   Z               Mass
    ------------   -----------------  -----------------  -----------------  -----------------
         O            0.375907341047    -1.473941767127    -0.131553870661    15.994914619570
         O            1.393443341047     2.067137232873    -0.421571870661    15.994914619570
         O           -1.233404658953     2.352086232873     0.464477129339    15.994914619570
         O           -2.907666658953     0.060106232873    -0.170495870661    15.994914619570
         O            2.910702341047    -0.683742767127     0.954567129339    15.994914619570
         O           -1.675574658953    -2.354140767127     0.003583129339    15.994914619570
         C            0.677058341047     0.932006232873     0.068097129339    12.000000000000
         C           -0.792744658953     1.183621232873    -0.204015870661    12.000000000000
         C            1.118370341047    -0.332341767127    -0.646681870661    12.000000000000
         C           -1.588206658953     0.011343232873     0.327411129339    12.000000000000
         C            2.577835341047    -0.672225767127    -0.428741870661    12.000000000000
         C           -0.977121658953    -1.358108767127     0.010022129339    12.000000000000
         H            0.828611341047     0.809270232873     1.147661129339     1.007825032230
         H           -0.953440658953     1.264225232873    -1.291391870661     1.007825032230
         H            0.917229341047    -0.240216767127    -1.723055870661     1.007825032230
         H           -1.575750958953     0.088725932873     1.379525329339     1.007825032230
         H            3.199082341047     0.095872232873    -0.895584870661     1.007825032230
         H            2.800357341047    -1.633406767127    -0.909780870661     1.007825032230
         H            2.209505341047     2.141617232873     0.103908129339     1.007825032230
         H           -0.611288658953     3.051117232873     0.187532129339     1.007825032230
         H           -3.269724658953    -0.838089767127    -0.037734870661     1.007825032230
         H            2.406268341047    -1.416879767127     1.350680129339     1.007825032230

  Basis Set: AUG-CC-PVTZ
    Blend: AUG-CC-PVTZ
  Basis Set: (AUG-CC-PVTZ AUX)
    Blend: AUG-CC-PVTZ-JKFIT
	 Reference Energy          =    -682.4543047886866134 [Eh]
	 Singles Energy            =      -0.0000000000000000 [Eh]
	 Same-Spin Energy          =      -0.6623287316247635 [Eh]
	 Opposite-Spin Energy      =      -2.0104205429787432 [Eh]
	 Correlation Energy        =      -2.6727492746035066 [Eh]
	 Total Energy              =    -685.1270540632900747 [Eh]

	 ================> DF-SCS-MP2 Energies <==================
	-----------------------------------------------------------
	 SCS Same-Spin Scale       =       0.3333333333333333 [-]
	 SCS Opposite-Spin Scale   =       1.2000000000000000 [-]
	 SCS Same-Spin Energy      =      -0.2207762438749211 [Eh]
	 SCS Opposite-Spin Energy  =      -2.4125046515744919 [Eh]
	 SCS Correlation Energy    =      -2.6332808954494129 [Eh]
	 SCS Total Energy          =    -685.0875856841360019 [Eh]
	-----------------------------------------------------------

  Dipole Moment: [D]
     X:     3.4156      Y:     0.5664      Z:    -0.2518     Total:     3.4714

*** Psi4 exiting successfully. Buy a developer a beer!
