                               Psi4 1.4a3.dev225

  ==> Input File <==

--------------------------------------------------------------------------
#psi4
#
memory 32 gb

molecule  {
0 1
  O        0.3445260    -1.4915130    -0.1284710
  O        1.3620620     2.0495660    -0.4184890
  O       -1.2647860     2.3345150     0.4675600
  O       -2.9390480     0.0425350    -0.1674130
  O        2.8793210    -0.7013140     0.9576500
  O       -1.7069560    -2.3717120     0.0066660
  C        0.6456770     0.9144350     0.0711800
  C       -0.8241260     1.1660500    -0.2009330
  C        1.0869890    -0.3499130    -0.6435990
  C       -1.6195880    -0.0062280     0.3304940
  C        2.5464540    -0.6897970    -0.4256590
  C       -1.0199857    -1.3920549     0.0129991
  H        0.7972300     0.7916990     1.1507440
  H       -0.9848220     1.2466540    -1.2883090
  H        0.8858480    -0.2577880    -1.7199730
  H       -1.6065420     0.0748220     1.4324700
  H        3.1677010     0.0783010    -0.8925020
  H        2.7689760    -1.6509780    -0.9066980
  H        2.1781240     2.1240460     0.1069910
  H       -0.6426700     3.0335460     0.1906150
  H       -3.3011060    -0.8556610    -0.0346520
  H        2.3748870    -1.4344510     1.3537630
units angstrom
no_reorient  #important for SAPT in psi4, default
symmetry c1  #important for SAPT in psi4, default
}

set PROPERTIES_ORIGIN ["COM"]
properties('MP2/aug-cc-pvtz', properties = ['dipole'])
--------------------------------------------------------------------------

    Molecular point group: c1
  Charge       = 0
  Multiplicity = 1
  Basis Set: AUG-CC-PVTZ
    Blend: AUG-CC-PVTZ
  Basis Set: (AUG-CC-PVTZ AUX)
    Blend: AUG-CC-PVTZ-JKFIT

    Orbital Energies [Eh]
    ---------------------

    Doubly Occupied:

       1A    -20.625742     2A    -20.599585     3A    -20.586575
       4A    -20.575301     5A    -20.574316     6A    -20.572874
       7A    -11.405510     8A    -11.324721     9A    -11.320536
      10A    -11.313340    11A    -11.306611    12A    -11.306398
      13A     -1.478296    14A     -1.409817    15A     -1.401072
      16A     -1.382943    17A     -1.377992    18A     -1.364291
      19A     -1.096221    20A     -1.055940    21A     -0.954643
      22A     -0.874642    23A     -0.866209    24A     -0.799738
      25A     -0.761249    26A     -0.740823    27A     -0.720800
      28A     -0.707999    29A     -0.694895    30A     -0.686607
      31A     -0.662656    32A     -0.644940    33A     -0.628337
      34A     -0.616177    35A     -0.613795    36A     -0.589914
      37A     -0.583441    38A     -0.559365    39A     -0.540458
      40A     -0.535148    41A     -0.519439    42A     -0.508036
      43A     -0.484337    44A     -0.478154    45A     -0.472926
      46A     -0.463914    47A     -0.442926

  @DF-RHF Final Energy:  -682.45613201513243

   => Energetics <=

    Nuclear Repulsion Energy =            801.2002825329848292
    One-Electron Energy =               -2528.8535291228936330
    Two-Electron Energy =                1045.1971145747763785
    Total Energy =                       -682.4561320151324253
  Basis Set: (AUG-CC-PVTZ AUX)
    Blend: AUG-CC-PVTZ-RI
    Molecular point group: c1

    Geometry (in Angstrom), charge = 0, multiplicity = 1:

       Center              X                  Y                   Z               Mass
    ------------   -----------------  -----------------  -----------------  -----------------
         O            0.376677906752    -1.472858895728    -0.131828971995    15.994914619570
         O            1.394213906752     2.068220104272    -0.421846971995    15.994914619570
         O           -1.232634093248     2.353169104272     0.464202028005    15.994914619570
         O           -2.906896093248     0.061189104272    -0.170770971995    15.994914619570
         O            2.911472906752    -0.682659895728     0.954292028005    15.994914619570
         O           -1.674804093248    -2.353057895728     0.003308028005    15.994914619570
         C            0.677828906752     0.933089104272     0.067822028005    12.000000000000
         C           -0.791974093248     1.184704104272    -0.204290971995    12.000000000000
         C            1.119140906752    -0.331258895728    -0.646956971995    12.000000000000
         C           -1.587436093248     0.012426104272     0.327136028005    12.000000000000
         C            2.578605906752    -0.671142895728    -0.429016971995    12.000000000000
         C           -0.987833793248    -1.373400795728     0.009641128005    12.000000000000
         H            0.829381906752     0.810353104272     1.147386028005     1.007825032230
         H           -0.952670093248     1.265308104272    -1.291666971995     1.007825032230
         H            0.917999906752    -0.239133895728    -1.723330971995     1.007825032230
         H           -1.574390093248     0.093476104272     1.429112028005     1.007825032230
         H            3.199852906752     0.096955104272    -0.895859971995     1.007825032230
         H            2.801127906752    -1.632323895728    -0.910055971995     1.007825032230
         H            2.210275906752     2.142700104272     0.103633028005     1.007825032230
         H           -0.610518093248     3.052200104272     0.187257028005     1.007825032230
         H           -3.268954093248    -0.837006895728    -0.038009971995     1.007825032230
         H            2.407038906752    -1.415796895728     1.350405028005     1.007825032230

  Basis Set: AUG-CC-PVTZ
    Blend: AUG-CC-PVTZ
  Basis Set: (AUG-CC-PVTZ AUX)
    Blend: AUG-CC-PVTZ-JKFIT
	 Reference Energy          =    -682.4561320151324253 [Eh]
	 Singles Energy            =      -0.0000000000000000 [Eh]
	 Same-Spin Energy          =      -0.6619427297916488 [Eh]
	 Opposite-Spin Energy      =      -2.0097983185626052 [Eh]
	 Correlation Energy        =      -2.6717410483542539 [Eh]
	 Total Energy              =    -685.1278730634867316 [Eh]

	 ================> DF-SCS-MP2 Energies <==================
	-----------------------------------------------------------
	 SCS Same-Spin Scale       =       0.3333333333333333 [-]
	 SCS Opposite-Spin Scale   =       1.2000000000000000 [-]
	 SCS Same-Spin Energy      =      -0.2206475765972163 [Eh]
	 SCS Opposite-Spin Energy  =      -2.4117579822751263 [Eh]
	 SCS Correlation Energy    =      -2.6324055588723425 [Eh]
	 SCS Total Energy          =    -685.0885375740048175 [Eh]
	-----------------------------------------------------------

  Dipole Moment: [D]
     X:     3.2694      Y:     0.4622      Z:    -0.2633     Total:     3.3123

*** Psi4 exiting successfully. Buy a developer a beer!
