                               Psi4 1.4a3.dev225

  ==> Input File <==

--------------------------------------------------------------------------
#psi4
#
memory 32 gb

molecule  {
0 1
  O        0.3445260    -1.4915130    -0.1284710
  O        1.3620620     2.0495660    -0.4184890
  O       -1.2647860     2.3345150     0.4675600
  O       -2.9390480     0.0425350    -0.1674130
  O        2.8793210    -0.7013140     0.9576500
  O       -1.7069560    -2.3717120     0.0066660
  C        0.6456770     0.9144350     0.0711800
  C       -0.8241260     1.1660500    -0.2009330
  C        1.0869890    -0.3499130    -0.6435990
  C       -1.6195880    -0.0062280     0.3304940
  C        2.5464540    -0.6897970    -0.4256590
  C       -1.0085030    -1.3756800     0.0131050
  H        0.7972300     0.7916990     1.1507440
  H       -0.9848220     1.2466540    -1.2883090
  H        0.8858480    -0.2577880    -1.7199730
  H       -1.6065420     0.0748220     1.4324700
  H        3.1677010     0.0783010    -0.8925020
  H        2.7689760    -1.6509780    -0.9066980
  H        2.1781240     2.1240460     0.1069910
  H       -0.6745441     2.9977311     0.2048043
  H       -3.3011060    -0.8556610    -0.0346520
  H        2.3748870    -1.4344510     1.3537630
units angstrom
no_reorient  #important for SAPT in psi4, default
symmetry c1  #important for SAPT in psi4, default
}

set PROPERTIES_ORIGIN ["COM"]
properties('MP2/aug-cc-pvtz', properties = ['dipole'])
--------------------------------------------------------------------------

    Molecular point group: c1
  Charge       = 0
  Multiplicity = 1
  Basis Set: AUG-CC-PVTZ
    Blend: AUG-CC-PVTZ
  Basis Set: (AUG-CC-PVTZ AUX)
    Blend: AUG-CC-PVTZ-JKFIT

    Orbital Energies [Eh]
    ---------------------

    Doubly Occupied:

       1A    -20.629965     2A    -20.600401     3A    -20.587730
       4A    -20.575836     5A    -20.571021     6A    -20.569485
       7A    -11.407170     8A    -11.326475     9A    -11.321502
      10A    -11.314917    11A    -11.308027    12A    -11.307645
      13A     -1.477918    14A     -1.412175    15A     -1.400414
      16A     -1.384419    17A     -1.379641    18A     -1.365922
      19A     -1.099711    20A     -1.059393    21A     -0.956692
      22A     -0.879517    23A     -0.868829    24A     -0.801911
      25A     -0.763474    26A     -0.742069    27A     -0.723887
      28A     -0.709059    29A     -0.697550    30A     -0.686976
      31A     -0.665379    32A     -0.644166    33A     -0.628951
      34A     -0.617787    35A     -0.615324    36A     -0.590628
      37A     -0.583385    38A     -0.561661    39A     -0.542407
      40A     -0.534602    41A     -0.520106    42A     -0.504500
      43A     -0.485048    44A     -0.478463    45A     -0.473339
      46A     -0.465417    47A     -0.445756

  @DF-RHF Final Energy:  -682.45560770670136

   => Energetics <=

    Nuclear Repulsion Energy =            801.6664809899358488
    One-Electron Energy =               -2529.6708716097582510
    Two-Electron Energy =                1045.5487829131211583
    Total Energy =                       -682.4556077067013575
  Basis Set: (AUG-CC-PVTZ AUX)
    Blend: AUG-CC-PVTZ-RI
    Molecular point group: c1

    Geometry (in Angstrom), charge = 0, multiplicity = 1:

       Center              X                  Y                   Z               Mass
    ------------   -----------------  -----------------  -----------------  -----------------
         O            0.376084420504    -1.473759798200    -0.131916426809    15.994914619570
         O            1.393620420504     2.067319201800    -0.421934426809    15.994914619570
         O           -1.233227579496     2.352268201800     0.464114573191    15.994914619570
         O           -2.907489579496     0.060288201800    -0.170858426809    15.994914619570
         O            2.910879420504    -0.683560798200     0.954204573191    15.994914619570
         O           -1.675397579496    -2.353958798200     0.003220573191    15.994914619570
         C            0.677235420504     0.932188201800     0.067734573191    12.000000000000
         C           -0.792567579496     1.183803201800    -0.204378426809    12.000000000000
         C            1.118547420504    -0.332159798200    -0.647044426809    12.000000000000
         C           -1.588029579496     0.011525201800     0.327048573191    12.000000000000
         C            2.578012420504    -0.672043798200    -0.429104426809    12.000000000000
         C           -0.976944579496    -1.357926798200     0.009659573191    12.000000000000
         H            0.828788420504     0.809452201800     1.147298573191     1.007825032230
         H           -0.953263579496     1.264407201800    -1.291754426809     1.007825032230
         H            0.917406420504    -0.240034798200    -1.723418426809     1.007825032230
         H           -1.574983579496     0.092575201800     1.429024573191     1.007825032230
         H            3.199259420504     0.096054201800    -0.895947426809     1.007825032230
         H            2.800534420504    -1.633224798200    -0.910143426809     1.007825032230
         H            2.209682420504     2.141799201800     0.103545573191     1.007825032230
         H           -0.642985679496     3.015484301800     0.201358873191     1.007825032230
         H           -3.269547579496    -0.837907798200    -0.038097426809     1.007825032230
         H            2.406445420504    -1.416697798200     1.350317573191     1.007825032230

  Basis Set: AUG-CC-PVTZ
    Blend: AUG-CC-PVTZ
  Basis Set: (AUG-CC-PVTZ AUX)
    Blend: AUG-CC-PVTZ-JKFIT
	 Reference Energy          =    -682.4556077067013575 [Eh]
	 Singles Energy            =      -0.0000000000000000 [Eh]
	 Same-Spin Energy          =      -0.6617963791236188 [Eh]
	 Opposite-Spin Energy      =      -2.0092636768836800 [Eh]
	 Correlation Energy        =      -2.6710600560072990 [Eh]
	 Total Energy              =    -685.1266677627086210 [Eh]

	 ================> DF-SCS-MP2 Energies <==================
	-----------------------------------------------------------
	 SCS Same-Spin Scale       =       0.3333333333333333 [-]
	 SCS Opposite-Spin Scale   =       1.2000000000000000 [-]
	 SCS Same-Spin Energy      =      -0.2205987930412062 [Eh]
	 SCS Opposite-Spin Energy  =      -2.4111164122604158 [Eh]
	 SCS Correlation Energy    =      -2.6317152053016222 [Eh]
	 SCS Total Energy          =    -685.0873229120029464 [Eh]
	-----------------------------------------------------------

  Dipole Moment: [D]
     X:     3.3686      Y:     0.5289      Z:    -0.2570     Total:     3.4195

*** Psi4 exiting successfully. Buy a developer a beer!
