                               Psi4 1.4a3.dev225

  ==> Input File <==

--------------------------------------------------------------------------
#psi4
#
memory 32 gb

molecule  {
0 1
  O        0.3445260    -1.4915130    -0.1284710
  O        1.3620620     2.0495660    -0.4184890
  O       -1.2647860     2.3345150     0.4675600
  O       -2.9390480     0.0425350    -0.1674130
  O        2.8793210    -0.7013140     0.9576500
  O       -1.7069560    -2.3717120     0.0066660
  C        0.6456770     0.9144350     0.0711800
  C       -0.8241260     1.1660500    -0.2009330
  C        1.0869890    -0.3499130    -0.6435990
  C       -1.6195880    -0.0062280     0.3304940
  C        2.5464540    -0.6897970    -0.4256590
  C       -1.1076014    -1.3671962     0.0234743
  H        0.7972300     0.7916990     1.1507440
  H       -0.9848220     1.2466540    -1.2883090
  H        0.8858480    -0.2577880    -1.7199730
  H       -1.6065420     0.0748220     1.4324700
  H        3.1677010     0.0783010    -0.8925020
  H        2.7689760    -1.6509780    -0.9066980
  H        2.1781240     2.1240460     0.1069910
  H       -0.6426700     3.0335460     0.1906150
  H       -3.3011060    -0.8556610    -0.0346520
  H        2.3748870    -1.4344510     1.3537630
units angstrom
no_reorient  #important for SAPT in psi4, default
symmetry c1  #important for SAPT in psi4, default
}

set PROPERTIES_ORIGIN ["COM"]
properties('MP2/aug-cc-pvtz', properties = ['dipole'])
--------------------------------------------------------------------------

    Molecular point group: c1
  Charge       = 0
  Multiplicity = 1
  Basis Set: AUG-CC-PVTZ
    Blend: AUG-CC-PVTZ
  Basis Set: (AUG-CC-PVTZ AUX)
    Blend: AUG-CC-PVTZ-JKFIT

    Orbital Energies [Eh]
    ---------------------

    Doubly Occupied:

       1A    -20.607286     2A    -20.596333     3A    -20.587364
       4A    -20.580827     5A    -20.580726     6A    -20.576385
       7A    -11.408422     8A    -11.324526     9A    -11.313743
      10A    -11.310143    11A    -11.309452    12A    -11.299565
      13A     -1.479743    14A     -1.409204    15A     -1.395560
      16A     -1.384272    17A     -1.370056    18A     -1.366648
      19A     -1.092616    20A     -1.053466    21A     -0.959725
      22A     -0.881146    23A     -0.850402    24A     -0.796407
      25A     -0.758320    26A     -0.739115    27A     -0.721557
      28A     -0.711641    29A     -0.694976    30A     -0.678946
      31A     -0.667798    32A     -0.643470    33A     -0.626036
      34A     -0.611072    35A     -0.608993    36A     -0.592544
      37A     -0.579970    38A     -0.559222    39A     -0.539687
      40A     -0.535938    41A     -0.517873    42A     -0.510416
      43A     -0.490933    44A     -0.475160    45A     -0.472341
      46A     -0.463236    47A     -0.441389

  @DF-RHF Final Energy:  -682.44530663675414

   => Energetics <=

    Nuclear Repulsion Energy =            800.9524320811622147
    One-Electron Energy =               -2528.4461814215601407
    Two-Electron Energy =                1045.0484427036437864
    Total Energy =                       -682.4453066367541396
  Basis Set: (AUG-CC-PVTZ AUX)
    Blend: AUG-CC-PVTZ-RI
    Molecular point group: c1

    Geometry (in Angstrom), charge = 0, multiplicity = 1:

       Center              X                  Y                   Z               Mass
    ------------   -----------------  -----------------  -----------------  -----------------
         O            0.382582999463    -1.474534313811    -0.132534975909    15.994914619570
         O            1.400118999463     2.066544686189    -0.422552975909    15.994914619570
         O           -1.226729000537     2.351493686189     0.463496024091    15.994914619570
         O           -2.900991000537     0.059513686189    -0.171476975909    15.994914619570
         O            2.917377999463    -0.684335313811     0.953586024091    15.994914619570
         O           -1.668899000537    -2.354733313811     0.002602024091    15.994914619570
         C            0.683733999463     0.931413686189     0.067116024091    12.000000000000
         C           -0.786069000537     1.183028686189    -0.204996975909    12.000000000000
         C            1.125045999463    -0.332934313811    -0.647662975909    12.000000000000
         C           -1.581531000537     0.010750686189     0.326430024091    12.000000000000
         C            2.584510999463    -0.672818313811    -0.429722975909    12.000000000000
         C           -1.069544400537    -1.350217513811     0.019410324091    12.000000000000
         H            0.835286999463     0.808677686189     1.146680024091     1.007825032230
         H           -0.946765000537     1.263632686189    -1.292372975909     1.007825032230
         H            0.923904999463    -0.240809313811    -1.724036975909     1.007825032230
         H           -1.568485000537     0.091800686189     1.428406024091     1.007825032230
         H            3.205757999463     0.095279686189    -0.896565975909     1.007825032230
         H            2.807032999463    -1.633999313811    -0.910761975909     1.007825032230
         H            2.216180999463     2.141024686189     0.102927024091     1.007825032230
         H           -0.604613000537     3.050524686189     0.186551024091     1.007825032230
         H           -3.263049000537    -0.838682313811    -0.038715975909     1.007825032230
         H            2.412943999463    -1.417472313811     1.349699024091     1.007825032230

  Basis Set: AUG-CC-PVTZ
    Blend: AUG-CC-PVTZ
  Basis Set: (AUG-CC-PVTZ AUX)
    Blend: AUG-CC-PVTZ-JKFIT
	 Reference Energy          =    -682.4453066367541396 [Eh]
	 Singles Energy            =      -0.0000000000000000 [Eh]
	 Same-Spin Energy          =      -0.6626109067547672 [Eh]
	 Opposite-Spin Energy      =      -2.0114532882801983 [Eh]
	 Correlation Energy        =      -2.6740641950349655 [Eh]
	 Total Energy              =    -685.1193708317890696 [Eh]

	 ================> DF-SCS-MP2 Energies <==================
	-----------------------------------------------------------
	 SCS Same-Spin Scale       =       0.3333333333333333 [-]
	 SCS Opposite-Spin Scale   =       1.2000000000000000 [-]
	 SCS Same-Spin Energy      =      -0.2208703022515890 [Eh]
	 SCS Opposite-Spin Energy  =      -2.4137439459362380 [Eh]
	 SCS Correlation Energy    =      -2.6346142481878272 [Eh]
	 SCS Total Energy          =    -685.0799208849419983 [Eh]
	-----------------------------------------------------------

  Dipole Moment: [D]
     X:     2.4705      Y:     0.4164      Z:    -0.1441     Total:     2.5095

*** Psi4 exiting successfully. Buy a developer a beer!
