                               Psi4 1.4a3.dev225

  ==> Input File <==

--------------------------------------------------------------------------
#psi4
#
memory 32 gb

molecule  {
0 1
  O        0.3445260    -1.4915130    -0.1284710
  O        1.3620620     2.0495660    -0.4184890
  O       -1.2647860     2.3345150     0.4675600
  O       -2.9390480     0.0425350    -0.1674130
  O        2.8793210    -0.7013140     0.9576500
  O       -1.7069560    -2.3717120     0.0066660
  C        0.6456770     0.9144350     0.0711800
  C       -0.7756435     1.1577503    -0.1919572
  C        1.0869890    -0.3499130    -0.6435990
  C       -1.6195880    -0.0062280     0.3304940
  C        2.5464540    -0.6897970    -0.4256590
  C       -1.0085030    -1.3756800     0.0131050
  H        0.7972300     0.7916990     1.1507440
  H       -0.9848220     1.2466540    -1.2883090
  H        0.8858480    -0.2577880    -1.7199730
  H       -1.6065420     0.0748220     1.4324700
  H        3.1677010     0.0783010    -0.8925020
  H        2.7689760    -1.6509780    -0.9066980
  H        2.1781240     2.1240460     0.1069910
  H       -0.6426700     3.0335460     0.1906150
  H       -3.3011060    -0.8556610    -0.0346520
  H        2.3748870    -1.4344510     1.3537630
units angstrom
no_reorient  #important for SAPT in psi4, default
symmetry c1  #important for SAPT in psi4, default
}

set PROPERTIES_ORIGIN ["COM"]
properties('MP2/aug-cc-pvtz', properties = ['dipole'])
--------------------------------------------------------------------------

    Molecular point group: c1
  Charge       = 0
  Multiplicity = 1
  Basis Set: AUG-CC-PVTZ
    Blend: AUG-CC-PVTZ
  Basis Set: (AUG-CC-PVTZ AUX)
    Blend: AUG-CC-PVTZ-JKFIT

    Orbital Energies [Eh]
    ---------------------

    Doubly Occupied:

       1A    -20.630305     2A    -20.601516     3A    -20.588327
       4A    -20.576579     5A    -20.573920     6A    -20.568850
       7A    -11.406267     8A    -11.327638     9A    -11.322474
      10A    -11.314365    11A    -11.308371    12A    -11.307804
      13A     -1.478059    14A     -1.410429    15A     -1.398690
      16A     -1.384387    17A     -1.372772    18A     -1.360361
      19A     -1.104723    20A     -1.058377    21A     -0.960763
      22A     -0.875687    23A     -0.867593    24A     -0.802423
      25A     -0.763485    26A     -0.743012    27A     -0.720517
      28A     -0.706108    29A     -0.694387    30A     -0.686527
      31A     -0.661760    32A     -0.644361    33A     -0.629669
      34A     -0.616527    35A     -0.612675    36A     -0.590346
      37A     -0.583313    38A     -0.558969    39A     -0.543023
      40A     -0.533508    41A     -0.521774    42A     -0.504672
      43A     -0.484686    44A     -0.478158    45A     -0.469529
      46A     -0.466896    47A     -0.448609

  @DF-RHF Final Energy:  -682.45138521329488

   => Energetics <=

    Nuclear Repulsion Energy =            801.7930959735577972
    One-Electron Energy =               -2529.9625858395288560
    Two-Electron Energy =                1045.7181046526764021
    Total Energy =                       -682.4513852132947704
  Basis Set: (AUG-CC-PVTZ AUX)
    Blend: AUG-CC-PVTZ-RI
    Molecular point group: c1

    Geometry (in Angstrom), charge = 0, multiplicity = 1:

       Center              X                  Y                   Z               Mass
    ------------   -----------------  -----------------  -----------------  -----------------
         O            0.372636392898    -1.473403145271    -0.132441057277    15.994914619570
         O            1.390172392898     2.067675854729    -0.422459057277    15.994914619570
         O           -1.236675607102     2.352624854729     0.463589942723    15.994914619570
         O           -2.910937607102     0.060644854729    -0.171383057277    15.994914619570
         O            2.907431392898    -0.683204145271     0.953679942723    15.994914619570
         O           -1.678845607102    -2.353602145271     0.002695942723    15.994914619570
         C            0.673787392898     0.932544854729     0.067209942723    12.000000000000
         C           -0.747533107102     1.175860154729    -0.195927257277    12.000000000000
         C            1.115099392898    -0.331803145271    -0.647569057277    12.000000000000
         C           -1.591477607102     0.011881854729     0.326523942723    12.000000000000
         C            2.574564392898    -0.671687145271    -0.429629057277    12.000000000000
         C           -0.980392607102    -1.357570145271     0.009134942723    12.000000000000
         H            0.825340392898     0.809808854729     1.146773942723     1.007825032230
         H           -0.956711607102     1.264763854729    -1.292279057277     1.007825032230
         H            0.913958392898    -0.239678145271    -1.723943057277     1.007825032230
         H           -1.578431607102     0.092931854729     1.428499942723     1.007825032230
         H            3.195811392898     0.096410854729    -0.896472057277     1.007825032230
         H            2.797086392898    -1.632868145271    -0.910668057277     1.007825032230
         H            2.206234392898     2.142155854729     0.103020942723     1.007825032230
         H           -0.614559607102     3.051655854729     0.186644942723     1.007825032230
         H           -3.272995607102    -0.837551145271    -0.038622057277     1.007825032230
         H            2.402997392898    -1.416341145271     1.349792942723     1.007825032230

  Basis Set: AUG-CC-PVTZ
    Blend: AUG-CC-PVTZ
  Basis Set: (AUG-CC-PVTZ AUX)
    Blend: AUG-CC-PVTZ-JKFIT
	 Reference Energy          =    -682.4513852132948841 [Eh]
	 Singles Energy            =      -0.0000000000000000 [Eh]
	 Same-Spin Energy          =      -0.6628537359897616 [Eh]
	 Opposite-Spin Energy      =      -2.0115785732990172 [Eh]
	 Correlation Energy        =      -2.6744323092887790 [Eh]
	 Total Energy              =    -685.1258175225837022 [Eh]

	 ================> DF-SCS-MP2 Energies <==================
	-----------------------------------------------------------
	 SCS Same-Spin Scale       =       0.3333333333333333 [-]
	 SCS Opposite-Spin Scale   =       1.2000000000000000 [-]
	 SCS Same-Spin Energy      =      -0.2209512453299205 [Eh]
	 SCS Opposite-Spin Energy  =      -2.4138942879588208 [Eh]
	 SCS Correlation Energy    =      -2.6348455332887415 [Eh]
	 SCS Total Energy          =    -685.0862307465836238 [Eh]
	-----------------------------------------------------------

  Dipole Moment: [D]
     X:     3.4555      Y:     0.5158      Z:    -0.2641     Total:     3.5037

*** Psi4 exiting successfully. Buy a developer a beer!
