                               Psi4 1.4a3.dev225

  ==> Input File <==

--------------------------------------------------------------------------
#psi4
#
memory 32 gb

molecule  {
0 1
  O        0.3445260    -1.4915130    -0.1284710
  O        1.3620620     2.0495660    -0.4184890
  O       -1.2647860     2.3345150     0.4675600
  O       -2.9390480     0.0425350    -0.1674130
  O        2.8793210    -0.7013140     0.9576500
  O       -1.7069560    -2.3717120     0.0066660
  C        0.6456770     0.9144350     0.0711800
  C       -0.8241260     1.1660500    -0.2009330
  C        1.0869890    -0.3499130    -0.6435990
  C       -1.6195880    -0.0062280     0.3304940
  C        2.5230595    -0.6889876    -0.5228806
  C       -1.0085030    -1.3756800     0.0131050
  H        0.7972300     0.7916990     1.1507440
  H       -0.9848220     1.2466540    -1.2883090
  H        0.8858480    -0.2577880    -1.7199730
  H       -1.6065420     0.0748220     1.4324700
  H        3.1677010     0.0783010    -0.8925020
  H        2.7689760    -1.6509780    -0.9066980
  H        2.1781240     2.1240460     0.1069910
  H       -0.6426700     3.0335460     0.1906150
  H       -3.3011060    -0.8556610    -0.0346520
  H        2.3748870    -1.4344510     1.3537630
units angstrom
no_reorient  #important for SAPT in psi4, default
symmetry c1  #important for SAPT in psi4, default
}

set PROPERTIES_ORIGIN ["COM"]
properties('MP2/aug-cc-pvtz', properties = ['dipole'])
--------------------------------------------------------------------------

    Molecular point group: c1
  Charge       = 0
  Multiplicity = 1
  Basis Set: AUG-CC-PVTZ
    Blend: AUG-CC-PVTZ
  Basis Set: (AUG-CC-PVTZ AUX)
    Blend: AUG-CC-PVTZ-JKFIT

    Orbital Energies [Eh]
    ---------------------

    Doubly Occupied:

       1A    -20.631718     2A    -20.601674     3A    -20.576675
       4A    -20.576249     5A    -20.575917     6A    -20.570396
       7A    -11.408361     8A    -11.329253     9A    -11.322004
      10A    -11.316565    11A    -11.308493    12A    -11.308233
      13A     -1.479101    14A     -1.409994    15A     -1.397883
      16A     -1.376946    17A     -1.365014    18A     -1.348494
      19A     -1.102204    20A     -1.065648    21A     -0.962069
      22A     -0.878184    23A     -0.869403    24A     -0.802717
      25A     -0.764439    26A     -0.742291    27A     -0.715958
      28A     -0.704513    29A     -0.695282    30A     -0.681503
      31A     -0.663589    32A     -0.642558    33A     -0.629754
      34A     -0.617518    35A     -0.606465    36A     -0.590998
      37A     -0.580527    38A     -0.560619    39A     -0.542734
      40A     -0.531763    41A     -0.519809    42A     -0.504118
      43A     -0.484539    44A     -0.481044    45A     -0.473024
      46A     -0.466487    47A     -0.449263

  @DF-RHF Final Energy:  -682.44507239952702

   => Energetics <=

    Nuclear Repulsion Energy =            800.7025863828114325
    One-Electron Energy =               -2527.8313345949518407
    Two-Electron Energy =                1044.6836758126132736
    Total Energy =                       -682.4450723995271346
  Basis Set: (AUG-CC-PVTZ AUX)
    Blend: AUG-CC-PVTZ-RI
    Molecular point group: c1

    Geometry (in Angstrom), charge = 0, multiplicity = 1:

       Center              X                  Y                   Z               Mass
    ------------   -----------------  -----------------  -----------------  -----------------
         O            0.377480734138    -1.474017077249    -0.125283601563    15.994914619570
         O            1.395016734138     2.067061922751    -0.415301601563    15.994914619570
         O           -1.231831265862     2.352010922751     0.470747398437    15.994914619570
         O           -2.906093265862     0.060030922751    -0.164225601563    15.994914619570
         O            2.912275734138    -0.683818077249     0.960837398437    15.994914619570
         O           -1.674001265862    -2.354216077249     0.009853398437    15.994914619570
         C            0.678631734138     0.931930922751     0.074367398437    12.000000000000
         C           -0.791171265862     1.183545922751    -0.197745601563    12.000000000000
         C            1.119943734138    -0.332417077249    -0.640411601563    12.000000000000
         C           -1.586633265862     0.011267922751     0.333681398437    12.000000000000
         C            2.556014234138    -0.671491677249    -0.519693201563    12.000000000000
         C           -0.975548265862    -1.358184077249     0.016292398437    12.000000000000
         H            0.830184734138     0.809194922751     1.153931398437     1.007825032230
         H           -0.951867265862     1.264149922751    -1.285121601563     1.007825032230
         H            0.918802734138    -0.240292077249    -1.716785601563     1.007825032230
         H           -1.573587265862     0.092317922751     1.435657398437     1.007825032230
         H            3.200655734138     0.095796922751    -0.889314601563     1.007825032230
         H            2.801930734138    -1.633482077249    -0.903510601563     1.007825032230
         H            2.211078734138     2.141541922751     0.110178398437     1.007825032230
         H           -0.609715265862     3.051041922751     0.193802398437     1.007825032230
         H           -3.268151265862    -0.838165077249    -0.031464601563     1.007825032230
         H            2.407841734138    -1.416955077249     1.356950398437     1.007825032230

  Basis Set: AUG-CC-PVTZ
    Blend: AUG-CC-PVTZ
  Basis Set: (AUG-CC-PVTZ AUX)
    Blend: AUG-CC-PVTZ-JKFIT
	 Reference Energy          =    -682.4450723995270209 [Eh]
	 Singles Energy            =      -0.0000000000000000 [Eh]
	 Same-Spin Energy          =      -0.6628090688851984 [Eh]
	 Opposite-Spin Energy      =      -2.0127501636980472 [Eh]
	 Correlation Energy        =      -2.6755592325832458 [Eh]
	 Total Energy              =    -685.1206316321103031 [Eh]

	 ================> DF-SCS-MP2 Energies <==================
	-----------------------------------------------------------
	 SCS Same-Spin Scale       =       0.3333333333333333 [-]
	 SCS Opposite-Spin Scale   =       1.2000000000000000 [-]
	 SCS Same-Spin Energy      =      -0.2209363562950661 [Eh]
	 SCS Opposite-Spin Energy  =      -2.4153001964376566 [Eh]
	 SCS Correlation Energy    =      -2.6362365527327225 [Eh]
	 SCS Total Energy          =    -685.0813089522597465 [Eh]
	-----------------------------------------------------------

  Dipole Moment: [D]
     X:     3.2680      Y:     0.6128      Z:    -0.5563     Total:     3.3712

*** Psi4 exiting successfully. Buy a developer a beer!
