                               Psi4 1.4a3.dev225

  ==> Input File <==

--------------------------------------------------------------------------
#psi4
#
memory 32 gb

molecule  {
0 1
  O        0.3445260    -1.4915130    -0.1284710
  O        1.3620620     2.0495660    -0.4184890
  O       -1.2647860     2.3345150     0.4675600
  O       -2.9390480     0.0425350    -0.1674130
  O        2.8793210    -0.7013140     0.9576500
  O       -1.7069560    -2.3717120     0.0066660
  C        0.6456770     0.9144350     0.0711800
  C       -0.8241260     1.1660500    -0.2009330
  C        1.0869890    -0.3499130    -0.6435990
  C       -1.6195880    -0.0062280     0.3304940
  C        2.5464540    -0.6897970    -0.4256590
  C       -0.9094046    -1.3841638     0.0027357
  H        0.7972300     0.7916990     1.1507440
  H       -0.9848220     1.2466540    -1.2883090
  H        0.8858480    -0.2577880    -1.7199730
  H       -1.6065420     0.0748220     1.4324700
  H        3.1677010     0.0783010    -0.8925020
  H        2.7689760    -1.6509780    -0.9066980
  H        2.1781240     2.1240460     0.1069910
  H       -0.6426700     3.0335460     0.1906150
  H       -3.3011060    -0.8556610    -0.0346520
  H        2.3748870    -1.4344510     1.3537630
units angstrom
no_reorient  #important for SAPT in psi4, default
symmetry c1  #important for SAPT in psi4, default
}

set PROPERTIES_ORIGIN ["COM"]
properties('MP2/aug-cc-pvtz', properties = ['dipole'])
--------------------------------------------------------------------------

    Molecular point group: c1
  Charge       = 0
  Multiplicity = 1
  Basis Set: AUG-CC-PVTZ
    Blend: AUG-CC-PVTZ
  Basis Set: (AUG-CC-PVTZ AUX)
    Blend: AUG-CC-PVTZ-JKFIT

    Orbital Energies [Eh]
    ---------------------

    Doubly Occupied:

       1A    -20.651056     2A    -20.605307     3A    -20.594720
       4A    -20.573710     5A    -20.571004     6A    -20.549505
       7A    -11.405535     8A    -11.339064     9A    -11.319837
      10A    -11.319153    11A    -11.315524    12A    -11.305251
      13A     -1.518574    14A     -1.412452    15A     -1.395426
      16A     -1.385535    17A     -1.367396    18A     -1.341225
      19A     -1.109974    20A     -1.061543    21A     -0.954023
      22A     -0.890917    23A     -0.871994    24A     -0.811052
      25A     -0.764638    26A     -0.748139    27A     -0.724724
      28A     -0.711232    29A     -0.700669    30A     -0.685617
      31A     -0.669013    32A     -0.638339    33A     -0.634387
      34A     -0.623458    35A     -0.618065    36A     -0.590780
      37A     -0.586676    38A     -0.562380    39A     -0.543447
      40A     -0.533257    41A     -0.517999    42A     -0.497322
      43A     -0.482120    44A     -0.474464    45A     -0.464945
      46A     -0.460460    47A     -0.439510

  @DF-RHF Final Energy:  -682.44156582747587

   => Energetics <=

    Nuclear Repulsion Energy =            801.9371028206447818
    One-Electron Energy =               -2530.0745090719160544
    Two-Electron Energy =                1045.6958404237955165
    Total Energy =                       -682.4415658274758698
  Basis Set: (AUG-CC-PVTZ AUX)
    Blend: AUG-CC-PVTZ-RI
    Molecular point group: c1

    Geometry (in Angstrom), charge = 0, multiplicity = 1:

       Center              X                  Y                   Z               Mass
    ------------   -----------------  -----------------  -----------------  -----------------
         O            0.369224999939    -1.473390737362    -0.131137242904    15.994914619570
         O            1.386760999939     2.067688262638    -0.421155242904    15.994914619570
         O           -1.240087000061     2.352637262638     0.464893757096    15.994914619570
         O           -2.914349000061     0.060657262638    -0.170079242904    15.994914619570
         O            2.904019999939    -0.683191737362     0.954983757096    15.994914619570
         O           -1.682257000061    -2.353589737362     0.003999757096    15.994914619570
         C            0.670375999939     0.932557262638     0.068513757096    12.000000000000
         C           -0.799427000061     1.184172262638    -0.203599242904    12.000000000000
         C            1.111687999939    -0.331790737362    -0.646265242904    12.000000000000
         C           -1.594889000061     0.011894262638     0.327827757096    12.000000000000
         C            2.571152999939    -0.671674737362    -0.428325242904    12.000000000000
         C           -0.884705600061    -1.366041537362     0.000069457096    12.000000000000
         H            0.821928999939     0.809821262638     1.148077757096     1.007825032230
         H           -0.960123000061     1.264776262638    -1.290975242904     1.007825032230
         H            0.910546999939    -0.239665737362    -1.722639242904     1.007825032230
         H           -1.581843000061     0.092944262638     1.429803757096     1.007825032230
         H            3.192399999939     0.096423262638    -0.895168242904     1.007825032230
         H            2.793674999939    -1.632855737362    -0.909364242904     1.007825032230
         H            2.202822999939     2.142168262638     0.104324757096     1.007825032230
         H           -0.617971000061     3.051668262638     0.187948757096     1.007825032230
         H           -3.276407000061    -0.837538737362    -0.037318242904     1.007825032230
         H            2.399585999939    -1.416328737362     1.351096757096     1.007825032230

  Basis Set: AUG-CC-PVTZ
    Blend: AUG-CC-PVTZ
  Basis Set: (AUG-CC-PVTZ AUX)
    Blend: AUG-CC-PVTZ-JKFIT
	 Reference Energy          =    -682.4415658274758698 [Eh]
	 Singles Energy            =      -0.0000000000000000 [Eh]
	 Same-Spin Energy          =      -0.6630034538043243 [Eh]
	 Opposite-Spin Energy      =      -2.0114404085495972 [Eh]
	 Correlation Energy        =      -2.6744438623539217 [Eh]
	 Total Energy              =    -685.1160096898297525 [Eh]

	 ================> DF-SCS-MP2 Energies <==================
	-----------------------------------------------------------
	 SCS Same-Spin Scale       =       0.3333333333333333 [-]
	 SCS Opposite-Spin Scale   =       1.2000000000000000 [-]
	 SCS Same-Spin Energy      =      -0.2210011512681081 [Eh]
	 SCS Opposite-Spin Energy  =      -2.4137284902595164 [Eh]
	 SCS Correlation Energy    =      -2.6347296415276245 [Eh]
	 SCS Total Energy          =    -685.0762954690035258 [Eh]
	-----------------------------------------------------------

  Dipole Moment: [D]
     X:     4.2971      Y:     0.7678      Z:    -0.3816     Total:     4.3818

*** Psi4 exiting successfully. Buy a developer a beer!
