                               Psi4 1.4a3.dev225

  ==> Input File <==

--------------------------------------------------------------------------
#psi4
#
memory 32 gb

molecule  {
0 1
  O        0.3445260    -1.4915130    -0.1284710
  O        1.3620620     2.0495660    -0.4184890
  O       -1.2647860     2.3345150     0.4675600
  O       -2.9390480     0.0425350    -0.1674130
  O        2.8793210    -0.7013140     0.9576500
  O       -1.7069560    -2.3717120     0.0066660
  C        0.6206078     0.8747121     0.0883155
  C       -0.8241260     1.1660500    -0.2009330
  C        1.0869890    -0.3499130    -0.6435990
  C       -1.6195880    -0.0062280     0.3304940
  C        2.5464540    -0.6897970    -0.4256590
  C       -1.0085030    -1.3756800     0.0131050
  H        0.7972300     0.7916990     1.1507440
  H       -0.9848220     1.2466540    -1.2883090
  H        0.8858480    -0.2577880    -1.7199730
  H       -1.6065420     0.0748220     1.4324700
  H        3.1677010     0.0783010    -0.8925020
  H        2.7689760    -1.6509780    -0.9066980
  H        2.1781240     2.1240460     0.1069910
  H       -0.6426700     3.0335460     0.1906150
  H       -3.3011060    -0.8556610    -0.0346520
  H        2.3748870    -1.4344510     1.3537630
units angstrom
no_reorient  #important for SAPT in psi4, default
symmetry c1  #important for SAPT in psi4, default
}

set PROPERTIES_ORIGIN ["COM"]
properties('MP2/aug-cc-pvtz', properties = ['dipole'])
--------------------------------------------------------------------------

    Molecular point group: c1
  Charge       = 0
  Multiplicity = 1
  Basis Set: AUG-CC-PVTZ
    Blend: AUG-CC-PVTZ
  Basis Set: (AUG-CC-PVTZ AUX)
    Blend: AUG-CC-PVTZ-JKFIT

    Orbital Energies [Eh]
    ---------------------

    Doubly Occupied:

       1A    -20.629759     2A    -20.594932     3A    -20.588486
       4A    -20.575825     5A    -20.575810     6A    -20.570028
       7A    -11.407735     8A    -11.328040     9A    -11.321542
      10A    -11.314710    11A    -11.308636    12A    -11.308372
      13A     -1.478855    14A     -1.400310    15A     -1.398976
      16A     -1.383121    17A     -1.370035    18A     -1.361914
      19A     -1.103937    20A     -1.060628    21A     -0.957837
      22A     -0.879021    23A     -0.868559    24A     -0.804572
      25A     -0.760552    26A     -0.735191    27A     -0.721708
      28A     -0.708878    29A     -0.694746    30A     -0.686836
      31A     -0.659653    32A     -0.643725    33A     -0.628411
      34A     -0.616515    35A     -0.614927    36A     -0.586547
      37A     -0.583987    38A     -0.557171    39A     -0.541429
      40A     -0.533236    41A     -0.519414    42A     -0.504310
      43A     -0.485648    44A     -0.479234    45A     -0.475113
      46A     -0.468584    47A     -0.448306

  @DF-RHF Final Energy:  -682.45123230130423

   => Energetics <=

    Nuclear Repulsion Energy =            801.6156941159557618
    One-Electron Energy =               -2529.6423346172527999
    Two-Electron Energy =                1045.5754081999930349
    Total Energy =                       -682.4512323013041168
  Basis Set: (AUG-CC-PVTZ AUX)
    Blend: AUG-CC-PVTZ-RI
    Molecular point group: c1

    Geometry (in Angstrom), charge = 0, multiplicity = 1:

       Center              X                  Y                   Z               Mass
    ------------   -----------------  -----------------  -----------------  -----------------
         O            0.377593604990    -1.471285295282    -0.132991001922    15.994914619570
         O            1.395129604990     2.069793704718    -0.423009001922    15.994914619570
         O           -1.231718395010     2.354742704718     0.463039998078    15.994914619570
         O           -2.905980395010     0.062762704718    -0.171933001922    15.994914619570
         O            2.912388604990    -0.681086295282     0.953129998078    15.994914619570
         O           -1.673888395010    -2.351484295282     0.002145998078    15.994914619570
         C            0.653675404990     0.894939804718     0.083795498078    12.000000000000
         C           -0.791058395010     1.186277704718    -0.205453001922    12.000000000000
         C            1.120056604990    -0.329685295282    -0.648119001922    12.000000000000
         C           -1.586520395010     0.013999704718     0.325973998078    12.000000000000
         C            2.579521604990    -0.669569295282    -0.430179001922    12.000000000000
         C           -0.975435395010    -1.355452295282     0.008584998078    12.000000000000
         H            0.830297604990     0.811926704718     1.146223998078     1.007825032230
         H           -0.951754395010     1.266881704718    -1.292829001922     1.007825032230
         H            0.918915604990    -0.237560295282    -1.724493001922     1.007825032230
         H           -1.573474395010     0.095049704718     1.427949998078     1.007825032230
         H            3.200768604990     0.098528704718    -0.897022001922     1.007825032230
         H            2.802043604990    -1.630750295282    -0.911218001922     1.007825032230
         H            2.211191604990     2.144273704718     0.102470998078     1.007825032230
         H           -0.609602395010     3.053773704718     0.186094998078     1.007825032230
         H           -3.268038395010    -0.835433295282    -0.039172001922     1.007825032230
         H            2.407954604990    -1.414223295282     1.349242998078     1.007825032230

  Basis Set: AUG-CC-PVTZ
    Blend: AUG-CC-PVTZ
  Basis Set: (AUG-CC-PVTZ AUX)
    Blend: AUG-CC-PVTZ-JKFIT
	 Reference Energy          =    -682.4512323013042305 [Eh]
	 Singles Energy            =      -0.0000000000000000 [Eh]
	 Same-Spin Energy          =      -0.6628016536367152 [Eh]
	 Opposite-Spin Energy      =      -2.0118793193050775 [Eh]
	 Correlation Energy        =      -2.6746809729417924 [Eh]
	 Total Energy              =    -685.1259132742460451 [Eh]

	 ================> DF-SCS-MP2 Energies <==================
	-----------------------------------------------------------
	 SCS Same-Spin Scale       =       0.3333333333333333 [-]
	 SCS Opposite-Spin Scale   =       1.2000000000000000 [-]
	 SCS Same-Spin Energy      =      -0.2209338845455717 [Eh]
	 SCS Opposite-Spin Energy  =      -2.4142551831660928 [Eh]
	 SCS Correlation Energy    =      -2.6351890677116643 [Eh]
	 SCS Total Energy          =    -685.0864213690158522 [Eh]
	-----------------------------------------------------------

  Dipole Moment: [D]
     X:     3.3194      Y:     0.4369      Z:    -0.2424     Total:     3.3568

*** Psi4 exiting successfully. Buy a developer a beer!
