                               Psi4 1.4a3.dev225

  ==> Input File <==

--------------------------------------------------------------------------
#psi4
#
memory 32 gb

molecule  {
0 1
  O        0.3445260    -1.4915130    -0.1284710
  O        1.3620620     2.0495660    -0.4184890
  O       -1.2647860     2.3345150     0.4675600
  O       -2.9390480     0.0425350    -0.1674130
  O        2.8793210    -0.7013140     0.9576500
  O       -1.7069560    -2.3717120     0.0066660
  C        0.6456770     0.9144350     0.0711800
  C       -0.8241260     1.1660500    -0.2009330
  C        1.0869890    -0.3499130    -0.6435990
  C       -1.6195880    -0.0062280     0.3304940
  C        2.5464540    -0.6897970    -0.4256590
  C       -1.0085030    -1.3756800     0.0131050
  H        0.7972300     0.7916990     1.1507440
  H       -0.9848220     1.2466540    -1.2883090
  H        0.8895089    -0.2594647    -1.7003825
  H       -1.6065420     0.0748220     1.4324700
  H        3.1677010     0.0783010    -0.8925020
  H        2.7689760    -1.6509780    -0.9066980
  H        2.1781240     2.1240460     0.1069910
  H       -0.6426700     3.0335460     0.1906150
  H       -3.3011060    -0.8556610    -0.0346520
  H        2.3748870    -1.4344510     1.3537630
units angstrom
no_reorient  #important for SAPT in psi4, default
symmetry c1  #important for SAPT in psi4, default
}

set PROPERTIES_ORIGIN ["COM"]
properties('MP2/aug-cc-pvtz', properties = ['dipole'])
--------------------------------------------------------------------------

    Molecular point group: c1
  Charge       = 0
  Multiplicity = 1
  Basis Set: AUG-CC-PVTZ
    Blend: AUG-CC-PVTZ
  Basis Set: (AUG-CC-PVTZ AUX)
    Blend: AUG-CC-PVTZ-JKFIT

    Orbital Energies [Eh]
    ---------------------

    Doubly Occupied:

       1A    -20.629562     2A    -20.600647     3A    -20.587497
       4A    -20.575531     5A    -20.574909     6A    -20.569179
       7A    -11.406890     8A    -11.323961     9A    -11.321140
      10A    -11.314437    11A    -11.307405    12A    -11.307347
      13A     -1.477608    14A     -1.409356    15A     -1.399122
      16A     -1.383871    17A     -1.374831    18A     -1.362839
      19A     -1.098681    20A     -1.058863    21A     -0.956423
      22A     -0.876610    23A     -0.868682    24A     -0.803017
      25A     -0.762368    26A     -0.742056    27A     -0.721215
      28A     -0.708514    29A     -0.695019    30A     -0.686392
      31A     -0.662452    32A     -0.643910    33A     -0.628663
      34A     -0.616967    35A     -0.614919    36A     -0.590230
      37A     -0.584193    38A     -0.560090    39A     -0.541158
      40A     -0.534252    41A     -0.519794    42A     -0.504273
      43A     -0.484381    44A     -0.478283    45A     -0.472622
      46A     -0.464910    47A     -0.445092

  @DF-RHF Final Energy:  -682.45499115192854

   => Energetics <=

    Nuclear Repulsion Energy =            801.4736694766580740
    One-Electron Energy =               -2529.3569919631381708
    Two-Electron Energy =                1045.4283313345517854
    Total Energy =                       -682.4549911519284251
  Basis Set: (AUG-CC-PVTZ AUX)
    Blend: AUG-CC-PVTZ-RI
    Molecular point group: c1

    Geometry (in Angstrom), charge = 0, multiplicity = 1:

       Center              X                  Y                   Z               Mass
    ------------   -----------------  -----------------  -----------------  -----------------
         O            0.375883277468    -1.473953034760    -0.131946999871    15.994914619570
         O            1.393419277468     2.067125965240    -0.421964999871    15.994914619570
         O           -1.233428722532     2.352074965240     0.464084000129    15.994914619570
         O           -2.907690722532     0.060094965240    -0.170888999871    15.994914619570
         O            2.910678277468    -0.683754034760     0.954174000129    15.994914619570
         O           -1.675598722532    -2.354152034760     0.003190000129    15.994914619570
         C            0.677034277468     0.931994965240     0.067704000129    12.000000000000
         C           -0.792768722532     1.183609965240    -0.204408999871    12.000000000000
         C            1.118346277468    -0.332353034760    -0.647074999871    12.000000000000
         C           -1.588230722532     0.011331965240     0.327018000129    12.000000000000
         C            2.577811277468    -0.672237034760    -0.429134999871    12.000000000000
         C           -0.977145722532    -1.358120034760     0.009629000129    12.000000000000
         H            0.828587277468     0.809258965240     1.147268000129     1.007825032230
         H           -0.953464722532     1.264213965240    -1.291784999871     1.007825032230
         H            0.920866177468    -0.241904734760    -1.703858499871     1.007825032230
         H           -1.575184722532     0.092381965240     1.428994000129     1.007825032230
         H            3.199058277468     0.095860965240    -0.895977999871     1.007825032230
         H            2.800333277468    -1.633418034760    -0.910173999871     1.007825032230
         H            2.209481277468     2.141605965240     0.103515000129     1.007825032230
         H           -0.611312722532     3.051105965240     0.187139000129     1.007825032230
         H           -3.269748722532    -0.838101034760    -0.038127999871     1.007825032230
         H            2.406244277468    -1.416891034760     1.350287000129     1.007825032230

  Basis Set: AUG-CC-PVTZ
    Blend: AUG-CC-PVTZ
  Basis Set: (AUG-CC-PVTZ AUX)
    Blend: AUG-CC-PVTZ-JKFIT
	 Reference Energy          =    -682.4549911519285388 [Eh]
	 Singles Energy            =      -0.0000000000000000 [Eh]
	 Same-Spin Energy          =      -0.6624027599815665 [Eh]
	 Opposite-Spin Energy      =      -2.0106365589335331 [Eh]
	 Correlation Energy        =      -2.6730393189150998 [Eh]
	 Total Energy              =    -685.1280304708436688 [Eh]

	 ================> DF-SCS-MP2 Energies <==================
	-----------------------------------------------------------
	 SCS Same-Spin Scale       =       0.3333333333333333 [-]
	 SCS Opposite-Spin Scale   =       1.2000000000000000 [-]
	 SCS Same-Spin Energy      =      -0.2208009199938555 [Eh]
	 SCS Opposite-Spin Energy  =      -2.4127638707202395 [Eh]
	 SCS Correlation Energy    =      -2.6335647907140949 [Eh]
	 SCS Total Energy          =    -685.0885559426426425 [Eh]
	-----------------------------------------------------------

  Dipole Moment: [D]
     X:     3.3988      Y:     0.5759      Z:    -0.2743     Total:     3.4581

*** Psi4 exiting successfully. Buy a developer a beer!
