                               Psi4 1.4a3.dev225

  ==> Input File <==

--------------------------------------------------------------------------
#psi4
#
memory 32 gb

molecule  {
0 1
  O        0.3445260    -1.4915130    -0.1284710
  O        1.3620620     2.0495660    -0.4184890
  O       -1.2647860     2.3345150     0.4675600
  O       -2.9390480     0.0425350    -0.1674130
  O        2.8793210    -0.7013140     0.9576500
  O       -1.7069560    -2.3717120     0.0066660
  C        0.6456770     0.9144350     0.0711800
  C       -0.8241260     1.1660500    -0.2009330
  C        1.0869890    -0.3499130    -0.6435990
  C       -1.6195880    -0.0062280     0.3304940
  C        2.5464540    -0.6897970    -0.4256590
  C       -1.0085030    -1.3756800     0.0131050
  H        0.7972300     0.7916990     1.1507440
  H       -0.9848220     1.2466540    -1.2883090
  H        0.8858480    -0.2577880    -1.7199730
  H       -1.6065420     0.0748220     1.4324700
  H        3.1677010     0.0783010    -0.8925020
  H        2.7689760    -1.6509780    -0.9066980
  H        2.1781240     2.1240460     0.1069910
  H       -0.6107959     3.0693609     0.1764257
  H       -3.3011060    -0.8556610    -0.0346520
  H        2.3748870    -1.4344510     1.3537630
units angstrom
no_reorient  #important for SAPT in psi4, default
symmetry c1  #important for SAPT in psi4, default
}

set PROPERTIES_ORIGIN ["COM"]
properties('MP2/aug-cc-pvtz', properties = ['dipole'])
--------------------------------------------------------------------------

    Molecular point group: c1
  Charge       = 0
  Multiplicity = 1
  Basis Set: AUG-CC-PVTZ
    Blend: AUG-CC-PVTZ
  Basis Set: (AUG-CC-PVTZ AUX)
    Blend: AUG-CC-PVTZ-JKFIT

    Orbital Energies [Eh]
    ---------------------

    Doubly Occupied:

       1A    -20.629630     2A    -20.600913     3A    -20.587540
       4A    -20.578227     5A    -20.575282     6A    -20.569104
       7A    -11.406791     8A    -11.326086     9A    -11.320866
      10A    -11.314327    11A    -11.307418    12A    -11.306652
      13A     -1.477520    14A     -1.408103    15A     -1.398248
      16A     -1.383739    17A     -1.371999    18A     -1.357603
      19A     -1.096992    20A     -1.057388    21A     -0.956256
      22A     -0.873944    23A     -0.867761    24A     -0.801041
      25A     -0.761293    26A     -0.741797    27A     -0.719167
      28A     -0.706974    29A     -0.692326    30A     -0.685204
      31A     -0.658398    32A     -0.643649    33A     -0.628574
      34A     -0.616257    35A     -0.614415    36A     -0.589747
      37A     -0.582585    38A     -0.558413    39A     -0.539849
      40A     -0.533817    41A     -0.519190    42A     -0.504169
      43A     -0.483186    44A     -0.477800    45A     -0.471878
      46A     -0.464320    47A     -0.444583

  @DF-RHF Final Energy:  -682.44967466630840

   => Energetics <=

    Nuclear Repulsion Energy =            801.0618352022924000
    One-Electron Energy =               -2528.6009815148813686
    Two-Electron Energy =                1045.0894716462805718
    Total Energy =                       -682.4496746663082831
  Basis Set: (AUG-CC-PVTZ AUX)
    Blend: AUG-CC-PVTZ-RI
    Molecular point group: c1

    Geometry (in Angstrom), charge = 0, multiplicity = 1:

       Center              X                  Y                   Z               Mass
    ------------   -----------------  -----------------  -----------------  -----------------
         O            0.375723578898    -1.474165252974    -0.131755792005    15.994914619570
         O            1.393259578898     2.066913747026    -0.421773792005    15.994914619570
         O           -1.233588421102     2.351862747026     0.464275207995    15.994914619570
         O           -2.907850421102     0.059882747026    -0.170697792005    15.994914619570
         O            2.910518578898    -0.683966252974     0.954365207995    15.994914619570
         O           -1.675758421102    -2.354364252974     0.003381207995    15.994914619570
         C            0.676874578898     0.931782747026     0.067895207995    12.000000000000
         C           -0.792928421102     1.183397747026    -0.204217792005    12.000000000000
         C            1.118186578898    -0.332565252974    -0.646883792005    12.000000000000
         C           -1.588390421102     0.011119747026     0.327209207995    12.000000000000
         C            2.577651578898    -0.672449252974    -0.428943792005    12.000000000000
         C           -0.977305421102    -1.358332252974     0.009820207995    12.000000000000
         H            0.828427578898     0.809046747026     1.147459207995     1.007825032230
         H           -0.953624421102     1.264001747026    -1.291593792005     1.007825032230
         H            0.917045578898    -0.240440252974    -1.723257792005     1.007825032230
         H           -1.575344421102     0.092169747026     1.429185207995     1.007825032230
         H            3.198898578898     0.095648747026    -0.895786792005     1.007825032230
         H            2.800173578898    -1.633630252974    -0.909982792005     1.007825032230
         H            2.209321578898     2.141393747026     0.103706207995     1.007825032230
         H           -0.579598321102     3.086708647026     0.173140907995     1.007825032230
         H           -3.269908421102    -0.838313252974    -0.037936792005     1.007825032230
         H            2.406084578898    -1.417103252974     1.350478207995     1.007825032230

  Basis Set: AUG-CC-PVTZ
    Blend: AUG-CC-PVTZ
  Basis Set: (AUG-CC-PVTZ AUX)
    Blend: AUG-CC-PVTZ-JKFIT
	 Reference Energy          =    -682.4496746663083968 [Eh]
	 Singles Energy            =      -0.0000000000000000 [Eh]
	 Same-Spin Energy          =      -0.6630998646696663 [Eh]
	 Opposite-Spin Energy      =      -2.0124313216073295 [Eh]
	 Correlation Energy        =      -2.6755311862769959 [Eh]
	 Total Energy              =    -685.1252058525853954 [Eh]

	 ================> DF-SCS-MP2 Energies <==================
	-----------------------------------------------------------
	 SCS Same-Spin Scale       =       0.3333333333333333 [-]
	 SCS Opposite-Spin Scale   =       1.2000000000000000 [-]
	 SCS Same-Spin Energy      =      -0.2210332882232221 [Eh]
	 SCS Opposite-Spin Energy  =      -2.4149175859287952 [Eh]
	 SCS Correlation Energy    =      -2.6359508741520172 [Eh]
	 SCS Total Energy          =    -685.0856255404604553 [Eh]
	-----------------------------------------------------------

  Dipole Moment: [D]
     X:     3.4259      Y:     0.6139      Z:    -0.2744     Total:     3.4912

*** Psi4 exiting successfully. Buy a developer a beer!
