                               Psi4 1.4a3.dev225

  ==> Input File <==

--------------------------------------------------------------------------
#psi4
#
memory 32 gb

molecule  {
0 1
  O        0.3445260    -1.4915130    -0.1284710
  O        1.3620620     2.0495660    -0.4184890
  O       -1.2647860     2.3345150     0.4675600
  O       -2.9390480     0.0425350    -0.1674130
  O        2.8793210    -0.7013140     0.9576500
  O       -1.7069560    -2.3717120     0.0066660
  C        0.6456770     0.9144350     0.0711800
  C       -0.8241260     1.1660500    -0.2009330
  C        1.0869890    -0.3499130    -0.6435990
  C       -1.6195880    -0.0062280     0.3304940
  C        2.5932431    -0.6914159    -0.2312158
  C       -1.0085030    -1.3756800     0.0131050
  H        0.7972300     0.7916990     1.1507440
  H       -0.9848220     1.2466540    -1.2883090
  H        0.8858480    -0.2577880    -1.7199730
  H       -1.6065420     0.0748220     1.4324700
  H        3.1677010     0.0783010    -0.8925020
  H        2.7689760    -1.6509780    -0.9066980
  H        2.1781240     2.1240460     0.1069910
  H       -0.6426700     3.0335460     0.1906150
  H       -3.3011060    -0.8556610    -0.0346520
  H        2.3748870    -1.4344510     1.3537630
units angstrom
no_reorient  #important for SAPT in psi4, default
symmetry c1  #important for SAPT in psi4, default
}

set PROPERTIES_ORIGIN ["COM"]
properties('MP2/aug-cc-pvtz', properties = ['dipole'])
--------------------------------------------------------------------------

    Molecular point group: c1
  Charge       = 0
  Multiplicity = 1
  Basis Set: AUG-CC-PVTZ
    Blend: AUG-CC-PVTZ
  Basis Set: (AUG-CC-PVTZ AUX)
    Blend: AUG-CC-PVTZ-JKFIT

    Orbital Energies [Eh]
    ---------------------

    Doubly Occupied:

       1A    -20.625931     2A    -20.611669     3A    -20.598442
       4A    -20.574099     5A    -20.572754     6A    -20.566971
       7A    -11.404013     8A    -11.319628     9A    -11.319426
      10A    -11.318246    11A    -11.311169    12A    -11.304845
      13A     -1.496934    14A     -1.471481    15A     -1.406309
      16A     -1.393040    17A     -1.373218    18A     -1.361397
      19A     -1.092455    20A     -1.043117    21A     -0.945301
      22A     -0.880752    23A     -0.870436    24A     -0.799649
      25A     -0.764343    26A     -0.758211    27A     -0.737276
      28A     -0.713455    29A     -0.697866    30A     -0.688891
      31A     -0.681624    32A     -0.660577    33A     -0.646137
      34A     -0.629298    35A     -0.614186    36A     -0.587785
      37A     -0.584089    38A     -0.557156    39A     -0.539789
      40A     -0.530371    41A     -0.501580    42A     -0.488566
      43A     -0.481075    44A     -0.470595    45A     -0.468099
      46A     -0.455300    47A     -0.422905

  @DF-RHF Final Energy:  -682.40863460002902

   => Energetics <=

    Nuclear Repulsion Energy =            802.9054356124969445
    One-Electron Energy =               -2531.9472268144745613
    Two-Electron Energy =                1046.6331566019484853
    Total Energy =                       -682.4086346000290177
  Basis Set: (AUG-CC-PVTZ AUX)
    Blend: AUG-CC-PVTZ-RI
    Molecular point group: c1

    Geometry (in Angstrom), charge = 0, multiplicity = 1:

       Center              X                  Y                   Z               Mass
    ------------   -----------------  -----------------  -----------------  -----------------
         O            0.372750524087    -1.473853415523    -0.144941125094    15.994914619570
         O            1.390286524087     2.067225584477    -0.434959125094    15.994914619570
         O           -1.236561475913     2.352174584477     0.451089874906    15.994914619570
         O           -2.910823475913     0.060194584477    -0.183883125094    15.994914619570
         O            2.907545524087    -0.683654415523     0.941179874906    15.994914619570
         O           -1.678731475913    -2.354052415523    -0.009804125094    15.994914619570
         C            0.673901524087     0.932094584477     0.054709874906    12.000000000000
         C           -0.795901475913     1.183709584477    -0.217403125094    12.000000000000
         C            1.115213524087    -0.332253415523    -0.660069125094    12.000000000000
         C           -1.591363475913     0.011431584477     0.314023874906    12.000000000000
         C            2.621467624087    -0.673756315523    -0.247685925094    12.000000000000
         C           -0.980278475913    -1.358020415523    -0.003365125094    12.000000000000
         H            0.825454524087     0.809358584477     1.134273874906     1.007825032230
         H           -0.956597475913     1.264313584477    -1.304779125094     1.007825032230
         H            0.914072524087    -0.240128415523    -1.736443125093     1.007825032230
         H           -1.578317475913     0.092481584477     1.415999874906     1.007825032230
         H            3.195925524087     0.095960584477    -0.908972125094     1.007825032230
         H            2.797200524087    -1.633318415523    -0.923168125094     1.007825032230
         H            2.206348524087     2.141705584477     0.090520874906     1.007825032230
         H           -0.614445475913     3.051205584477     0.174144874906     1.007825032230
         H           -3.272881475913    -0.838001415523    -0.051122125094     1.007825032230
         H            2.403111524087    -1.416791415523     1.337292874906     1.007825032230

  Basis Set: AUG-CC-PVTZ
    Blend: AUG-CC-PVTZ
  Basis Set: (AUG-CC-PVTZ AUX)
    Blend: AUG-CC-PVTZ-JKFIT
	 Reference Energy          =    -682.4086346000290177 [Eh]
	 Singles Energy            =      -0.0000000000000000 [Eh]
	 Same-Spin Energy          =      -0.6636590291922522 [Eh]
	 Opposite-Spin Energy      =      -2.0104226742988183 [Eh]
	 Correlation Energy        =      -2.6740817034910704 [Eh]
	 Total Energy              =    -685.0827163035201011 [Eh]

	 ================> DF-SCS-MP2 Energies <==================
	-----------------------------------------------------------
	 SCS Same-Spin Scale       =       0.3333333333333333 [-]
	 SCS Opposite-Spin Scale   =       1.2000000000000000 [-]
	 SCS Same-Spin Energy      =      -0.2212196763974174 [Eh]
	 SCS Opposite-Spin Energy  =      -2.4125072091585817 [Eh]
	 SCS Correlation Energy    =      -2.6337268855559990 [Eh]
	 SCS Total Energy          =    -685.0423614855850474 [Eh]
	-----------------------------------------------------------

  Dipole Moment: [D]
     X:     3.6819      Y:     0.5106      Z:     0.5226     Total:     3.7536

*** Psi4 exiting successfully. Buy a developer a beer!
