                               Psi4 1.4a3.dev225

  ==> Input File <==

--------------------------------------------------------------------------
#psi4
#
memory 32 gb

molecule  {
0 1
  O        0.3445260    -1.4915130    -0.1284710
  O        1.3620620     2.0495660    -0.4184890
  O       -1.2968619     2.3068090     0.4930153
  O       -2.9390480     0.0425350    -0.1674130
  O        2.8793210    -0.7013140     0.9576500
  O       -1.7069560    -2.3717120     0.0066660
  C        0.6456770     0.9144350     0.0711800
  C       -0.8241260     1.1660500    -0.2009330
  C        1.0869890    -0.3499130    -0.6435990
  C       -1.6195880    -0.0062280     0.3304940
  C        2.5464540    -0.6897970    -0.4256590
  C       -1.0085030    -1.3756800     0.0131050
  H        0.7972300     0.7916990     1.1507440
  H       -0.9848220     1.2466540    -1.2883090
  H        0.8858480    -0.2577880    -1.7199730
  H       -1.6065420     0.0748220     1.4324700
  H        3.1677010     0.0783010    -0.8925020
  H        2.7689760    -1.6509780    -0.9066980
  H        2.1781240     2.1240460     0.1069910
  H       -0.6426700     3.0335460     0.1906150
  H       -3.3011060    -0.8556610    -0.0346520
  H        2.3748870    -1.4344510     1.3537630
units angstrom
no_reorient  #important for SAPT in psi4, default
symmetry c1  #important for SAPT in psi4, default
}

set PROPERTIES_ORIGIN ["COM"]
properties('MP2/aug-cc-pvtz', properties = ['dipole'])
--------------------------------------------------------------------------

    Molecular point group: c1
  Charge       = 0
  Multiplicity = 1
  Basis Set: AUG-CC-PVTZ
    Blend: AUG-CC-PVTZ
  Basis Set: (AUG-CC-PVTZ AUX)
    Blend: AUG-CC-PVTZ-JKFIT

    Orbital Energies [Eh]
    ---------------------

    Doubly Occupied:

       1A    -20.629446     2A    -20.601430     3A    -20.587743
       4A    -20.580270     5A    -20.574781     6A    -20.568401
       7A    -11.405767     8A    -11.326533     9A    -11.319597
      10A    -11.315032    11A    -11.307733    12A    -11.306660
      13A     -1.477201    14A     -1.408556    15A     -1.398336
      16A     -1.383909    17A     -1.372870    18A     -1.358951
      19A     -1.097131    20A     -1.057112    21A     -0.956449
      22A     -0.873663    23A     -0.867855    24A     -0.801423
      25A     -0.762038    26A     -0.741799    27A     -0.718919
      28A     -0.707309    29A     -0.691432    30A     -0.684598
      31A     -0.658601    32A     -0.643929    33A     -0.628824
      34A     -0.615653    35A     -0.614144    36A     -0.589410
      37A     -0.582299    38A     -0.560164    39A     -0.542108
      40A     -0.533672    41A     -0.519727    42A     -0.504090
      43A     -0.482319    44A     -0.478034    45A     -0.473068
      46A     -0.464735    47A     -0.444652

  @DF-RHF Final Energy:  -682.44906459530364

   => Energetics <=

    Nuclear Repulsion Energy =            801.2843725338929062
    One-Electron Energy =               -2529.0301332389140043
    Two-Electron Energy =                1045.2966961097172316
    Total Energy =                       -682.4490645953037529
  Basis Set: (AUG-CC-PVTZ AUX)
    Blend: AUG-CC-PVTZ-RI
    Molecular point group: c1

    Geometry (in Angstrom), charge = 0, multiplicity = 1:

       Center              X                  Y                   Z               Mass
    ------------   -----------------  -----------------  -----------------  -----------------
         O            0.378785537470    -1.471473557688    -0.134122885721    15.994914619570
         O            1.396321537470     2.069605442312    -0.424140885721    15.994914619570
         O           -1.262602362530     2.326848442312     0.487363414279    15.994914619570
         O           -2.904788462530     0.062574442312    -0.173064885721    15.994914619570
         O            2.913580537470    -0.681274557688     0.951998114279    15.994914619570
         O           -1.672696462530    -2.351672557688     0.001014114279    15.994914619570
         C            0.679936537470     0.934474442312     0.065528114279    12.000000000000
         C           -0.789866462530     1.186089442312    -0.206584885721    12.000000000000
         C            1.121248537470    -0.329873557688    -0.649250885721    12.000000000000
         C           -1.585328462530     0.013811442312     0.324842114279    12.000000000000
         C            2.580713537470    -0.669757557688    -0.431310885721    12.000000000000
         C           -0.974243462530    -1.355640557688     0.007453114279    12.000000000000
         H            0.831489537470     0.811738442312     1.145092114279     1.007825032230
         H           -0.950562462530     1.266693442312    -1.293960885721     1.007825032230
         H            0.920107537470    -0.237748557688    -1.725624885721     1.007825032230
         H           -1.572282462530     0.094861442312     1.426818114279     1.007825032230
         H            3.201960537470     0.098340442312    -0.898153885721     1.007825032230
         H            2.803235537470    -1.630938557688    -0.912349885721     1.007825032230
         H            2.212383537470     2.144085442312     0.101339114279     1.007825032230
         H           -0.608410462530     3.053585442312     0.184963114279     1.007825032230
         H           -3.266846462530    -0.835621557688    -0.040303885721     1.007825032230
         H            2.409146537470    -1.414411557688     1.348111114279     1.007825032230

  Basis Set: AUG-CC-PVTZ
    Blend: AUG-CC-PVTZ
  Basis Set: (AUG-CC-PVTZ AUX)
    Blend: AUG-CC-PVTZ-JKFIT
	 Reference Energy          =    -682.4490645953036392 [Eh]
	 Singles Energy            =      -0.0000000000000000 [Eh]
	 Same-Spin Energy          =      -0.6632366338594606 [Eh]
	 Opposite-Spin Energy      =      -2.0127056457373125 [Eh]
	 Correlation Energy        =      -2.6759422795967733 [Eh]
	 Total Energy              =    -685.1250068749004640 [Eh]

	 ================> DF-SCS-MP2 Energies <==================
	-----------------------------------------------------------
	 SCS Same-Spin Scale       =       0.3333333333333333 [-]
	 SCS Opposite-Spin Scale   =       1.2000000000000000 [-]
	 SCS Same-Spin Energy      =      -0.2210788779531535 [Eh]
	 SCS Opposite-Spin Energy  =      -2.4152467748847748 [Eh]
	 SCS Correlation Energy    =      -2.6363256528379284 [Eh]
	 SCS Total Energy          =    -685.0853902481416071 [Eh]
	-----------------------------------------------------------

  Dipole Moment: [D]
     X:     3.4414      Y:     0.6372      Z:    -0.2951     Total:     3.5123

*** Psi4 exiting successfully. Buy a developer a beer!
