                               Psi4 1.4a3.dev225

  ==> Input File <==

--------------------------------------------------------------------------
#psi4
#
memory 32 gb

molecule  {
0 1
  O        0.3445260    -1.4915130    -0.1284710
  O        1.3620620     2.0495660    -0.4184890
  O       -1.1654965     2.4089651     0.3864364
  O       -2.9390480     0.0425350    -0.1674130
  O        2.8793210    -0.7013140     0.9576500
  O       -1.7069560    -2.3717120     0.0066660
  C        0.6456770     0.9144350     0.0711800
  C       -0.8241260     1.1660500    -0.2009330
  C        1.0869890    -0.3499130    -0.6435990
  C       -1.6195880    -0.0062280     0.3304940
  C        2.5464540    -0.6897970    -0.4256590
  C       -1.0085030    -1.3756800     0.0131050
  H        0.7972300     0.7916990     1.1507440
  H       -0.9848220     1.2466540    -1.2883090
  H        0.8858480    -0.2577880    -1.7199730
  H       -1.6065420     0.0748220     1.4324700
  H        3.1677010     0.0783010    -0.8925020
  H        2.7689760    -1.6509780    -0.9066980
  H        2.1781240     2.1240460     0.1069910
  H       -0.6426700     3.0335460     0.1906150
  H       -3.3011060    -0.8556610    -0.0346520
  H        2.3748870    -1.4344510     1.3537630
units angstrom
no_reorient  #important for SAPT in psi4, default
symmetry c1  #important for SAPT in psi4, default
}

set PROPERTIES_ORIGIN ["COM"]
properties('MP2/aug-cc-pvtz', properties = ['dipole'])
--------------------------------------------------------------------------

    Molecular point group: c1
  Charge       = 0
  Multiplicity = 1
  Basis Set: AUG-CC-PVTZ
    Blend: AUG-CC-PVTZ
  Basis Set: (AUG-CC-PVTZ AUX)
    Blend: AUG-CC-PVTZ-JKFIT

    Orbital Energies [Eh]
    ---------------------

    Doubly Occupied:

       1A    -20.630912     2A    -20.598244     3A    -20.587345
       4A    -20.578061     5A    -20.572045     6A    -20.555760
       7A    -11.410638     8A    -11.326283     9A    -11.325577
      10A    -11.313595    11A    -11.310932    12A    -11.306946
      13A     -1.479359    14A     -1.420265    15A     -1.402036
      16A     -1.385021    17A     -1.383873    18A     -1.369637
      19A     -1.103305    20A     -1.062040    21A     -0.957007
      22A     -0.890727    23A     -0.868820    24A     -0.801658
      25A     -0.763130    26A     -0.745714    27A     -0.735086
      28A     -0.710219    29A     -0.704113    30A     -0.688482
      31A     -0.668057    32A     -0.643817    33A     -0.628876
      34A     -0.621438    35A     -0.615796    36A     -0.592286
      37A     -0.584562    38A     -0.558522    39A     -0.537774
      40A     -0.535499    41A     -0.518480    42A     -0.505028
      43A     -0.488653    44A     -0.478584    45A     -0.470691
      46A     -0.465507    47A     -0.446339

  @DF-RHF Final Energy:  -682.43758537550809

   => Energetics <=

    Nuclear Repulsion Energy =            801.8749447163726245
    One-Electron Energy =               -2529.9315778919253717
    Two-Electron Energy =                1045.6190478000446547
    Total Energy =                       -682.4375853755079788
  Basis Set: (AUG-CC-PVTZ AUX)
    Blend: AUG-CC-PVTZ-RI
    Molecular point group: c1

    Geometry (in Angstrom), charge = 0, multiplicity = 1:

       Center              X                  Y                   Z               Mass
    ------------   -----------------  -----------------  -----------------  -----------------
         O            0.366984329658    -1.480650748678    -0.124548372590    15.994914619570
         O            1.384520329658     2.060428251322    -0.414566372590    15.994914619570
         O           -1.143038170342     2.419827351322     0.390359027410    15.994914619570
         O           -2.916589670342     0.053397251322    -0.163490372590    15.994914619570
         O            2.901779329658    -0.690451748678     0.961572627410    15.994914619570
         O           -1.684497670342    -2.360849748678     0.010588627410    15.994914619570
         C            0.668135329658     0.925297251322     0.075102627410    12.000000000000
         C           -0.801667670342     1.176912251322    -0.197010372590    12.000000000000
         C            1.109447329658    -0.339050748678    -0.639676372590    12.000000000000
         C           -1.597129670342     0.004634251322     0.334416627410    12.000000000000
         C            2.568912329658    -0.678934748678    -0.421736372590    12.000000000000
         C           -0.986044670342    -1.364817748678     0.017027627410    12.000000000000
         H            0.819688329658     0.802561251322     1.154666627410     1.007825032230
         H           -0.962363670342     1.257516251322    -1.284386372590     1.007825032230
         H            0.908306329658    -0.246925748678    -1.716050372590     1.007825032230
         H           -1.584083670342     0.085684251322     1.436392627410     1.007825032230
         H            3.190159329658     0.089163251322    -0.888579372590     1.007825032230
         H            2.791434329658    -1.640115748678    -0.902775372590     1.007825032230
         H            2.200582329658     2.134908251322     0.110913627410     1.007825032230
         H           -0.620211670342     3.044408251322     0.194537627410     1.007825032230
         H           -3.278647670342    -0.844798748678    -0.030729372590     1.007825032230
         H            2.397345329658    -1.423588748678     1.357685627410     1.007825032230

  Basis Set: AUG-CC-PVTZ
    Blend: AUG-CC-PVTZ
  Basis Set: (AUG-CC-PVTZ AUX)
    Blend: AUG-CC-PVTZ-JKFIT
	 Reference Energy          =    -682.4375853755080925 [Eh]
	 Singles Energy            =      -0.0000000000000000 [Eh]
	 Same-Spin Energy          =      -0.6604945004810600 [Eh]
	 Opposite-Spin Energy      =      -2.0063309793426116 [Eh]
	 Correlation Energy        =      -2.6668254798236717 [Eh]
	 Total Energy              =    -685.1044108553317074 [Eh]

	 ================> DF-SCS-MP2 Energies <==================
	-----------------------------------------------------------
	 SCS Same-Spin Scale       =       0.3333333333333333 [-]
	 SCS Opposite-Spin Scale   =       1.2000000000000000 [-]
	 SCS Same-Spin Energy      =      -0.2201648334936867 [Eh]
	 SCS Opposite-Spin Energy  =      -2.4075971752111340 [Eh]
	 SCS Correlation Energy    =      -2.6277620087048206 [Eh]
	 SCS Total Energy          =    -685.0653473842129415 [Eh]
	-----------------------------------------------------------

  Dipole Moment: [D]
     X:     3.2490      Y:     0.3504      Z:    -0.1637     Total:     3.2719

*** Psi4 exiting successfully. Buy a developer a beer!
