                               Psi4 1.4a3.dev225

  ==> Input File <==

--------------------------------------------------------------------------
#psi4
#
memory 32 gb

molecule  {
0 1
  O        0.3445260    -1.4915130    -0.1284710
  O        1.3620620     2.0495660    -0.4184890
  O       -1.2647860     2.3345150     0.4675600
  O       -2.9390480     0.0425350    -0.1674130
  O        2.8793210    -0.7013140     0.9576500
  O       -1.7069560    -2.3717120     0.0066660
  C        0.6456770     0.9144350     0.0711800
  C       -0.8241260     1.1660500    -0.2009330
  C        1.0869890    -0.3499130    -0.6435990
  C       -1.6195880    -0.0062280     0.3304940
  C        2.5464540    -0.6897970    -0.4256590
  C       -1.0085030    -1.3756800     0.0131050
  H        0.7972300     0.7916990     1.1507440
  H       -0.9848220     1.2466540    -1.2883090
  H        0.8858480    -0.2577880    -1.7199730
  H       -1.6065420     0.0748220     1.4324700
  H        3.1677010     0.0783010    -0.8925020
  H        2.7689760    -1.6509780    -0.9066980
  H        2.1781240     2.1240460     0.1069910
  H       -0.5789218     3.1051757     0.1622364
  H       -3.3011060    -0.8556610    -0.0346520
  H        2.3748870    -1.4344510     1.3537630
units angstrom
no_reorient  #important for SAPT in psi4, default
symmetry c1  #important for SAPT in psi4, default
}

set PROPERTIES_ORIGIN ["COM"]
properties('MP2/aug-cc-pvtz', properties = ['dipole'])
--------------------------------------------------------------------------

    Molecular point group: c1
  Charge       = 0
  Multiplicity = 1
  Basis Set: AUG-CC-PVTZ
    Blend: AUG-CC-PVTZ
  Basis Set: (AUG-CC-PVTZ AUX)
    Blend: AUG-CC-PVTZ-JKFIT

    Orbital Energies [Eh]
    ---------------------

    Doubly Occupied:

       1A    -20.629482     2A    -20.601185     3A    -20.587456
       4A    -20.581047     5A    -20.575027     6A    -20.568936
       7A    -11.406627     8A    -11.325913     9A    -11.320596
      10A    -11.314063    11A    -11.307318    12A    -11.306000
      13A     -1.477348    14A     -1.407497    15A     -1.397584
      16A     -1.383573    17A     -1.370631    18A     -1.351386
      19A     -1.095897    20A     -1.056491    21A     -0.956056
      22A     -0.872154    23A     -0.866894    24A     -0.800664
      25A     -0.760483    26A     -0.741704    27A     -0.717943
      28A     -0.706166    29A     -0.690501    30A     -0.683849
      31A     -0.653732    32A     -0.643298    33A     -0.628392
      34A     -0.615589    35A     -0.613869    36A     -0.589339
      37A     -0.582168    38A     -0.556879    39A     -0.538386
      40A     -0.533362    41A     -0.518614    42A     -0.503989
      43A     -0.482093    44A     -0.477543    45A     -0.471208
      46A     -0.463742    47A     -0.444015

  @DF-RHF Final Energy:  -682.44142627094163

   => Energetics <=

    Nuclear Repulsion Energy =            800.7905577492958855
    One-Electron Energy =               -2528.1105861537339479
    Two-Electron Energy =                1044.8786021334963152
    Total Energy =                       -682.4414262709417471
  Basis Set: (AUG-CC-PVTZ AUX)
    Blend: AUG-CC-PVTZ-RI
    Molecular point group: c1

    Geometry (in Angstrom), charge = 0, multiplicity = 1:

       Center              X                  Y                   Z               Mass
    ------------   -----------------  -----------------  -----------------  -----------------
         O            0.375543158095    -1.474367979795    -0.131675474603    15.994914619570
         O            1.393079158095     2.066711020205    -0.421693474603    15.994914619570
         O           -1.233768841905     2.351660020205     0.464355525397    15.994914619570
         O           -2.908030841905     0.059680020205    -0.170617474603    15.994914619570
         O            2.910338158095    -0.684168979795     0.954445525397    15.994914619570
         O           -1.675938841905    -2.354566979795     0.003461525397    15.994914619570
         C            0.676694158095     0.931580020205     0.067975525397    12.000000000000
         C           -0.793108841905     1.183195020205    -0.204137474603    12.000000000000
         C            1.118006158095    -0.332767979795    -0.646803474603    12.000000000000
         C           -1.588570841905     0.010917020205     0.327289525397    12.000000000000
         C            2.577471158095    -0.672651979795    -0.428863474603    12.000000000000
         C           -0.977485841905    -1.358534979795     0.009900525397    12.000000000000
         H            0.828247158095     0.808844020205     1.147539525397     1.007825032230
         H           -0.953804841905     1.263799020205    -1.291513474603     1.007825032230
         H            0.916865158095    -0.240642979795    -1.723177474603     1.007825032230
         H           -1.575524841905     0.091967020205     1.429265525397     1.007825032230
         H            3.198718158095     0.095446020205    -0.895706474603     1.007825032230
         H            2.799993158095    -1.633832979795    -0.909902474603     1.007825032230
         H            2.209141158095     2.141191020205     0.103786525397     1.007825032230
         H           -0.547904641905     3.122320720205     0.159031925397     1.007825032230
         H           -3.270088841905    -0.838515979795    -0.037856474603     1.007825032230
         H            2.405904158095    -1.417305979795     1.350558525397     1.007825032230

  Basis Set: AUG-CC-PVTZ
    Blend: AUG-CC-PVTZ
  Basis Set: (AUG-CC-PVTZ AUX)
    Blend: AUG-CC-PVTZ-JKFIT
	 Reference Energy          =    -682.4414262709416334 [Eh]
	 Singles Energy            =      -0.0000000000000000 [Eh]
	 Same-Spin Energy          =      -0.6637403192553588 [Eh]
	 Opposite-Spin Energy      =      -2.0141175002759710 [Eh]
	 Correlation Energy        =      -2.6778578195313298 [Eh]
	 Total Energy              =    -685.1192840904730019 [Eh]

	 ================> DF-SCS-MP2 Energies <==================
	-----------------------------------------------------------
	 SCS Same-Spin Scale       =       0.3333333333333333 [-]
	 SCS Opposite-Spin Scale   =       1.2000000000000000 [-]
	 SCS Same-Spin Energy      =      -0.2212467730851196 [Eh]
	 SCS Opposite-Spin Energy  =      -2.4169410003311653 [Eh]
	 SCS Correlation Energy    =      -2.6381877734162851 [Eh]
	 SCS Total Energy          =    -685.0796140443578679 [Eh]
	-----------------------------------------------------------

  Dipole Moment: [D]
     X:     3.4566      Y:     0.6520      Z:    -0.2842     Total:     3.5290

*** Psi4 exiting successfully. Buy a developer a beer!
