                               Psi4 1.4a3.dev225

  ==> Input File <==

--------------------------------------------------------------------------
#psi4
#
memory 32 gb

molecule  {
0 1
  N        1.6268380     0.6089620    -0.4693990
  C        0.3031040     0.1485790    -0.2066970
  C       -0.7706010     1.0561020    -0.0842670
  C        0.0806060    -1.2405240    -0.1151990
  C       -2.0579110     0.5582020     0.1415980
  C       -1.2176000    -1.6989120     0.1341680
  C       -2.2850370    -0.8120180     0.2620550
  C       -0.5406870     2.5426280    -0.1993030
  C        1.2072340    -2.2197810    -0.3093320
  C        2.5023020     0.6131830     0.7097540
  H       -2.8885640     1.2560570     0.2350690
  H       -1.3937740    -2.7714120     0.2029680
  H        1.5916390     1.5501200    -0.8540680
  H       -3.2895990    -1.1861590     0.4450020
  H        0.2351210     2.8885850     0.4923550
  H       -0.2242247     2.8499603    -1.2579825
  H       -1.4595390     3.0868260     0.0338520
  H        1.9415750    -1.8136360    -1.0094830
  H        1.7264620    -2.4417900     0.6300600
  H        0.8237630    -3.1662910    -0.7010550
  H        2.0935470     1.1833990     1.5571020
  H        3.4676080     1.0418550     0.4271840
  H        2.6734620    -0.4116070     1.0419720
units angstrom
no_reorient  #important for SAPT in psi4, default
symmetry c1  #important for SAPT in psi4, default
}

set PROPERTIES_ORIGIN ["COM"]
properties('MP2/aug-cc-pvtz', properties = ['dipole'])
--------------------------------------------------------------------------

    Molecular point group: c1
  Charge       = 0
  Multiplicity = 1
  Basis Set: AUG-CC-PVTZ
    Blend: AUG-CC-PVTZ
  Basis Set: (AUG-CC-PVTZ AUX)
    Blend: AUG-CC-PVTZ-JKFIT

    Orbital Energies [Eh]
    ---------------------

    Doubly Occupied:

       1A    -15.553706     2A    -11.258485     3A    -11.249682
       4A    -11.236363     5A    -11.234368     6A    -11.232193
       7A    -11.225722     8A    -11.224496     9A    -11.223279
      10A    -11.214225    11A     -1.226552    12A     -1.131005
      13A     -1.053911    14A     -1.012091    15A     -0.944152
      16A     -0.920814    17A     -0.891970    18A     -0.794086
      19A     -0.781287    20A     -0.692388    21A     -0.660948
      22A     -0.629602    23A     -0.602664    24A     -0.590027
      25A     -0.578909    26A     -0.568953    27A     -0.562792
      28A     -0.554199    29A     -0.551700    30A     -0.530740
      31A     -0.520952    32A     -0.485560    33A     -0.476893
      34A     -0.470498    35A     -0.402497    36A     -0.317132
      37A     -0.302828

  @DF-RHF Final Energy:  -402.95969725249466

   => Energetics <=

    Nuclear Repulsion Energy =            521.0975008725987436
    One-Electron Energy =               -1578.2990517725359041
    Two-Electron Energy =                 654.2418536474423263
    Total Energy =                       -402.9596972524947205
  Basis Set: (AUG-CC-PVTZ AUX)
    Blend: AUG-CC-PVTZ-RI
    Molecular point group: c1

    Geometry (in Angstrom), charge = 0, multiplicity = 1:

       Center              X                  Y                   Z               Mass
    ------------   -----------------  -----------------  -----------------  -----------------
         N            1.665499971242     0.623921342418    -0.459576972086    14.003074004430
         C            0.341765971242     0.163538342418    -0.196874972086    12.000000000000
         C           -0.731939028758     1.071061342418    -0.074444972086    12.000000000000
         C            0.119267971242    -1.225564657582    -0.105376972086    12.000000000000
         C           -2.019249028758     0.573161342418     0.151420027914    12.000000000000
         C           -1.178938028758    -1.683952657582     0.143990027914    12.000000000000
         C           -2.246375028758    -0.797058657582     0.271877027914    12.000000000000
         C           -0.502025028758     2.557587342418    -0.189480972086    12.000000000000
         C            1.245895971242    -2.204821657582    -0.299509972086    12.000000000000
         C            2.540963971242     0.628142342418     0.719576027914    12.000000000000
         H           -2.849902028758     1.271016342418     0.244891027914     1.007825032230
         H           -1.355112028758    -2.756452657582     0.212790027914     1.007825032230
         H            1.630300971242     1.565079342418    -0.844245972086     1.007825032230
         H           -3.250937028758    -1.171199657582     0.454824027914     1.007825032230
         H            0.273782971242     2.903544342418     0.502177027914     1.007825032230
         H           -0.185562728758     2.864919642418    -1.248160472086     1.007825032230
         H           -1.420877028758     3.101785342418     0.043674027914     1.007825032230
         H            1.980236971242    -1.798676657582    -0.999660972086     1.007825032230
         H            1.765123971242    -2.426830657582     0.639882027914     1.007825032230
         H            0.862424971242    -3.151331657582    -0.691232972086     1.007825032230
         H            2.132208971242     1.198358342418     1.566924027914     1.007825032230
         H            3.506269971242     1.056814342418     0.437006027914     1.007825032230
         H            2.712123971242    -0.396647657582     1.051794027914     1.007825032230

  Basis Set: AUG-CC-PVTZ
    Blend: AUG-CC-PVTZ
  Basis Set: (AUG-CC-PVTZ AUX)
    Blend: AUG-CC-PVTZ-JKFIT
	 Reference Energy          =    -402.9596972524946636 [Eh]
	 Singles Energy            =      -0.0000000000000000 [Eh]
	 Same-Spin Energy          =      -0.4480059421785900 [Eh]
	 Opposite-Spin Energy      =      -1.4662484853726756 [Eh]
	 Correlation Energy        =      -1.9142544275512656 [Eh]
	 Total Energy              =    -404.8739516800459342 [Eh]

	 ================> DF-SCS-MP2 Energies <==================
	-----------------------------------------------------------
	 SCS Same-Spin Scale       =       0.3333333333333333 [-]
	 SCS Opposite-Spin Scale   =       1.2000000000000000 [-]
	 SCS Same-Spin Energy      =      -0.1493353140595300 [Eh]
	 SCS Opposite-Spin Energy  =      -1.7594981824472107 [Eh]
	 SCS Correlation Energy    =      -1.9088334965067406 [Eh]
	 SCS Total Energy          =    -404.8685307490014225 [Eh]
	-----------------------------------------------------------

  Dipole Moment: [D]
     X:     0.5283      Y:     1.0488      Z:     0.5431     Total:     1.2938

*** Psi4 exiting successfully. Buy a developer a beer!
