                               Psi4 1.4a3.dev225

  ==> Input File <==

--------------------------------------------------------------------------
#psi4
#
memory 32 gb

molecule  {
0 1
  N        1.6268380     0.6089620    -0.4693990
  C        0.3031040     0.1485790    -0.2066970
  C       -0.7706010     1.0561020    -0.0842670
  C        0.0806060    -1.2405240    -0.1151990
  C       -2.0579110     0.5582020     0.1415980
  C       -1.2176000    -1.6989120     0.1341680
  C       -2.2850370    -0.8120180     0.2620550
  C       -0.5406870     2.5426280    -0.1993030
  C        1.2072340    -2.2197810    -0.3093320
  C        2.4426908     0.6128956     0.6294644
  H       -2.8885640     1.2560570     0.2350690
  H       -1.3937740    -2.7714120     0.2029680
  H        1.5916390     1.5501200    -0.8540680
  H       -3.2895990    -1.1861590     0.4450020
  H        0.2351210     2.8885850     0.4923550
  H       -0.2380210     2.8365620    -1.2118290
  H       -1.4595390     3.0868260     0.0338520
  H        1.9415750    -1.8136360    -1.0094830
  H        1.7264620    -2.4417900     0.6300600
  H        0.8237630    -3.1662910    -0.7010550
  H        2.0935470     1.1833990     1.5571020
  H        3.4676080     1.0418550     0.4271840
  H        2.6734620    -0.4116070     1.0419720
units angstrom
no_reorient  #important for SAPT in psi4, default
symmetry c1  #important for SAPT in psi4, default
}

set PROPERTIES_ORIGIN ["COM"]
properties('MP2/aug-cc-pvtz', properties = ['dipole'])
--------------------------------------------------------------------------

    Molecular point group: c1
  Charge       = 0
  Multiplicity = 1
  Basis Set: AUG-CC-PVTZ
    Blend: AUG-CC-PVTZ
  Basis Set: (AUG-CC-PVTZ AUX)
    Blend: AUG-CC-PVTZ-JKFIT

    Orbital Energies [Eh]
    ---------------------

    Doubly Occupied:

       1A    -15.554982     2A    -11.260763     3A    -11.252738
       4A    -11.238426     5A    -11.234401     6A    -11.229695
       7A    -11.227093     8A    -11.225958     9A    -11.224579
      10A    -11.215052    11A     -1.250845    12A     -1.137582
      13A     -1.056177    14A     -1.016736    15A     -0.945803
      16A     -0.923375    17A     -0.883408    18A     -0.798293
      19A     -0.783242    20A     -0.699512    21A     -0.667691
      22A     -0.633393    23A     -0.622478    24A     -0.590011
      25A     -0.580934    26A     -0.569077    27A     -0.567458
      28A     -0.557421    29A     -0.554896    30A     -0.522538
      31A     -0.513345    32A     -0.483365    33A     -0.474335
      34A     -0.472804    35A     -0.394969    36A     -0.318567
      37A     -0.306521

  @DF-RHF Final Energy:  -402.95121115192222

   => Energetics <=

    Nuclear Repulsion Energy =            523.1683739723721374
    One-Electron Energy =               -1582.2622478537325605
    Two-Electron Energy =                 656.1426627294381433
    Total Energy =                       -402.9512111519222799
  Basis Set: (AUG-CC-PVTZ AUX)
    Blend: AUG-CC-PVTZ-RI
    Molecular point group: c1

    Geometry (in Angstrom), charge = 0, multiplicity = 1:

       Center              X                  Y                   Z               Mass
    ------------   -----------------  -----------------  -----------------  -----------------
         N            1.670897548972     0.624046814956    -0.452789940454    14.003074004430
         C            0.347163548972     0.163663814956    -0.190087940454    12.000000000000
         C           -0.726541451028     1.071186814956    -0.067657940454    12.000000000000
         C            0.124665548972    -1.225439185044    -0.098589940454    12.000000000000
         C           -2.013851451028     0.573286814956     0.158207059546    12.000000000000
         C           -1.173540451028    -1.683827185044     0.150777059546    12.000000000000
         C           -2.240977451028    -0.796933185044     0.278664059546    12.000000000000
         C           -0.496627451028     2.557712814956    -0.182693940454    12.000000000000
         C            1.251293548972    -2.204696185044    -0.292722940454    12.000000000000
         C            2.486750348972     0.627980414956     0.646073459546    12.000000000000
         H           -2.844504451028     1.271141814956     0.251678059546     1.007825032230
         H           -1.349714451028    -2.756327185044     0.219577059546     1.007825032230
         H            1.635698548972     1.565204814956    -0.837458940454     1.007825032230
         H           -3.245539451028    -1.171074185044     0.461611059546     1.007825032230
         H            0.279180548972     2.903669814956     0.508964059546     1.007825032230
         H           -0.193961451028     2.851646814956    -1.195219940454     1.007825032230
         H           -1.415479451028     3.101910814956     0.050461059546     1.007825032230
         H            1.985634548972    -1.798551185044    -0.992873940454     1.007825032230
         H            1.770521548972    -2.426705185044     0.646669059546     1.007825032230
         H            0.867822548972    -3.151206185044    -0.684445940454     1.007825032230
         H            2.137606548972     1.198483814956     1.573711059546     1.007825032230
         H            3.511667548972     1.056939814956     0.443793059546     1.007825032230
         H            2.717521548972    -0.396522185044     1.058581059546     1.007825032230

  Basis Set: AUG-CC-PVTZ
    Blend: AUG-CC-PVTZ
  Basis Set: (AUG-CC-PVTZ AUX)
    Blend: AUG-CC-PVTZ-JKFIT
	 Reference Energy          =    -402.9512111519222231 [Eh]
	 Singles Energy            =      -0.0000000000000000 [Eh]
	 Same-Spin Energy          =      -0.4487766459220733 [Eh]
	 Opposite-Spin Energy      =      -1.4663188000503777 [Eh]
	 Correlation Energy        =      -1.9150954459724510 [Eh]
	 Total Energy              =    -404.8663065978946634 [Eh]

	 ================> DF-SCS-MP2 Energies <==================
	-----------------------------------------------------------
	 SCS Same-Spin Scale       =       0.3333333333333333 [-]
	 SCS Opposite-Spin Scale   =       1.2000000000000000 [-]
	 SCS Same-Spin Energy      =      -0.1495922153073578 [Eh]
	 SCS Opposite-Spin Energy  =      -1.7595825600604533 [Eh]
	 SCS Correlation Energy    =      -1.9091747753678110 [Eh]
	 SCS Total Energy          =    -404.8603859272900536 [Eh]
	-----------------------------------------------------------

  Dipole Moment: [D]
     X:     0.3023      Y:     1.0106      Z:     0.3005     Total:     1.0968

*** Psi4 exiting successfully. Buy a developer a beer!
