                               Psi4 1.4a3.dev225

  ==> Input File <==

--------------------------------------------------------------------------
#psi4
#
memory 32 gb

molecule  {
0 1
  N        1.6268380     0.6089620    -0.4693990
  C        0.3031040     0.1485790    -0.2066970
  C       -0.7706010     1.0561020    -0.0842670
  C        0.0806060    -1.2405240    -0.1151990
  C       -2.0579110     0.5582020     0.1415980
  C       -1.2176000    -1.6989120     0.1341680
  C       -2.2084460    -0.8756546     0.2528788
  C       -0.5406870     2.5426280    -0.1993030
  C        1.2072340    -2.2197810    -0.3093320
  C        2.5023020     0.6131830     0.7097540
  H       -2.8885640     1.2560570     0.2350690
  H       -1.3937740    -2.7714120     0.2029680
  H        1.5916390     1.5501200    -0.8540680
  H       -3.2895990    -1.1861590     0.4450020
  H        0.2351210     2.8885850     0.4923550
  H       -0.2380210     2.8365620    -1.2118290
  H       -1.4595390     3.0868260     0.0338520
  H        1.9415750    -1.8136360    -1.0094830
  H        1.7264620    -2.4417900     0.6300600
  H        0.8237630    -3.1662910    -0.7010550
  H        2.0935470     1.1833990     1.5571020
  H        3.4676080     1.0418550     0.4271840
  H        2.6734620    -0.4116070     1.0419720
units angstrom
no_reorient  #important for SAPT in psi4, default
symmetry c1  #important for SAPT in psi4, default
}

set PROPERTIES_ORIGIN ["COM"]
properties('MP2/aug-cc-pvtz', properties = ['dipole'])
--------------------------------------------------------------------------

    Molecular point group: c1
  Charge       = 0
  Multiplicity = 1
  Basis Set: AUG-CC-PVTZ
    Blend: AUG-CC-PVTZ
  Basis Set: (AUG-CC-PVTZ AUX)
    Blend: AUG-CC-PVTZ-JKFIT

    Orbital Energies [Eh]
    ---------------------

    Doubly Occupied:

       1A    -15.553176     2A    -11.256604     3A    -11.249145
       4A    -11.236951     5A    -11.231559     6A    -11.228802
       7A    -11.228496     8A    -11.222477     9A    -11.214029
      10A    -11.211518    11A     -1.226313    12A     -1.137025
      13A     -1.056904    14A     -1.014649    15A     -0.945501
      16A     -0.926729    17A     -0.889242    18A     -0.787663
      19A     -0.784875    20A     -0.693893    21A     -0.664258
      22A     -0.622149    23A     -0.602941    24A     -0.592291
      25A     -0.579995    26A     -0.570230    27A     -0.564809
      28A     -0.557197    29A     -0.554991    30A     -0.528975
      31A     -0.518417    32A     -0.491549    33A     -0.475967
      34A     -0.461515    35A     -0.403835    36A     -0.325007
      37A     -0.299171

  @DF-RHF Final Energy:  -402.94825364336725

   => Energetics <=

    Nuclear Repulsion Energy =            522.4197495571447689
    One-Electron Energy =               -1580.9183135039459103
    Two-Electron Energy =                 655.5503103034338892
    Total Energy =                       -402.9482536433672522
  Basis Set: (AUG-CC-PVTZ AUX)
    Blend: AUG-CC-PVTZ-RI
    Molecular point group: c1

    Geometry (in Angstrom), charge = 0, multiplicity = 1:

       Center              X                  Y                   Z               Mass
    ------------   -----------------  -----------------  -----------------  -----------------
         N            1.658800077920     0.629673487016    -0.459106228281    14.003074004430
         C            0.335066077920     0.169290487016    -0.196404228281    12.000000000000
         C           -0.738638922080     1.076813487016    -0.073974228281    12.000000000000
         C            0.112568077920    -1.219812512984    -0.104906228281    12.000000000000
         C           -2.025948922080     0.578913487016     0.151890771719    12.000000000000
         C           -1.185637922080    -1.678200512984     0.144460771719    12.000000000000
         C           -2.176483922080    -0.854943112984     0.263171571719    12.000000000000
         C           -0.508724922080     2.563339487016    -0.189010228281    12.000000000000
         C            1.239196077920    -2.199069512984    -0.299039228281    12.000000000000
         C            2.534264077920     0.633894487016     0.720046771719    12.000000000000
         H           -2.856601922080     1.276768487016     0.245361771719     1.007825032230
         H           -1.361811922080    -2.750700512984     0.213260771719     1.007825032230
         H            1.623601077920     1.570831487016    -0.843775228281     1.007825032230
         H           -3.257636922080    -1.165447512984     0.455294771719     1.007825032230
         H            0.267083077920     2.909296487016     0.502647771719     1.007825032230
         H           -0.206058922080     2.857273487016    -1.201536228281     1.007825032230
         H           -1.427576922080     3.107537487016     0.044144771719     1.007825032230
         H            1.973537077920    -1.792924512984    -0.999190228281     1.007825032230
         H            1.758424077920    -2.421078512984     0.640352771719     1.007825032230
         H            0.855725077920    -3.145579512984    -0.690762228281     1.007825032230
         H            2.125509077920     1.204110487016     1.567394771719     1.007825032230
         H            3.499570077920     1.062566487016     0.437476771719     1.007825032230
         H            2.705424077920    -0.390895512984     1.052264771719     1.007825032230

  Basis Set: AUG-CC-PVTZ
    Blend: AUG-CC-PVTZ
  Basis Set: (AUG-CC-PVTZ AUX)
    Blend: AUG-CC-PVTZ-JKFIT
	 Reference Energy          =    -402.9482536433672522 [Eh]
	 Singles Energy            =      -0.0000000000000000 [Eh]
	 Same-Spin Energy          =      -0.4478166805183348 [Eh]
	 Opposite-Spin Energy      =      -1.4660692666535997 [Eh]
	 Correlation Energy        =      -1.9138859471719345 [Eh]
	 Total Energy              =    -404.8621395905391864 [Eh]

	 ================> DF-SCS-MP2 Energies <==================
	-----------------------------------------------------------
	 SCS Same-Spin Scale       =       0.3333333333333333 [-]
	 SCS Opposite-Spin Scale   =       1.2000000000000000 [-]
	 SCS Same-Spin Energy      =      -0.1492722268394449 [Eh]
	 SCS Opposite-Spin Energy  =      -1.7592831199843195 [Eh]
	 SCS Correlation Energy    =      -1.9085553468237644 [Eh]
	 SCS Total Energy          =    -404.8568089901910412 [Eh]
	-----------------------------------------------------------

  Dipole Moment: [D]
     X:     0.5330      Y:     1.0985      Z:     0.5174     Total:     1.3261

*** Psi4 exiting successfully. Buy a developer a beer!
