                               Psi4 1.4a3.dev225

  ==> Input File <==

--------------------------------------------------------------------------
#psi4
#
memory 32 gb

molecule  {
0 1
  N        1.6268380     0.6089620    -0.4693990
  C        0.3031040     0.1485790    -0.2066970
  C       -0.7706010     1.0561020    -0.0842670
  C        0.0369861    -1.3094698    -0.0489938
  C       -2.0579110     0.5582020     0.1415980
  C       -1.2176000    -1.6989120     0.1341680
  C       -2.2850370    -0.8120180     0.2620550
  C       -0.5406870     2.5426280    -0.1993030
  C        1.2072340    -2.2197810    -0.3093320
  C        2.5023020     0.6131830     0.7097540
  H       -2.8885640     1.2560570     0.2350690
  H       -1.3937740    -2.7714120     0.2029680
  H        1.5916390     1.5501200    -0.8540680
  H       -3.2895990    -1.1861590     0.4450020
  H        0.2351210     2.8885850     0.4923550
  H       -0.2380210     2.8365620    -1.2118290
  H       -1.4595390     3.0868260     0.0338520
  H        1.9415750    -1.8136360    -1.0094830
  H        1.7264620    -2.4417900     0.6300600
  H        0.8237630    -3.1662910    -0.7010550
  H        2.0935470     1.1833990     1.5571020
  H        3.4676080     1.0418550     0.4271840
  H        2.6734620    -0.4116070     1.0419720
units angstrom
no_reorient  #important for SAPT in psi4, default
symmetry c1  #important for SAPT in psi4, default
}

set PROPERTIES_ORIGIN ["COM"]
properties('MP2/aug-cc-pvtz', properties = ['dipole'])
--------------------------------------------------------------------------

    Molecular point group: c1
  Charge       = 0
  Multiplicity = 1
  Basis Set: AUG-CC-PVTZ
    Blend: AUG-CC-PVTZ
  Basis Set: (AUG-CC-PVTZ AUX)
    Blend: AUG-CC-PVTZ-JKFIT

    Orbital Energies [Eh]
    ---------------------

    Doubly Occupied:

       1A    -15.556908     2A    -11.266146     3A    -11.250829
       4A    -11.233149     5A    -11.232208     6A    -11.227414
       7A    -11.225719     8A    -11.223209     9A    -11.215038
      10A    -11.214682    11A     -1.225102    12A     -1.133982
      13A     -1.058921    14A     -1.008883    15A     -0.942173
      16A     -0.927490    17A     -0.890649    18A     -0.798231
      19A     -0.774919    20A     -0.692228    21A     -0.663557
      22A     -0.628197    23A     -0.603225    24A     -0.592472
      25A     -0.575388    26A     -0.570460    27A     -0.563789
      28A     -0.559711    29A     -0.554210    30A     -0.532003
      31A     -0.520777    32A     -0.493696    33A     -0.472533
      34A     -0.462143    35A     -0.403341    36A     -0.327123
      37A     -0.293219

  @DF-RHF Final Energy:  -402.95089449182183

   => Energetics <=

    Nuclear Repulsion Energy =            520.7514909207465053
    One-Electron Energy =               -1577.5773161743145465
    Two-Electron Energy =                 653.8749307617461000
    Total Energy =                       -402.9508944918218276
  Basis Set: (AUG-CC-PVTZ AUX)
    Blend: AUG-CC-PVTZ-RI
    Molecular point group: c1

    Geometry (in Angstrom), charge = 0, multiplicity = 1:

       Center              X                  Y                   Z               Mass
    ------------   -----------------  -----------------  -----------------  -----------------
         N            1.669477202686     0.630145049834    -0.465801599606    14.003074004430
         C            0.345743202686     0.169762049834    -0.203099599606    12.000000000000
         C           -0.727961797314     1.077285049834    -0.080669599606    12.000000000000
         C            0.079625302686    -1.288286750166    -0.045396399606    12.000000000000
         C           -2.015271797314     0.579385049834     0.145195400394    12.000000000000
         C           -1.174960797314    -1.677728950166     0.137765400394    12.000000000000
         C           -2.242397797314    -0.790834950166     0.265652400394    12.000000000000
         C           -0.498047797314     2.563811049834    -0.195705599606    12.000000000000
         C            1.249873202686    -2.198597950166    -0.305734599606    12.000000000000
         C            2.544941202686     0.634366049834     0.713351400394    12.000000000000
         H           -2.845924797314     1.277240049834     0.238666400394     1.007825032230
         H           -1.351134797314    -2.750228950166     0.206565400394     1.007825032230
         H            1.634278202686     1.571303049834    -0.850470599606     1.007825032230
         H           -3.246959797314    -1.164975950166     0.448599400394     1.007825032230
         H            0.277760202686     2.909768049834     0.495952400394     1.007825032230
         H           -0.195381797314     2.857745049834    -1.208231599606     1.007825032230
         H           -1.416899797314     3.108009049834     0.037449400394     1.007825032230
         H            1.984214202686    -1.792452950166    -1.005885599606     1.007825032230
         H            1.769101202686    -2.420606950166     0.633657400394     1.007825032230
         H            0.866402202686    -3.145107950166    -0.697457599606     1.007825032230
         H            2.136186202686     1.204582049834     1.560699400394     1.007825032230
         H            3.510247202686     1.063038049834     0.430781400394     1.007825032230
         H            2.716101202686    -0.390423950166     1.045569400394     1.007825032230

  Basis Set: AUG-CC-PVTZ
    Blend: AUG-CC-PVTZ
  Basis Set: (AUG-CC-PVTZ AUX)
    Blend: AUG-CC-PVTZ-JKFIT
	 Reference Energy          =    -402.9508944918218276 [Eh]
	 Singles Energy            =      -0.0000000000000000 [Eh]
	 Same-Spin Energy          =      -0.4479868631823922 [Eh]
	 Opposite-Spin Energy      =      -1.4664835738110367 [Eh]
	 Correlation Energy        =      -1.9144704369934289 [Eh]
	 Total Energy              =    -404.8653649288152678 [Eh]

	 ================> DF-SCS-MP2 Energies <==================
	-----------------------------------------------------------
	 SCS Same-Spin Scale       =       0.3333333333333333 [-]
	 SCS Opposite-Spin Scale   =       1.2000000000000000 [-]
	 SCS Same-Spin Energy      =      -0.1493289543941307 [Eh]
	 SCS Opposite-Spin Energy  =      -1.7597802885732439 [Eh]
	 SCS Correlation Energy    =      -1.9091092429673746 [Eh]
	 SCS Total Energy          =    -404.8600037347891885 [Eh]
	-----------------------------------------------------------

  Dipole Moment: [D]
     X:     0.6311      Y:     1.0931      Z:     0.4873     Total:     1.3530

*** Psi4 exiting successfully. Buy a developer a beer!
