                               Psi4 1.4a3.dev225

  ==> Input File <==

--------------------------------------------------------------------------
#psi4
#
memory 32 gb

molecule  {
0 1
  N        1.6268380     0.6089620    -0.4693990
  C        0.3031040     0.1485790    -0.2066970
  C       -0.7706010     1.0561020    -0.0842670
  C        0.0806060    -1.2405240    -0.1151990
  C       -2.0579110     0.5582020     0.1415980
  C       -1.2176000    -1.6989120     0.1341680
  C       -2.2850370    -0.8120180     0.2620550
  C       -0.5406870     2.5426280    -0.1993030
  C        1.2072340    -2.2197810    -0.3093320
  C        2.5023020     0.6131830     0.7097540
  H       -2.8885640     1.2560570     0.2350690
  H       -1.3937740    -2.7714120     0.2029680
  H        1.5916390     1.5501200    -0.8540680
  H       -3.2895990    -1.1861590     0.4450020
  H        0.2897850     2.9303726     0.4006348
  H       -0.2380210     2.8365620    -1.2118290
  H       -1.4595390     3.0868260     0.0338520
  H        1.9415750    -1.8136360    -1.0094830
  H        1.7264620    -2.4417900     0.6300600
  H        0.8237630    -3.1662910    -0.7010550
  H        2.0935470     1.1833990     1.5571020
  H        3.4676080     1.0418550     0.4271840
  H        2.6734620    -0.4116070     1.0419720
units angstrom
no_reorient  #important for SAPT in psi4, default
symmetry c1  #important for SAPT in psi4, default
}

set PROPERTIES_ORIGIN ["COM"]
properties('MP2/aug-cc-pvtz', properties = ['dipole'])
--------------------------------------------------------------------------

    Molecular point group: c1
  Charge       = 0
  Multiplicity = 1
  Basis Set: AUG-CC-PVTZ
    Blend: AUG-CC-PVTZ
  Basis Set: (AUG-CC-PVTZ AUX)
    Blend: AUG-CC-PVTZ-JKFIT

    Orbital Energies [Eh]
    ---------------------

    Doubly Occupied:

       1A    -15.554110     2A    -11.258483     3A    -11.249688
       4A    -11.236823     5A    -11.232204     6A    -11.228530
       7A    -11.225847     8A    -11.224563     9A    -11.223264
      10A    -11.214239    11A     -1.226784    12A     -1.131074
      13A     -1.054389    14A     -1.012530    15A     -0.945561
      16A     -0.922755    17A     -0.892328    18A     -0.795412
      19A     -0.781572    20A     -0.693745    21A     -0.661042
      22A     -0.630560    23A     -0.602862    24A     -0.590682
      25A     -0.578845    26A     -0.568997    27A     -0.561751
      28A     -0.556992    29A     -0.552065    30A     -0.530845
      31A     -0.523619    32A     -0.485515    33A     -0.478317
      34A     -0.470189    35A     -0.402691    36A     -0.317001
      37A     -0.302877

  @DF-RHF Final Energy:  -402.96048989966732

   => Energetics <=

    Nuclear Repulsion Energy =            521.2566230270498409
    One-Electron Energy =               -1578.5967208955037222
    Two-Electron Energy =                 654.3796079687866722
    Total Energy =                       -402.9604898996673228
  Basis Set: (AUG-CC-PVTZ AUX)
    Blend: AUG-CC-PVTZ-RI
    Molecular point group: c1

    Geometry (in Angstrom), charge = 0, multiplicity = 1:

       Center              X                  Y                   Z               Mass
    ------------   -----------------  -----------------  -----------------  -----------------
         N            1.665195115373     0.623709570169    -0.459237063651    14.003074004430
         C            0.341461115373     0.163326570169    -0.196535063651    12.000000000000
         C           -0.732243884627     1.070849570169    -0.074105063651    12.000000000000
         C            0.118963115373    -1.225776429831    -0.105037063651    12.000000000000
         C           -2.019553884627     0.572949570169     0.151759936349    12.000000000000
         C           -1.179242884627    -1.684164429831     0.144329936349    12.000000000000
         C           -2.246679884627    -0.797270429831     0.272216936349    12.000000000000
         C           -0.502329884627     2.557375570169    -0.189141063651    12.000000000000
         C            1.245591115373    -2.205033429831    -0.299170063651    12.000000000000
         C            2.540659115373     0.627930570169     0.719915936349    12.000000000000
         H           -2.850206884627     1.270804570169     0.245230936349     1.007825032230
         H           -1.355416884627    -2.756664429831     0.213129936349     1.007825032230
         H            1.629996115373     1.564867570169    -0.843906063651     1.007825032230
         H           -3.251241884627    -1.171411429831     0.455163936349     1.007825032230
         H            0.328142115373     2.945120170169     0.410796736349     1.007825032230
         H           -0.199663884627     2.851309570169    -1.201667063651     1.007825032230
         H           -1.421181884627     3.101573570169     0.044013936349     1.007825032230
         H            1.979932115373    -1.798888429831    -0.999321063651     1.007825032230
         H            1.764819115373    -2.427042429831     0.640221936349     1.007825032230
         H            0.862120115373    -3.151543429831    -0.690893063651     1.007825032230
         H            2.131904115373     1.198146570169     1.567263936349     1.007825032230
         H            3.505965115373     1.056602570169     0.437345936349     1.007825032230
         H            2.711819115373    -0.396859429831     1.052133936349     1.007825032230

  Basis Set: AUG-CC-PVTZ
    Blend: AUG-CC-PVTZ
  Basis Set: (AUG-CC-PVTZ AUX)
    Blend: AUG-CC-PVTZ-JKFIT
	 Reference Energy          =    -402.9604898996673228 [Eh]
	 Singles Energy            =      -0.0000000000000000 [Eh]
	 Same-Spin Energy          =      -0.4480660996571855 [Eh]
	 Opposite-Spin Energy      =      -1.4659429051349622 [Eh]
	 Correlation Energy        =      -1.9140090047921476 [Eh]
	 Total Energy              =    -404.8744989044594718 [Eh]

	 ================> DF-SCS-MP2 Energies <==================
	-----------------------------------------------------------
	 SCS Same-Spin Scale       =       0.3333333333333333 [-]
	 SCS Opposite-Spin Scale   =       1.2000000000000000 [-]
	 SCS Same-Spin Energy      =      -0.1493553665523952 [Eh]
	 SCS Opposite-Spin Energy  =      -1.7591314861619545 [Eh]
	 SCS Correlation Energy    =      -1.9084868527143497 [Eh]
	 SCS Total Energy          =    -404.8689767523816840 [Eh]
	-----------------------------------------------------------

  Dipole Moment: [D]
     X:     0.5606      Y:     1.0669      Z:     0.4998     Total:     1.3047

*** Psi4 exiting successfully. Buy a developer a beer!
