                               Psi4 1.4a3.dev225

  ==> Input File <==

--------------------------------------------------------------------------
#psi4
#
memory 32 gb

molecule  {
0 1
  N        1.6268380     0.6089620    -0.4693990
  C        0.3031040     0.1485790    -0.2066970
  C       -0.7706010     1.0561020    -0.0842670
  C        0.0806060    -1.2405240    -0.1151990
  C       -2.0579110     0.5582020     0.1415980
  C       -1.2176000    -1.6989120     0.1341680
  C       -2.2850370    -0.8120180     0.2620550
  C       -0.5406870     2.5426280    -0.1993030
  C        1.2072340    -2.2197810    -0.3093320
  C        2.5023020     0.6131830     0.7097540
  H       -2.8885640     1.2560570     0.2350690
  H       -1.3937740    -2.7714120     0.2029680
  H        1.5916390     1.5501200    -0.8540680
  H       -3.2895990    -1.1861590     0.4450020
  H        0.2351210     2.8885850     0.4923550
  H       -0.2518173     2.8231637    -1.1656755
  H       -1.4595390     3.0868260     0.0338520
  H        1.9415750    -1.8136360    -1.0094830
  H        1.7264620    -2.4417900     0.6300600
  H        0.8237630    -3.1662910    -0.7010550
  H        2.0935470     1.1833990     1.5571020
  H        3.4676080     1.0418550     0.4271840
  H        2.6734620    -0.4116070     1.0419720
units angstrom
no_reorient  #important for SAPT in psi4, default
symmetry c1  #important for SAPT in psi4, default
}

set PROPERTIES_ORIGIN ["COM"]
properties('MP2/aug-cc-pvtz', properties = ['dipole'])
--------------------------------------------------------------------------

    Molecular point group: c1
  Charge       = 0
  Multiplicity = 1
  Basis Set: AUG-CC-PVTZ
    Blend: AUG-CC-PVTZ
  Basis Set: (AUG-CC-PVTZ AUX)
    Blend: AUG-CC-PVTZ-JKFIT

    Orbital Energies [Eh]
    ---------------------

    Doubly Occupied:

       1A    -15.553902     2A    -11.258012     3A    -11.249612
       4A    -11.235503     5A    -11.231907     6A    -11.225110
       7A    -11.223984     8A    -11.222793     9A    -11.222190
      10A    -11.214047    11A     -1.226579    12A     -1.130726
      13A     -1.055145    14A     -1.012894    15A     -0.947051
      16A     -0.923563    17A     -0.892178    18A     -0.795370
      19A     -0.781303    20A     -0.692848    21A     -0.660554
      22A     -0.629559    23A     -0.605160    24A     -0.593446
      25A     -0.578920    26A     -0.569256    27A     -0.568560
      28A     -0.557724    29A     -0.552056    30A     -0.530696
      31A     -0.521041    32A     -0.485145    33A     -0.477193
      34A     -0.471050    35A     -0.402464    36A     -0.317077
      37A     -0.302686

  @DF-RHF Final Energy:  -402.96081234971052

   => Energetics <=

    Nuclear Repulsion Energy =            521.5423439495307321
    One-Electron Energy =               -1579.1717101790090965
    Two-Electron Energy =                 654.6685538797678419
    Total Energy =                       -402.9608123497105225
  Basis Set: (AUG-CC-PVTZ AUX)
    Blend: AUG-CC-PVTZ-RI
    Molecular point group: c1

    Geometry (in Angstrom), charge = 0, multiplicity = 1:

       Center              X                  Y                   Z               Mass
    ------------   -----------------  -----------------  -----------------  -----------------
         N            1.665705800444     0.624121233794    -0.460265543518    14.003074004430
         C            0.341971800444     0.163738233794    -0.197563543518    12.000000000000
         C           -0.731733199556     1.071261233794    -0.075133543518    12.000000000000
         C            0.119473800444    -1.225364766206    -0.106065543518    12.000000000000
         C           -2.019043199556     0.573361233794     0.150731456482    12.000000000000
         C           -1.178732199556    -1.683752766206     0.143301456482    12.000000000000
         C           -2.246169199556    -0.796858766206     0.271188456482    12.000000000000
         C           -0.501819199556     2.557787233794    -0.190169543518    12.000000000000
         C            1.246101800444    -2.204621766206    -0.300198543518    12.000000000000
         C            2.541169800444     0.628342233794     0.718887456482    12.000000000000
         H           -2.849696199556     1.271216233794     0.244202456482     1.007825032230
         H           -1.354906199556    -2.756252766206     0.212101456482     1.007825032230
         H            1.630506800444     1.565279233794    -0.844934543518     1.007825032230
         H           -3.250731199556    -1.170999766206     0.454135456482     1.007825032230
         H            0.273988800444     2.903744233794     0.501488456482     1.007825032230
         H           -0.212949499556     2.838322933794    -1.156542043518     1.007825032230
         H           -1.420671199556     3.101985233794     0.042985456482     1.007825032230
         H            1.980442800444    -1.798476766206    -1.000349543518     1.007825032230
         H            1.765329800444    -2.426630766206     0.639193456482     1.007825032230
         H            0.862630800444    -3.151131766206    -0.691921543518     1.007825032230
         H            2.132414800444     1.198558233794     1.566235456482     1.007825032230
         H            3.506475800444     1.057014233794     0.436317456482     1.007825032230
         H            2.712329800444    -0.396447766206     1.051105456482     1.007825032230

  Basis Set: AUG-CC-PVTZ
    Blend: AUG-CC-PVTZ
  Basis Set: (AUG-CC-PVTZ AUX)
    Blend: AUG-CC-PVTZ-JKFIT
	 Reference Energy          =    -402.9608123497105225 [Eh]
	 Singles Energy            =      -0.0000000000000000 [Eh]
	 Same-Spin Energy          =      -0.4479829599512204 [Eh]
	 Opposite-Spin Energy      =      -1.4656459556329102 [Eh]
	 Correlation Energy        =      -1.9136289155841306 [Eh]
	 Total Energy              =    -404.8744412652946494 [Eh]

	 ================> DF-SCS-MP2 Energies <==================
	-----------------------------------------------------------
	 SCS Same-Spin Scale       =       0.3333333333333333 [-]
	 SCS Opposite-Spin Scale   =       1.2000000000000000 [-]
	 SCS Same-Spin Energy      =      -0.1493276533170735 [Eh]
	 SCS Opposite-Spin Energy  =      -1.7587751467594923 [Eh]
	 SCS Correlation Energy    =      -1.9081028000765659 [Eh]
	 SCS Total Energy          =    -404.8689151497870853 [Eh]
	-----------------------------------------------------------

  Dipole Moment: [D]
     X:     0.5485      Y:     1.0923      Z:     0.5016     Total:     1.3212

*** Psi4 exiting successfully. Buy a developer a beer!
