                               Psi4 1.4a3.dev225

  ==> Input File <==

--------------------------------------------------------------------------
#psi4
#
memory 32 gb

molecule  {
0 1
  N        1.6268380     0.6089620    -0.4693990
  C        0.3031040     0.1485790    -0.2066970
  C       -0.7706010     1.0561020    -0.0842670
  C        0.0806060    -1.2405240    -0.1151990
  C       -2.0579110     0.5582020     0.1415980
  C       -1.2176000    -1.6989120     0.1341680
  C       -2.2850370    -0.8120180     0.2620550
  C       -0.5406870     2.5426280    -0.1993030
  C        1.2072340    -2.2197810    -0.3093320
  C        2.5023020     0.6131830     0.7097540
  H       -2.8733074     1.2432395     0.2333522
  H       -1.3937740    -2.7714120     0.2029680
  H        1.5916390     1.5501200    -0.8540680
  H       -3.2895990    -1.1861590     0.4450020
  H        0.2351210     2.8885850     0.4923550
  H       -0.2380210     2.8365620    -1.2118290
  H       -1.4595390     3.0868260     0.0338520
  H        1.9415750    -1.8136360    -1.0094830
  H        1.7264620    -2.4417900     0.6300600
  H        0.8237630    -3.1662910    -0.7010550
  H        2.0935470     1.1833990     1.5571020
  H        3.4676080     1.0418550     0.4271840
  H        2.6734620    -0.4116070     1.0419720
units angstrom
no_reorient  #important for SAPT in psi4, default
symmetry c1  #important for SAPT in psi4, default
}

set PROPERTIES_ORIGIN ["COM"]
properties('MP2/aug-cc-pvtz', properties = ['dipole'])
--------------------------------------------------------------------------

    Molecular point group: c1
  Charge       = 0
  Multiplicity = 1
  Basis Set: AUG-CC-PVTZ
    Blend: AUG-CC-PVTZ
  Basis Set: (AUG-CC-PVTZ AUX)
    Blend: AUG-CC-PVTZ-JKFIT

    Orbital Energies [Eh]
    ---------------------

    Doubly Occupied:

       1A    -15.553709     2A    -11.258060     3A    -11.249585
       4A    -11.235683     5A    -11.231951     6A    -11.228405
       7A    -11.224535     8A    -11.223023     9A    -11.222313
      10A    -11.214063    11A     -1.226463    12A     -1.130873
      13A     -1.054536    14A     -1.012456    15A     -0.945347
      16A     -0.922736    17A     -0.892058    18A     -0.794574
      19A     -0.782404    20A     -0.693031    21A     -0.661662
      22A     -0.629425    23A     -0.603776    24A     -0.591487
      25A     -0.579477    26A     -0.568960    27A     -0.565288
      28A     -0.556786    29A     -0.553426    30A     -0.530645
      31A     -0.521050    32A     -0.485717    33A     -0.476939
      34A     -0.470770    35A     -0.402428    36A     -0.316976
      37A     -0.302628

  @DF-RHF Final Energy:  -402.96190270033850

   => Energetics <=

    Nuclear Repulsion Energy =            521.4194457766252526
    One-Electron Energy =               -1578.9362043537439604
    Two-Electron Energy =                 654.5548558767802660
    Total Energy =                       -402.9619027003384417
  Basis Set: (AUG-CC-PVTZ AUX)
    Blend: AUG-CC-PVTZ-RI
    Molecular point group: c1

    Geometry (in Angstrom), charge = 0, multiplicity = 1:

       Center              X                  Y                   Z               Mass
    ------------   -----------------  -----------------  -----------------  -----------------
         N            1.665489078018     0.624116901270    -0.459908451196    14.003074004430
         C            0.341755078018     0.163733901270    -0.197206451196    12.000000000000
         C           -0.731949921982     1.071256901270    -0.074776451196    12.000000000000
         C            0.119257078018    -1.225369098730    -0.105708451196    12.000000000000
         C           -2.019259921982     0.573356901270     0.151088548804    12.000000000000
         C           -1.178948921982    -1.683757098730     0.143658548804    12.000000000000
         C           -2.246385921982    -0.796863098730     0.271545548804    12.000000000000
         C           -0.502035921982     2.557782901270    -0.189812451196    12.000000000000
         C            1.245885078018    -2.204626098730    -0.299841451196    12.000000000000
         C            2.540953078018     0.628337901270     0.719244548804    12.000000000000
         H           -2.834656321982     1.258394401270     0.242842748804     1.007825032230
         H           -1.355122921982    -2.756257098730     0.212458548804     1.007825032230
         H            1.630290078018     1.565274901270    -0.844577451196     1.007825032230
         H           -3.250947921982    -1.171004098730     0.454492548804     1.007825032230
         H            0.273772078018     2.903739901270     0.501845548804     1.007825032230
         H           -0.199369921982     2.851716901270    -1.202338451196     1.007825032230
         H           -1.420887921982     3.101980901270     0.043342548804     1.007825032230
         H            1.980226078018    -1.798481098730    -0.999992451196     1.007825032230
         H            1.765113078018    -2.426635098730     0.639550548804     1.007825032230
         H            0.862414078018    -3.151136098730    -0.691564451196     1.007825032230
         H            2.132198078018     1.198553901270     1.566592548804     1.007825032230
         H            3.506259078018     1.057009901270     0.436674548804     1.007825032230
         H            2.712113078018    -0.396452098730     1.051462548804     1.007825032230

  Basis Set: AUG-CC-PVTZ
    Blend: AUG-CC-PVTZ
  Basis Set: (AUG-CC-PVTZ AUX)
    Blend: AUG-CC-PVTZ-JKFIT
	 Reference Energy          =    -402.9619027003384986 [Eh]
	 Singles Energy            =      -0.0000000000000000 [Eh]
	 Same-Spin Energy          =      -0.4479469296327642 [Eh]
	 Opposite-Spin Energy      =      -1.4657735283661808 [Eh]
	 Correlation Energy        =      -1.9137204579989451 [Eh]
	 Total Energy              =    -404.8756231583374188 [Eh]

	 ================> DF-SCS-MP2 Energies <==================
	-----------------------------------------------------------
	 SCS Same-Spin Scale       =       0.3333333333333333 [-]
	 SCS Opposite-Spin Scale   =       1.2000000000000000 [-]
	 SCS Same-Spin Energy      =      -0.1493156432109214 [Eh]
	 SCS Opposite-Spin Energy  =      -1.7589282340394170 [Eh]
	 SCS Correlation Energy    =      -1.9082438772503385 [Eh]
	 SCS Total Energy          =    -404.8701465775888551 [Eh]
	-----------------------------------------------------------

  Dipole Moment: [D]
     X:     0.5308      Y:     1.0790      Z:     0.5211     Total:     1.3106

*** Psi4 exiting successfully. Buy a developer a beer!
