                               Psi4 1.4a3.dev225

  ==> Input File <==

--------------------------------------------------------------------------
#psi4
#
memory 32 gb

molecule  {
0 1
  N        1.6268380     0.6089620    -0.4693990
  C        0.3031040     0.1485790    -0.2066970
  C       -0.7706010     1.0561020    -0.0842670
  C        0.0806060    -1.2405240    -0.1151990
  C       -2.0579110     0.5582020     0.1415980
  C       -1.2176000    -1.6989120     0.1341680
  C       -2.2850370    -0.8120180     0.2620550
  C       -0.5406870     2.5426280    -0.1993030
  C        1.2820782    -2.2848350    -0.3222286
  C        2.5023020     0.6131830     0.7097540
  H       -2.8885640     1.2560570     0.2350690
  H       -1.3937740    -2.7714120     0.2029680
  H        1.5916390     1.5501200    -0.8540680
  H       -3.2895990    -1.1861590     0.4450020
  H        0.2351210     2.8885850     0.4923550
  H       -0.2380210     2.8365620    -1.2118290
  H       -1.4595390     3.0868260     0.0338520
  H        1.9415750    -1.8136360    -1.0094830
  H        1.7264620    -2.4417900     0.6300600
  H        0.8237630    -3.1662910    -0.7010550
  H        2.0935470     1.1833990     1.5571020
  H        3.4676080     1.0418550     0.4271840
  H        2.6734620    -0.4116070     1.0419720
units angstrom
no_reorient  #important for SAPT in psi4, default
symmetry c1  #important for SAPT in psi4, default
}

set PROPERTIES_ORIGIN ["COM"]
properties('MP2/aug-cc-pvtz', properties = ['dipole'])
--------------------------------------------------------------------------

    Molecular point group: c1
  Charge       = 0
  Multiplicity = 1
  Basis Set: AUG-CC-PVTZ
    Blend: AUG-CC-PVTZ
  Basis Set: (AUG-CC-PVTZ AUX)
    Blend: AUG-CC-PVTZ-JKFIT

    Orbital Energies [Eh]
    ---------------------

    Doubly Occupied:

       1A    -15.553568     2A    -11.258010     3A    -11.249823
       4A    -11.235679     5A    -11.235562     6A    -11.228181
       7A    -11.225058     8A    -11.223979     9A    -11.222887
      10A    -11.213094    11A     -1.225631    12A     -1.129077
      13A     -1.048175    14A     -1.008451    15A     -0.945715
      16A     -0.923422    17A     -0.893688    18A     -0.793022
      19A     -0.781770    20A     -0.692275    21A     -0.658813
      22A     -0.627160    23A     -0.601851    24A     -0.591203
      25A     -0.579961    26A     -0.575283    27A     -0.567742
      28A     -0.559425    29A     -0.546235    30A     -0.532330
      31A     -0.528510    32A     -0.480366    33A     -0.476094
      34A     -0.464597    35A     -0.402140    36A     -0.318106
      37A     -0.302708

  @DF-RHF Final Energy:  -402.95478902998451

   => Energetics <=

    Nuclear Repulsion Energy =            519.5651870434141983
    One-Electron Energy =               -1575.2407736418335844
    Two-Electron Energy =                 652.7207975684349321
    Total Energy =                       -402.9547890299844539
  Basis Set: (AUG-CC-PVTZ AUX)
    Blend: AUG-CC-PVTZ-RI
    Molecular point group: c1

    Geometry (in Angstrom), charge = 0, multiplicity = 1:

       Center              X                  Y                   Z               Mass
    ------------   -----------------  -----------------  -----------------  -----------------
         N            1.658955228589     0.629799380397    -0.458775782581    14.003074004430
         C            0.335221228589     0.169416380397    -0.196073782581    12.000000000000
         C           -0.738483771411     1.076939380397    -0.073643782581    12.000000000000
         C            0.112723228589    -1.219686619603    -0.104575782581    12.000000000000
         C           -2.025793771411     0.579039380397     0.152221217419    12.000000000000
         C           -1.185482771411    -1.678074619603     0.144791217419    12.000000000000
         C           -2.252919771411    -0.791180619603     0.272678217419    12.000000000000
         C           -0.508569771411     2.563465380397    -0.188679782581    12.000000000000
         C            1.314195428589    -2.263997619603    -0.311605382581    12.000000000000
         C            2.534419228589     0.634020380397     0.720377217419    12.000000000000
         H           -2.856446771411     1.276894380397     0.245692217419     1.007825032230
         H           -1.361656771411    -2.750574619603     0.213591217419     1.007825032230
         H            1.623756228589     1.570957380397    -0.843444782581     1.007825032230
         H           -3.257481771411    -1.165321619603     0.455625217419     1.007825032230
         H            0.267238228589     2.909422380397     0.502978217419     1.007825032230
         H           -0.205903771411     2.857399380397    -1.201205782581     1.007825032230
         H           -1.427421771411     3.107663380397     0.044475217419     1.007825032230
         H            1.973692228589    -1.792798619603    -0.998859782581     1.007825032230
         H            1.758579228589    -2.420952619603     0.640683217419     1.007825032230
         H            0.855880228589    -3.145453619603    -0.690431782581     1.007825032230
         H            2.125664228589     1.204236380397     1.567725217419     1.007825032230
         H            3.499725228589     1.062692380397     0.437807217419     1.007825032230
         H            2.705579228589    -0.390769619603     1.052595217419     1.007825032230

  Basis Set: AUG-CC-PVTZ
    Blend: AUG-CC-PVTZ
  Basis Set: (AUG-CC-PVTZ AUX)
    Blend: AUG-CC-PVTZ-JKFIT
	 Reference Energy          =    -402.9547890299845108 [Eh]
	 Singles Energy            =      -0.0000000000000000 [Eh]
	 Same-Spin Energy          =      -0.4474490980157426 [Eh]
	 Opposite-Spin Energy      =      -1.4657503316632807 [Eh]
	 Correlation Energy        =      -1.9131994296790233 [Eh]
	 Total Energy              =    -404.8679884596635361 [Eh]

	 ================> DF-SCS-MP2 Energies <==================
	-----------------------------------------------------------
	 SCS Same-Spin Scale       =       0.3333333333333333 [-]
	 SCS Opposite-Spin Scale   =       1.2000000000000000 [-]
	 SCS Same-Spin Energy      =      -0.1491496993385809 [Eh]
	 SCS Opposite-Spin Energy  =      -1.7589003979959368 [Eh]
	 SCS Correlation Energy    =      -1.9080500973345176 [Eh]
	 SCS Total Energy          =    -404.8628391273190346 [Eh]
	-----------------------------------------------------------

  Dipole Moment: [D]
     X:     0.5161      Y:     1.0806      Z:     0.5276     Total:     1.3086

*** Psi4 exiting successfully. Buy a developer a beer!
