                               Psi4 1.4a3.dev225

  ==> Input File <==

--------------------------------------------------------------------------
#psi4
#
memory 32 gb

molecule  {
0 1
  N        1.6268380     0.6089620    -0.4693990
  C        0.3031040     0.1485790    -0.2066970
  C       -0.7706010     1.0561020    -0.0842670
  C        0.0806060    -1.2405240    -0.1151990
  C       -2.0579110     0.5582020     0.1415980
  C       -1.2176000    -1.6989120     0.1341680
  C       -2.2850370    -0.8120180     0.2620550
  C       -0.5406870     2.5426280    -0.1993030
  C        1.2072340    -2.2197810    -0.3093320
  C        2.5023020     0.6131830     0.7097540
  H       -2.8885640     1.2560570     0.2350690
  H       -1.3937740    -2.7714120     0.2029680
  H        1.5916390     1.5501200    -0.8540680
  H       -3.2895990    -1.1861590     0.4450020
  H        0.2543183     2.9029589     0.4625756
  H       -0.2380210     2.8365620    -1.2118290
  H       -1.4595390     3.0868260     0.0338520
  H        1.9415750    -1.8136360    -1.0094830
  H        1.7264620    -2.4417900     0.6300600
  H        0.8237630    -3.1662910    -0.7010550
  H        2.0935470     1.1833990     1.5571020
  H        3.4676080     1.0418550     0.4271840
  H        2.6734620    -0.4116070     1.0419720
units angstrom
no_reorient  #important for SAPT in psi4, default
symmetry c1  #important for SAPT in psi4, default
}

set PROPERTIES_ORIGIN ["COM"]
properties('MP2/aug-cc-pvtz', properties = ['dipole'])
--------------------------------------------------------------------------

    Molecular point group: c1
  Charge       = 0
  Multiplicity = 1
  Basis Set: AUG-CC-PVTZ
    Blend: AUG-CC-PVTZ
  Basis Set: (AUG-CC-PVTZ AUX)
    Blend: AUG-CC-PVTZ-JKFIT

    Orbital Energies [Eh]
    ---------------------

    Doubly Occupied:

       1A    -15.553902     2A    -11.258318     3A    -11.249662
       4A    -11.236185     5A    -11.232092     6A    -11.228417
       7A    -11.225544     8A    -11.224341     9A    -11.223105
      10A    -11.214165    11A     -1.226631    12A     -1.130917
      13A     -1.054383    14A     -1.012446    15A     -0.945413
      16A     -0.922335    17A     -0.892154    18A     -0.794893
      19A     -0.781369    20A     -0.692951    21A     -0.660838
      22A     -0.629858    23A     -0.603186    24A     -0.591127
      25A     -0.578780    26A     -0.568904    27A     -0.563371
      28A     -0.557739    29A     -0.552226    30A     -0.530770
      31A     -0.521976    32A     -0.485400    33A     -0.477488
      34A     -0.470684    35A     -0.402547    36A     -0.317081
      37A     -0.302795

  @DF-RHF Final Energy:  -402.96161545799004

   => Energetics <=

    Nuclear Repulsion Energy =            521.2937666445453715
    One-Electron Energy =               -1578.6827791553073439
    Two-Electron Energy =                 654.4273970527717665
    Total Energy =                       -402.9616154579900922
  Basis Set: (AUG-CC-PVTZ AUX)
    Blend: AUG-CC-PVTZ-RI
    Molecular point group: c1

    Geometry (in Angstrom), charge = 0, multiplicity = 1:

       Center              X                  Y                   Z               Mass
    ------------   -----------------  -----------------  -----------------  -----------------
         N            1.665459682052     0.623914064852    -0.459699115992    14.003074004430
         C            0.341725682052     0.163531064852    -0.196997115992    12.000000000000
         C           -0.731979317948     1.071054064852    -0.074567115992    12.000000000000
         C            0.119227682052    -1.225571935148    -0.105499115992    12.000000000000
         C           -2.019289317948     0.573154064852     0.151297884008    12.000000000000
         C           -1.178978317948    -1.683959935148     0.143867884008    12.000000000000
         C           -2.246415317948    -0.797065935148     0.271754884008    12.000000000000
         C           -0.502065317948     2.557580064852    -0.189603115992    12.000000000000
         C            1.245855682052    -2.204828935148    -0.299632115992    12.000000000000
         C            2.540923682052     0.628135064852     0.719453884008    12.000000000000
         H           -2.849942317948     1.271009064852     0.244768884008     1.007825032230
         H           -1.355152317948    -2.756459935148     0.212667884008     1.007825032230
         H            1.630260682052     1.565072064852    -0.844368115992     1.007825032230
         H           -3.250977317948    -1.171206935148     0.454701884008     1.007825032230
         H            0.292939982052     2.917910964852     0.472275484008     1.007825032230
         H           -0.199399317948     2.851514064852    -1.202129115992     1.007825032230
         H           -1.420917317948     3.101778064852     0.043551884008     1.007825032230
         H            1.980196682052    -1.798683935148    -0.999783115992     1.007825032230
         H            1.765083682052    -2.426837935148     0.639759884008     1.007825032230
         H            0.862384682052    -3.151338935148    -0.691355115992     1.007825032230
         H            2.132168682052     1.198351064852     1.566801884008     1.007825032230
         H            3.506229682052     1.056807064852     0.436883884008     1.007825032230
         H            2.712083682052    -0.396654935148     1.051671884008     1.007825032230

  Basis Set: AUG-CC-PVTZ
    Blend: AUG-CC-PVTZ
  Basis Set: (AUG-CC-PVTZ AUX)
    Blend: AUG-CC-PVTZ-JKFIT
	 Reference Energy          =    -402.9616154579900353 [Eh]
	 Singles Energy            =      -0.0000000000000000 [Eh]
	 Same-Spin Energy          =      -0.4480024465747622 [Eh]
	 Opposite-Spin Energy      =      -1.4659097037308115 [Eh]
	 Correlation Energy        =      -1.9139121503055738 [Eh]
	 Total Energy              =    -404.8755276082956129 [Eh]

	 ================> DF-SCS-MP2 Energies <==================
	-----------------------------------------------------------
	 SCS Same-Spin Scale       =       0.3333333333333333 [-]
	 SCS Opposite-Spin Scale   =       1.2000000000000000 [-]
	 SCS Same-Spin Energy      =      -0.1493341488582541 [Eh]
	 SCS Opposite-Spin Energy  =      -1.7590916444769737 [Eh]
	 SCS Correlation Energy    =      -1.9084257933352278 [Eh]
	 SCS Total Energy          =    -404.8700412513252900 [Eh]
	-----------------------------------------------------------

  Dipole Moment: [D]
     X:     0.5463      Y:     1.0700      Z:     0.5143     Total:     1.3069

*** Psi4 exiting successfully. Buy a developer a beer!
