                               Psi4 1.4a3.dev225

  ==> Input File <==

--------------------------------------------------------------------------
#psi4
#
memory 32 gb

molecule  {
0 1
  N        1.6268380     0.6089620    -0.4693990
  C        0.3031040     0.1485790    -0.2066970
  C       -0.7706010     1.0561020    -0.0842670
  C        0.0806060    -1.2405240    -0.1151990
  C       -2.0579110     0.5582020     0.1415980
  C       -1.2176000    -1.6989120     0.1341680
  C       -2.2850370    -0.8120180     0.2620550
  C       -0.5406870     2.5426280    -0.1993030
  C        1.2072340    -2.2197810    -0.3093320
  C        2.5023020     0.6131830     0.7097540
  H       -2.8504225     1.2240132     0.2307770
  H       -1.3937740    -2.7714120     0.2029680
  H        1.5916390     1.5501200    -0.8540680
  H       -3.2895990    -1.1861590     0.4450020
  H        0.2351210     2.8885850     0.4923550
  H       -0.2380210     2.8365620    -1.2118290
  H       -1.4595390     3.0868260     0.0338520
  H        1.9415750    -1.8136360    -1.0094830
  H        1.7264620    -2.4417900     0.6300600
  H        0.8237630    -3.1662910    -0.7010550
  H        2.0935470     1.1833990     1.5571020
  H        3.4676080     1.0418550     0.4271840
  H        2.6734620    -0.4116070     1.0419720
units angstrom
no_reorient  #important for SAPT in psi4, default
symmetry c1  #important for SAPT in psi4, default
}

set PROPERTIES_ORIGIN ["COM"]
properties('MP2/aug-cc-pvtz', properties = ['dipole'])
--------------------------------------------------------------------------

    Molecular point group: c1
  Charge       = 0
  Multiplicity = 1
  Basis Set: AUG-CC-PVTZ
    Blend: AUG-CC-PVTZ
  Basis Set: (AUG-CC-PVTZ AUX)
    Blend: AUG-CC-PVTZ-JKFIT

    Orbital Energies [Eh]
    ---------------------

    Doubly Occupied:

       1A    -15.553584     2A    -11.257830     3A    -11.249509
       4A    -11.235395     5A    -11.231839     6A    -11.228446
       7A    -11.224177     8A    -11.222690     9A    -11.218870
      10A    -11.213977    11A     -1.226339    12A     -1.130969
      13A     -1.054780    14A     -1.012558    15A     -0.945333
      16A     -0.923732    17A     -0.892062    18A     -0.794512
      19A     -0.784252    20A     -0.693826    21A     -0.663099
      22A     -0.629283    23A     -0.604268    24A     -0.591449
      25A     -0.580549    26A     -0.569124    27A     -0.565294
      28A     -0.556958    29A     -0.554857    30A     -0.530540
      31A     -0.521065    32A     -0.486240    33A     -0.476811
      34A     -0.470652    35A     -0.402367    36A     -0.316824
      37A     -0.302466

  @DF-RHF Final Energy:  -402.96103222066745

   => Energetics <=

    Nuclear Repulsion Energy =            521.5829387749239459
    One-Electron Energy =               -1579.2548955383854263
    Two-Electron Energy =                 654.7109245427939186
    Total Energy =                       -402.9610322206674482
  Basis Set: (AUG-CC-PVTZ AUX)
    Blend: AUG-CC-PVTZ-RI
    Molecular point group: c1

    Geometry (in Angstrom), charge = 0, multiplicity = 1:

       Center              X                  Y                   Z               Mass
    ------------   -----------------  -----------------  -----------------  -----------------
         N            1.665318366280     0.624260321389    -0.459889241286    14.003074004430
         C            0.341584366280     0.163877321389    -0.197187241286    12.000000000000
         C           -0.732120633720     1.071400321389    -0.074757241286    12.000000000000
         C            0.119086366280    -1.225225678611    -0.105689241286    12.000000000000
         C           -2.019430633720     0.573500321389     0.151107758714    12.000000000000
         C           -1.179119633720    -1.683613678611     0.143677758714    12.000000000000
         C           -2.246556633720    -0.796719678611     0.271564758714    12.000000000000
         C           -0.502206633720     2.557926321389    -0.189793241286    12.000000000000
         C            1.245714366280    -2.204482678611    -0.299822241286    12.000000000000
         C            2.540782366280     0.628481321389     0.719263758714    12.000000000000
         H           -2.811942133720     1.239311521389     0.240286758714     1.007825032230
         H           -1.355293633720    -2.756113678611     0.212477758714     1.007825032230
         H            1.630119366280     1.565418321389    -0.844558241286     1.007825032230
         H           -3.251118633720    -1.170860678611     0.454511758714     1.007825032230
         H            0.273601366280     2.903883321389     0.501864758714     1.007825032230
         H           -0.199540633720     2.851860321389    -1.202319241286     1.007825032230
         H           -1.421058633720     3.102124321389     0.043361758714     1.007825032230
         H            1.980055366280    -1.798337678611    -0.999973241286     1.007825032230
         H            1.764942366280    -2.426491678611     0.639569758714     1.007825032230
         H            0.862243366280    -3.150992678611    -0.691545241286     1.007825032230
         H            2.132027366280     1.198697321389     1.566611758714     1.007825032230
         H            3.506088366280     1.057153321389     0.436693758714     1.007825032230
         H            2.711942366280    -0.396308678611     1.051481758714     1.007825032230

  Basis Set: AUG-CC-PVTZ
    Blend: AUG-CC-PVTZ
  Basis Set: (AUG-CC-PVTZ AUX)
    Blend: AUG-CC-PVTZ-JKFIT
	 Reference Energy          =    -402.9610322206674482 [Eh]
	 Singles Energy            =      -0.0000000000000000 [Eh]
	 Same-Spin Energy          =      -0.4478862503153723 [Eh]
	 Opposite-Spin Energy      =      -1.4655825735784207 [Eh]
	 Correlation Energy        =      -1.9134688238937931 [Eh]
	 Total Energy              =    -404.8745010445612138 [Eh]

	 ================> DF-SCS-MP2 Energies <==================
	-----------------------------------------------------------
	 SCS Same-Spin Scale       =       0.3333333333333333 [-]
	 SCS Opposite-Spin Scale   =       1.2000000000000000 [-]
	 SCS Same-Spin Energy      =      -0.1492954167717908 [Eh]
	 SCS Opposite-Spin Energy  =      -1.7586990882941047 [Eh]
	 SCS Correlation Energy    =      -1.9079945050658955 [Eh]
	 SCS Total Energy          =    -404.8690267257333630 [Eh]
	-----------------------------------------------------------

  Dipole Moment: [D]
     X:     0.5198      Y:     1.0878      Z:     0.5218     Total:     1.3138

*** Psi4 exiting successfully. Buy a developer a beer!
