                               Psi4 1.4a3.dev225

  ==> Input File <==

--------------------------------------------------------------------------
#psi4
#
memory 32 gb

molecule  {
0 1
  N        1.6268380     0.6089620    -0.4693990
  C        0.3031040     0.1485790    -0.2066970
  C       -0.7706010     1.0561020    -0.0842670
  C        0.0806060    -1.2405240    -0.1151990
  C       -2.0579110     0.5582020     0.1415980
  C       -1.2176000    -1.6989120     0.1341680
  C       -2.2687454    -0.7137331     0.2534147
  C       -0.5406870     2.5426280    -0.1993030
  C        1.2072340    -2.2197810    -0.3093320
  C        2.5023020     0.6131830     0.7097540
  H       -2.8885640     1.2560570     0.2350690
  H       -1.3937740    -2.7714120     0.2029680
  H        1.5916390     1.5501200    -0.8540680
  H       -3.2895990    -1.1861590     0.4450020
  H        0.2351210     2.8885850     0.4923550
  H       -0.2380210     2.8365620    -1.2118290
  H       -1.4595390     3.0868260     0.0338520
  H        1.9415750    -1.8136360    -1.0094830
  H        1.7264620    -2.4417900     0.6300600
  H        0.8237630    -3.1662910    -0.7010550
  H        2.0935470     1.1833990     1.5571020
  H        3.4676080     1.0418550     0.4271840
  H        2.6734620    -0.4116070     1.0419720
units angstrom
no_reorient  #important for SAPT in psi4, default
symmetry c1  #important for SAPT in psi4, default
}

set PROPERTIES_ORIGIN ["COM"]
properties('MP2/aug-cc-pvtz', properties = ['dipole'])
--------------------------------------------------------------------------

    Molecular point group: c1
  Charge       = 0
  Multiplicity = 1
  Basis Set: AUG-CC-PVTZ
    Blend: AUG-CC-PVTZ
  Basis Set: (AUG-CC-PVTZ AUX)
    Blend: AUG-CC-PVTZ-JKFIT

    Orbital Energies [Eh]
    ---------------------

    Doubly Occupied:

       1A    -15.553483     2A    -11.257387     3A    -11.249452
       4A    -11.235008     5A    -11.232740     6A    -11.228031
       7A    -11.227039     8A    -11.222284     9A    -11.214023
      10A    -11.213018    11A     -1.226563    12A     -1.137205
      13A     -1.055420    14A     -1.016950    15A     -0.945210
      16A     -0.922860    17A     -0.892073    18A     -0.796493
      19A     -0.775353    20A     -0.694917    21A     -0.661531
      22A     -0.628842    23A     -0.599884    24A     -0.592344
      25A     -0.579632    26A     -0.569382    27A     -0.565362
      28A     -0.558380    29A     -0.551228    30A     -0.527737
      31A     -0.523544    32A     -0.484799    33A     -0.477253
      34A     -0.466256    35A     -0.403177    36A     -0.322555
      37A     -0.300916

  @DF-RHF Final Energy:  -402.94810973464996

   => Energetics <=

    Nuclear Repulsion Energy =            522.4061845053303159
    One-Electron Energy =               -1580.8919258283124236
    Two-Electron Energy =                 655.5376315883320331
    Total Energy =                       -402.9481097346499610
  Basis Set: (AUG-CC-PVTZ AUX)
    Blend: AUG-CC-PVTZ-RI
    Molecular point group: c1

    Geometry (in Angstrom), charge = 0, multiplicity = 1:

       Center              X                  Y                   Z               Mass
    ------------   -----------------  -----------------  -----------------  -----------------
         N            1.664155866930     0.615291629315    -0.459153826886    14.003074004430
         C            0.340421866930     0.154908629315    -0.196451826886    12.000000000000
         C           -0.733283133070     1.062431629315    -0.074021826886    12.000000000000
         C            0.117923866930    -1.234194370685    -0.104953826886    12.000000000000
         C           -2.020593133070     0.564531629315     0.151843173114    12.000000000000
         C           -1.180282133070    -1.692582370685     0.144413173114    12.000000000000
         C           -2.231427533070    -0.707403470685     0.263659873114    12.000000000000
         C           -0.503369133070     2.548957629315    -0.189057826886    12.000000000000
         C            1.244551866930    -2.213451370685    -0.299086826886    12.000000000000
         C            2.539619866930     0.619512629315     0.719999173114    12.000000000000
         H           -2.851246133070     1.262386629315     0.245314173114     1.007825032230
         H           -1.356456133070    -2.765082370685     0.213213173114     1.007825032230
         H            1.628956866930     1.556449629315    -0.843822826886     1.007825032230
         H           -3.252281133070    -1.179829370685     0.455247173114     1.007825032230
         H            0.272438866930     2.894914629315     0.502600173114     1.007825032230
         H           -0.200703133070     2.842891629315    -1.201583826886     1.007825032230
         H           -1.422221133070     3.093155629315     0.044097173114     1.007825032230
         H            1.978892866930    -1.807306370685    -0.999237826886     1.007825032230
         H            1.763779866930    -2.435460370685     0.640305173114     1.007825032230
         H            0.861080866930    -3.159961370685    -0.690809826886     1.007825032230
         H            2.130864866930     1.189728629315     1.567347173114     1.007825032230
         H            3.504925866930     1.048184629315     0.437429173114     1.007825032230
         H            2.710779866930    -0.405277370685     1.052217173114     1.007825032230

  Basis Set: AUG-CC-PVTZ
    Blend: AUG-CC-PVTZ
  Basis Set: (AUG-CC-PVTZ AUX)
    Blend: AUG-CC-PVTZ-JKFIT
	 Reference Energy          =    -402.9481097346499610 [Eh]
	 Singles Energy            =      -0.0000000000000000 [Eh]
	 Same-Spin Energy          =      -0.4478942557311429 [Eh]
	 Opposite-Spin Energy      =      -1.4661542436157811 [Eh]
	 Correlation Energy        =      -1.9140484993469240 [Eh]
	 Total Energy              =    -404.8621582339968654 [Eh]

	 ================> DF-SCS-MP2 Energies <==================
	-----------------------------------------------------------
	 SCS Same-Spin Scale       =       0.3333333333333333 [-]
	 SCS Opposite-Spin Scale   =       1.2000000000000000 [-]
	 SCS Same-Spin Energy      =      -0.1492980852437143 [Eh]
	 SCS Opposite-Spin Energy  =      -1.7593850923389371 [Eh]
	 SCS Correlation Energy    =      -1.9086831775826514 [Eh]
	 SCS Total Energy          =    -404.8567929122326063 [Eh]
	-----------------------------------------------------------

  Dipole Moment: [D]
     X:     0.5580      Y:     1.0527      Z:     0.5178     Total:     1.2991

*** Psi4 exiting successfully. Buy a developer a beer!
