                               Psi4 1.4a3.dev225

  ==> Input File <==

--------------------------------------------------------------------------
#psi4
#
memory 32 gb

molecule  {
0 1
  N        1.6268380     0.6089620    -0.4693990
  C        0.3031040     0.1485790    -0.2066970
  C       -0.7706010     1.0561020    -0.0842670
  C        0.0806060    -1.2405240    -0.1151990
  C       -2.0579110     0.5582020     0.1415980
  C       -1.2176000    -1.6989120     0.1341680
  C       -2.2850370    -0.8120180     0.2620550
  C       -0.5406870     2.5426280    -0.1993030
  C        1.2072340    -2.2197810    -0.3093320
  C        2.5023020     0.6131830     0.7097540
  H       -2.8885640     1.2560570     0.2350690
  H       -1.3937740    -2.7714120     0.2029680
  H        1.5916390     1.5501200    -0.8540680
  H       -3.2895990    -1.1861590     0.4450020
  H        0.1997097     2.8727940     0.4607847
  H       -0.2380210     2.8365620    -1.2118290
  H       -1.4595390     3.0868260     0.0338520
  H        1.9415750    -1.8136360    -1.0094830
  H        1.7264620    -2.4417900     0.6300600
  H        0.8237630    -3.1662910    -0.7010550
  H        2.0935470     1.1833990     1.5571020
  H        3.4676080     1.0418550     0.4271840
  H        2.6734620    -0.4116070     1.0419720
units angstrom
no_reorient  #important for SAPT in psi4, default
symmetry c1  #important for SAPT in psi4, default
}

set PROPERTIES_ORIGIN ["COM"]
properties('MP2/aug-cc-pvtz', properties = ['dipole'])
--------------------------------------------------------------------------

    Molecular point group: c1
  Charge       = 0
  Multiplicity = 1
  Basis Set: AUG-CC-PVTZ
    Blend: AUG-CC-PVTZ
  Basis Set: (AUG-CC-PVTZ AUX)
    Blend: AUG-CC-PVTZ-JKFIT

    Orbital Energies [Eh]
    ---------------------

    Doubly Occupied:

       1A    -15.553913     2A    -11.258058     3A    -11.249741
       4A    -11.235506     5A    -11.231924     6A    -11.225104
       7A    -11.223987     8A    -11.222812     9A    -11.222240
      10A    -11.214068    11A     -1.226630    12A     -1.130743
      13A     -1.055158    14A     -1.012933    15A     -0.947079
      16A     -0.923621    17A     -0.892218    18A     -0.795465
      19A     -0.781245    20A     -0.692882    21A     -0.660617
      22A     -0.630466    23A     -0.603775    24A     -0.591777
      25A     -0.582103    26A     -0.568816    27A     -0.568259
      28A     -0.556872    29A     -0.551951    30A     -0.530772
      31A     -0.522071    32A     -0.485412    33A     -0.476977
      34A     -0.471094    35A     -0.402528    36A     -0.317017
      37A     -0.302679

  @DF-RHF Final Energy:  -402.96083939320113

   => Energetics <=

    Nuclear Repulsion Energy =            521.5257153589371910
    One-Electron Energy =               -1579.1360770899984800
    Two-Electron Energy =                 654.6495223378602759
    Total Energy =                       -402.9608393932011268
  Basis Set: (AUG-CC-PVTZ AUX)
    Blend: AUG-CC-PVTZ-RI
    Molecular point group: c1

    Geometry (in Angstrom), charge = 0, multiplicity = 1:

       Center              X                  Y                   Z               Mass
    ------------   -----------------  -----------------  -----------------  -----------------
         N            1.665867039261     0.624139082331    -0.459685756630    14.003074004430
         C            0.342133039261     0.163756082331    -0.196983756630    12.000000000000
         C           -0.731571960739     1.071279082331    -0.074553756630    12.000000000000
         C            0.119635039261    -1.225346917669    -0.105485756630    12.000000000000
         C           -2.018881960739     0.573379082331     0.151311243370    12.000000000000
         C           -1.178570960739    -1.683734917669     0.143881243370    12.000000000000
         C           -2.246007960739    -0.796840917669     0.271768243370    12.000000000000
         C           -0.501657960739     2.557805082331    -0.189589756630    12.000000000000
         C            1.246263039261    -2.204603917669    -0.299618756630    12.000000000000
         C            2.541331039261     0.628360082331     0.719467243370    12.000000000000
         H           -2.849534960739     1.271234082331     0.244782243370     1.007825032230
         H           -1.354744960739    -2.756234917669     0.212681243370     1.007825032230
         H            1.630668039261     1.565297082331    -0.844354756630     1.007825032230
         H           -3.250569960739    -1.170981917669     0.454715243370     1.007825032230
         H            0.238738739261     2.887971082331     0.470497943370     1.007825032230
         H           -0.198991960739     2.851739082331    -1.202115756630     1.007825032230
         H           -1.420509960739     3.102003082331     0.043565243370     1.007825032230
         H            1.980604039261    -1.798458917669    -0.999769756630     1.007825032230
         H            1.765491039261    -2.426612917669     0.639773243370     1.007825032230
         H            0.862792039261    -3.151113917669    -0.691341756630     1.007825032230
         H            2.132576039261     1.198576082331     1.566815243370     1.007825032230
         H            3.506637039261     1.057032082331     0.436897243370     1.007825032230
         H            2.712491039261    -0.396429917669     1.051685243370     1.007825032230

  Basis Set: AUG-CC-PVTZ
    Blend: AUG-CC-PVTZ
  Basis Set: (AUG-CC-PVTZ AUX)
    Blend: AUG-CC-PVTZ-JKFIT
	 Reference Energy          =    -402.9608393932011268 [Eh]
	 Singles Energy            =      -0.0000000000000000 [Eh]
	 Same-Spin Energy          =      -0.4479607695472880 [Eh]
	 Opposite-Spin Energy      =      -1.4656233953653020 [Eh]
	 Correlation Energy        =      -1.9135841649125900 [Eh]
	 Total Energy              =    -404.8744235581137332 [Eh]

	 ================> DF-SCS-MP2 Energies <==================
	-----------------------------------------------------------
	 SCS Same-Spin Scale       =       0.3333333333333333 [-]
	 SCS Opposite-Spin Scale   =       1.2000000000000000 [-]
	 SCS Same-Spin Energy      =      -0.1493202565157627 [Eh]
	 SCS Opposite-Spin Energy  =      -1.7587480744383623 [Eh]
	 SCS Correlation Energy    =      -1.9080683309541251 [Eh]
	 SCS Total Energy          =    -404.8689077241552354 [Eh]
	-----------------------------------------------------------

  Dipole Moment: [D]
     X:     0.5542      Y:     1.0918      Z:     0.5317     Total:     1.3349

*** Psi4 exiting successfully. Buy a developer a beer!
