                               Psi4 1.4a3.dev225

  ==> Input File <==

--------------------------------------------------------------------------
#psi4
#
memory 32 gb

molecule  {
0 1
  N        1.6268380     0.6089620    -0.4693990
  C        0.3031040     0.1485790    -0.2066970
  C       -0.7706010     1.0561020    -0.0842670
  C        0.0806060    -1.2405240    -0.1151990
  C       -2.0579110     0.5582020     0.1415980
  C       -1.2176000    -1.6989120     0.1341680
  C       -2.2850370    -0.8120180     0.2620550
  C       -0.5406870     2.5426280    -0.1993030
  C        1.2072340    -2.2197810    -0.3093320
  C        2.5619132     0.6134704     0.7900436
  H       -2.8885640     1.2560570     0.2350690
  H       -1.3937740    -2.7714120     0.2029680
  H        1.5916390     1.5501200    -0.8540680
  H       -3.2895990    -1.1861590     0.4450020
  H        0.2351210     2.8885850     0.4923550
  H       -0.2380210     2.8365620    -1.2118290
  H       -1.4595390     3.0868260     0.0338520
  H        1.9415750    -1.8136360    -1.0094830
  H        1.7264620    -2.4417900     0.6300600
  H        0.8237630    -3.1662910    -0.7010550
  H        2.0935470     1.1833990     1.5571020
  H        3.4676080     1.0418550     0.4271840
  H        2.6734620    -0.4116070     1.0419720
units angstrom
no_reorient  #important for SAPT in psi4, default
symmetry c1  #important for SAPT in psi4, default
}

set PROPERTIES_ORIGIN ["COM"]
properties('MP2/aug-cc-pvtz', properties = ['dipole'])
--------------------------------------------------------------------------

    Molecular point group: c1
  Charge       = 0
  Multiplicity = 1
  Basis Set: AUG-CC-PVTZ
    Blend: AUG-CC-PVTZ
  Basis Set: (AUG-CC-PVTZ AUX)
    Blend: AUG-CC-PVTZ-JKFIT

    Orbital Energies [Eh]
    ---------------------

    Doubly Occupied:

       1A    -15.552262     2A    -11.256262     3A    -11.250004
       4A    -11.233754     5A    -11.230047     6A    -11.227231
       7A    -11.223989     8A    -11.222744     9A    -11.221616
      10A    -11.213381    11A     -1.210184    12A     -1.124379
      13A     -1.052905    14A     -1.008885    15A     -0.946915
      16A     -0.921197    17A     -0.898781    18A     -0.791693
      19A     -0.779492    20A     -0.687643    21A     -0.657063
      22A     -0.628086    23A     -0.600446    24A     -0.593369
      25A     -0.579427    26A     -0.567705    27A     -0.559244
      28A     -0.555042    29A     -0.545963    30A     -0.542947
      31A     -0.520097    32A     -0.485630    33A     -0.476855
      34A     -0.467977    35A     -0.405097    36A     -0.315854
      37A     -0.298650

  @DF-RHF Final Energy:  -402.95395187988936

   => Energetics <=

    Nuclear Repulsion Energy =            519.5804732870261660
    One-Electron Energy =               -1575.3632190552364136
    Two-Electron Energy =                 652.8287938883207744
    Total Energy =                       -402.9539518798893596
  Basis Set: (AUG-CC-PVTZ AUX)
    Blend: AUG-CC-PVTZ-RI
    Molecular point group: c1

    Geometry (in Angstrom), charge = 0, multiplicity = 1:

       Center              X                  Y                   Z               Mass
    ------------   -----------------  -----------------  -----------------  -----------------
         N            1.660308222714     0.623995761256    -0.467052575151    14.003074004430
         C            0.336574222714     0.163612761256    -0.204350575151    12.000000000000
         C           -0.737130777286     1.071135761256    -0.081920575151    12.000000000000
         C            0.114076222714    -1.225490238744    -0.112852575151    12.000000000000
         C           -2.024440777286     0.573235761256     0.143944424849    12.000000000000
         C           -1.184129777286    -1.683878238744     0.136514424849    12.000000000000
         C           -2.251566777286    -0.796984238744     0.264401424849    12.000000000000
         C           -0.507216777286     2.557661761256    -0.196956575151    12.000000000000
         C            1.240704222714    -2.204747238744    -0.306985575151    12.000000000000
         C            2.595383422714     0.628504161256     0.792390024849    12.000000000000
         H           -2.855093777286     1.271090761256     0.237415424849     1.007825032230
         H           -1.360303777286    -2.756378238744     0.205314424849     1.007825032230
         H            1.625109222714     1.565153761256    -0.851721575151     1.007825032230
         H           -3.256128777286    -1.171125238744     0.447348424849     1.007825032230
         H            0.268591222714     2.903618761256     0.494701424849     1.007825032230
         H           -0.204550777286     2.851595761256    -1.209482575151     1.007825032230
         H           -1.426068777286     3.101859761256     0.036198424849     1.007825032230
         H            1.975045222714    -1.798602238744    -1.007136575151     1.007825032230
         H            1.759932222714    -2.426756238744     0.632406424849     1.007825032230
         H            0.857233222714    -3.151257238744    -0.698708575151     1.007825032230
         H            2.127017222714     1.198432761256     1.559448424849     1.007825032230
         H            3.501078222714     1.056888761256     0.429530424849     1.007825032230
         H            2.706932222714    -0.396573238744     1.044318424849     1.007825032230

  Basis Set: AUG-CC-PVTZ
    Blend: AUG-CC-PVTZ
  Basis Set: (AUG-CC-PVTZ AUX)
    Blend: AUG-CC-PVTZ-JKFIT
	 Reference Energy          =    -402.9539518798893596 [Eh]
	 Singles Energy            =      -0.0000000000000000 [Eh]
	 Same-Spin Energy          =      -0.4478948295787776 [Eh]
	 Opposite-Spin Energy      =      -1.4666609862541051 [Eh]
	 Correlation Energy        =      -1.9145558158328826 [Eh]
	 Total Energy              =    -404.8685076957222577 [Eh]

	 ================> DF-SCS-MP2 Energies <==================
	-----------------------------------------------------------
	 SCS Same-Spin Scale       =       0.3333333333333333 [-]
	 SCS Opposite-Spin Scale   =       1.2000000000000000 [-]
	 SCS Same-Spin Energy      =      -0.1492982765262592 [Eh]
	 SCS Opposite-Spin Energy  =      -1.7599931835049261 [Eh]
	 SCS Correlation Energy    =      -1.9092914600311852 [Eh]
	 SCS Total Energy          =    -404.8632433399205297 [Eh]
	-----------------------------------------------------------

  Dipole Moment: [D]
     X:     0.7197      Y:     1.1163      Z:     0.6842     Total:     1.4941

*** Psi4 exiting successfully. Buy a developer a beer!
