                               Psi4 1.4a3.dev225

  ==> Input File <==

--------------------------------------------------------------------------
#psi4
#
memory 32 gb

molecule  {
0 1
  N        1.6268380     0.6089620    -0.4693990
  C        0.3031040     0.1485790    -0.2066970
  C       -0.7706010     1.0561020    -0.0842670
  C        0.0806060    -1.2405240    -0.1151990
  C       -2.1054426     0.5658406     0.1486952
  C       -1.2176000    -1.6989120     0.1341680
  C       -2.2850370    -0.8120180     0.2620550
  C       -0.5406870     2.5426280    -0.1993030
  C        1.2072340    -2.2197810    -0.3093320
  C        2.5023020     0.6131830     0.7097540
  H       -2.8885640     1.2560570     0.2350690
  H       -1.3937740    -2.7714120     0.2029680
  H        1.5916390     1.5501200    -0.8540680
  H       -3.2895990    -1.1861590     0.4450020
  H        0.2351210     2.8885850     0.4923550
  H       -0.2380210     2.8365620    -1.2118290
  H       -1.4595390     3.0868260     0.0338520
  H        1.9415750    -1.8136360    -1.0094830
  H        1.7264620    -2.4417900     0.6300600
  H        0.8237630    -3.1662910    -0.7010550
  H        2.0935470     1.1833990     1.5571020
  H        3.4676080     1.0418550     0.4271840
  H        2.6734620    -0.4116070     1.0419720
units angstrom
no_reorient  #important for SAPT in psi4, default
symmetry c1  #important for SAPT in psi4, default
}

set PROPERTIES_ORIGIN ["COM"]
properties('MP2/aug-cc-pvtz', properties = ['dipole'])
--------------------------------------------------------------------------

    Molecular point group: c1
  Charge       = 0
  Multiplicity = 1
  Basis Set: AUG-CC-PVTZ
    Blend: AUG-CC-PVTZ
  Basis Set: (AUG-CC-PVTZ AUX)
    Blend: AUG-CC-PVTZ-JKFIT

    Orbital Energies [Eh]
    ---------------------

    Doubly Occupied:

       1A    -15.553806     2A    -11.257917     3A    -11.249542
       4A    -11.240251     5A    -11.233555     6A    -11.228066
       7A    -11.226244     8A    -11.224957     9A    -11.222965
      10A    -11.214574    11A     -1.226098    12A     -1.127432
      13A     -1.052135    14A     -1.012916    15A     -0.945344
      16A     -0.921893    17A     -0.891811    18A     -0.791467
      19A     -0.784755    20A     -0.693149    21A     -0.661510
      22A     -0.627572    23A     -0.605253    24A     -0.591459
      25A     -0.582154    26A     -0.569580    27A     -0.565165
      28A     -0.556050    29A     -0.554999    30A     -0.529956
      31A     -0.519956    32A     -0.488251    33A     -0.473299
      34A     -0.468693    35A     -0.402798    36A     -0.312984
      37A     -0.304063

  @DF-RHF Final Energy:  -402.95829930797549

   => Energetics <=

    Nuclear Repulsion Energy =            520.4147380524510709
    One-Electron Energy =               -1576.9208344044138812
    Two-Electron Energy =                 653.5477970439872024
    Total Energy =                       -402.9582993079754942
  Basis Set: (AUG-CC-PVTZ AUX)
    Blend: AUG-CC-PVTZ-RI
    Molecular point group: c1

    Geometry (in Angstrom), charge = 0, multiplicity = 1:

       Center              X                  Y                   Z               Mass
    ------------   -----------------  -----------------  -----------------  -----------------
         N            1.669824639640     0.623342828123    -0.460551630671    14.003074004430
         C            0.346090639640     0.162959828123    -0.197849630671    12.000000000000
         C           -0.727614360360     1.070482828123    -0.075419630671    12.000000000000
         C            0.123592639640    -1.226143171877    -0.106351630671    12.000000000000
         C           -2.062455960360     0.580221428123     0.157542569329    12.000000000000
         C           -1.174613360360    -1.684531171877     0.143015369329    12.000000000000
         C           -2.242050360360    -0.797637171877     0.270902369329    12.000000000000
         C           -0.497700360360     2.557008828123    -0.190455630671    12.000000000000
         C            1.250220639640    -2.205400171877    -0.300484630671    12.000000000000
         C            2.545288639640     0.627563828123     0.718601369329    12.000000000000
         H           -2.845577360360     1.270437828123     0.243916369329     1.007825032230
         H           -1.350787360360    -2.757031171877     0.211815369329     1.007825032230
         H            1.634625639640     1.564500828123    -0.845220630671     1.007825032230
         H           -3.246612360360    -1.171778171877     0.453849369329     1.007825032230
         H            0.278107639640     2.902965828123     0.501202369329     1.007825032230
         H           -0.195034360360     2.850942828123    -1.202981630671     1.007825032230
         H           -1.416552360360     3.101206828123     0.042699369329     1.007825032230
         H            1.984561639640    -1.799255171877    -1.000635630671     1.007825032230
         H            1.769448639640    -2.427409171877     0.638907369329     1.007825032230
         H            0.866749639640    -3.151910171877    -0.692207630671     1.007825032230
         H            2.136533639640     1.197779828123     1.565949369329     1.007825032230
         H            3.510594639640     1.056235828123     0.436031369329     1.007825032230
         H            2.716448639640    -0.397226171877     1.050819369329     1.007825032230

  Basis Set: AUG-CC-PVTZ
    Blend: AUG-CC-PVTZ
  Basis Set: (AUG-CC-PVTZ AUX)
    Blend: AUG-CC-PVTZ-JKFIT
	 Reference Energy          =    -402.9582993079754942 [Eh]
	 Singles Energy            =      -0.0000000000000000 [Eh]
	 Same-Spin Energy          =      -0.4479728029268004 [Eh]
	 Opposite-Spin Energy      =      -1.4661755295115952 [Eh]
	 Correlation Energy        =      -1.9141483324383957 [Eh]
	 Total Energy              =    -404.8724476404138954 [Eh]

	 ================> DF-SCS-MP2 Energies <==================
	-----------------------------------------------------------
	 SCS Same-Spin Scale       =       0.3333333333333333 [-]
	 SCS Opposite-Spin Scale   =       1.2000000000000000 [-]
	 SCS Same-Spin Energy      =      -0.1493242676422668 [Eh]
	 SCS Opposite-Spin Energy  =      -1.7594106354139143 [Eh]
	 SCS Correlation Energy    =      -1.9087349030561811 [Eh]
	 SCS Total Energy          =    -404.8670342110316938 [Eh]
	-----------------------------------------------------------

  Dipole Moment: [D]
     X:     0.5395      Y:     1.0761      Z:     0.5210     Total:     1.3117

*** Psi4 exiting successfully. Buy a developer a beer!
