                               Psi4 1.4a3.dev225

  ==> Input File <==

--------------------------------------------------------------------------
#psi4
#
memory 32 gb

molecule  {
0 1
  N        1.6268380     0.6089620    -0.4693990
  C        0.2973454     0.1521446    -0.2306442
  C       -0.7706010     1.0561020    -0.0842670
  C        0.0806060    -1.2405240    -0.1151990
  C       -2.0579110     0.5582020     0.1415980
  C       -1.2176000    -1.6989120     0.1341680
  C       -2.2850370    -0.8120180     0.2620550
  C       -0.5406870     2.5426280    -0.1993030
  C        1.2072340    -2.2197810    -0.3093320
  C        2.5023020     0.6131830     0.7097540
  H       -2.8885640     1.2560570     0.2350690
  H       -1.3937740    -2.7714120     0.2029680
  H        1.5916390     1.5501200    -0.8540680
  H       -3.2895990    -1.1861590     0.4450020
  H        0.2351210     2.8885850     0.4923550
  H       -0.2380210     2.8365620    -1.2118290
  H       -1.4595390     3.0868260     0.0338520
  H        1.9415750    -1.8136360    -1.0094830
  H        1.7264620    -2.4417900     0.6300600
  H        0.8237630    -3.1662910    -0.7010550
  H        2.0935470     1.1833990     1.5571020
  H        3.4676080     1.0418550     0.4271840
  H        2.6734620    -0.4116070     1.0419720
units angstrom
no_reorient  #important for SAPT in psi4, default
symmetry c1  #important for SAPT in psi4, default
}

set PROPERTIES_ORIGIN ["COM"]
properties('MP2/aug-cc-pvtz', properties = ['dipole'])
--------------------------------------------------------------------------

    Molecular point group: c1
  Charge       = 0
  Multiplicity = 1
  Basis Set: AUG-CC-PVTZ
    Blend: AUG-CC-PVTZ
  Basis Set: (AUG-CC-PVTZ AUX)
    Blend: AUG-CC-PVTZ-JKFIT

    Orbital Energies [Eh]
    ---------------------

    Doubly Occupied:

       1A    -15.553511     2A    -11.258353     3A    -11.250006
       4A    -11.235392     5A    -11.232493     6A    -11.228231
       7A    -11.225430     8A    -11.224246     9A    -11.222994
      10A    -11.214229    11A     -1.226137    12A     -1.130790
      13A     -1.054405    14A     -1.012441    15A     -0.945690
      16A     -0.922175    17A     -0.892204    18A     -0.794009
      19A     -0.781777    20A     -0.691908    21A     -0.660916
      22A     -0.628915    23A     -0.604150    24A     -0.591650
      25A     -0.578639    26A     -0.568838    27A     -0.565365
      28A     -0.556813    29A     -0.552344    30A     -0.530670
      31A     -0.521096    32A     -0.485652    33A     -0.476452
      34A     -0.471027    35A     -0.402297    36A     -0.317147
      37A     -0.302559

  @DF-RHF Final Energy:  -402.96161891947281

   => Energetics <=

    Nuclear Repulsion Energy =            521.2603648882177367
    One-Electron Energy =               -1578.6220640118838219
    Two-Electron Energy =                 654.4000802041932729
    Total Energy =                       -402.9616189194728122
  Basis Set: (AUG-CC-PVTZ AUX)
    Blend: AUG-CC-PVTZ-RI
    Molecular point group: c1

    Geometry (in Angstrom), charge = 0, multiplicity = 1:

       Center              X                  Y                   Z               Mass
    ------------   -----------------  -----------------  -----------------  -----------------
         N            1.666114364342     0.623704591733    -0.457794268967    14.003074004430
         C            0.336621764342     0.166887191733    -0.219039468967    12.000000000000
         C           -0.731324635658     1.070844591733    -0.072662268967    12.000000000000
         C            0.119882364342    -1.225781408267    -0.103594268967    12.000000000000
         C           -2.018634635658     0.572944591733     0.153202731033    12.000000000000
         C           -1.178323635658    -1.684169408267     0.145772731033    12.000000000000
         C           -2.245760635658    -0.797275408267     0.273659731033    12.000000000000
         C           -0.501410635658     2.557370591733    -0.187698268967    12.000000000000
         C            1.246510364342    -2.205038408267    -0.297727268967    12.000000000000
         C            2.541578364342     0.627925591733     0.721358731033    12.000000000000
         H           -2.849287635658     1.270799591733     0.246673731033     1.007825032230
         H           -1.354497635658    -2.756669408267     0.214572731033     1.007825032230
         H            1.630915364342     1.564862591733    -0.842463268967     1.007825032230
         H           -3.250322635658    -1.171416408267     0.456606731033     1.007825032230
         H            0.274397364342     2.903327591733     0.503959731033     1.007825032230
         H           -0.198744635658     2.851304591733    -1.200224268967     1.007825032230
         H           -1.420262635658     3.101568591733     0.045456731033     1.007825032230
         H            1.980851364342    -1.798893408267    -0.997878268967     1.007825032230
         H            1.765738364342    -2.427047408267     0.641664731033     1.007825032230
         H            0.863039364342    -3.151548408267    -0.689450268967     1.007825032230
         H            2.132823364342     1.198141591733     1.568706731033     1.007825032230
         H            3.506884364342     1.056597591733     0.438788731033     1.007825032230
         H            2.712738364342    -0.396864408267     1.053576731033     1.007825032230

  Basis Set: AUG-CC-PVTZ
    Blend: AUG-CC-PVTZ
  Basis Set: (AUG-CC-PVTZ AUX)
    Blend: AUG-CC-PVTZ-JKFIT
	 Reference Energy          =    -402.9616189194728122 [Eh]
	 Singles Energy            =      -0.0000000000000000 [Eh]
	 Same-Spin Energy          =      -0.4479709597894639 [Eh]
	 Opposite-Spin Energy      =      -1.4658673690733173 [Eh]
	 Correlation Energy        =      -1.9138383288627812 [Eh]
	 Total Energy              =    -404.8754572483355787 [Eh]

	 ================> DF-SCS-MP2 Energies <==================
	-----------------------------------------------------------
	 SCS Same-Spin Scale       =       0.3333333333333333 [-]
	 SCS Opposite-Spin Scale   =       1.2000000000000000 [-]
	 SCS Same-Spin Energy      =      -0.1493236532631546 [Eh]
	 SCS Opposite-Spin Energy  =      -1.7590408428879807 [Eh]
	 SCS Correlation Energy    =      -1.9083644961511352 [Eh]
	 SCS Total Energy          =    -404.8699834156239490 [Eh]
	-----------------------------------------------------------

  Dipole Moment: [D]
     X:     0.5410      Y:     1.0672      Z:     0.5254     Total:     1.3068

*** Psi4 exiting successfully. Buy a developer a beer!
