                               Psi4 1.4a3.dev225

  ==> Input File <==

--------------------------------------------------------------------------
#psi4
#
memory 32 gb

molecule  {
0 1
  N        1.6268380     0.6089620    -0.4693990
  C        0.3031040     0.1485790    -0.2066970
  C       -0.7706010     1.0561020    -0.0842670
  C        0.0806060    -1.2405240    -0.1151990
  C       -2.0579110     0.5582020     0.1415980
  C       -1.2176000    -1.6989120     0.1341680
  C       -2.2539829    -0.7750860     0.2558798
  C       -0.5406870     2.5426280    -0.1993030
  C        1.2072340    -2.2197810    -0.3093320
  C        2.5023020     0.6131830     0.7097540
  H       -2.8885640     1.2560570     0.2350690
  H       -1.3937740    -2.7714120     0.2029680
  H        1.5916390     1.5501200    -0.8540680
  H       -3.2895990    -1.1861590     0.4450020
  H        0.2351210     2.8885850     0.4923550
  H       -0.2380210     2.8365620    -1.2118290
  H       -1.4595390     3.0868260     0.0338520
  H        1.9415750    -1.8136360    -1.0094830
  H        1.7264620    -2.4417900     0.6300600
  H        0.8237630    -3.1662910    -0.7010550
  H        2.0935470     1.1833990     1.5571020
  H        3.4676080     1.0418550     0.4271840
  H        2.6734620    -0.4116070     1.0419720
units angstrom
no_reorient  #important for SAPT in psi4, default
symmetry c1  #important for SAPT in psi4, default
}

set PROPERTIES_ORIGIN ["COM"]
properties('MP2/aug-cc-pvtz', properties = ['dipole'])
--------------------------------------------------------------------------

    Molecular point group: c1
  Charge       = 0
  Multiplicity = 1
  Basis Set: AUG-CC-PVTZ
    Blend: AUG-CC-PVTZ
  Basis Set: (AUG-CC-PVTZ AUX)
    Blend: AUG-CC-PVTZ-JKFIT

    Orbital Energies [Eh]
    ---------------------

    Doubly Occupied:

       1A    -15.553412     2A    -11.257224     3A    -11.249376
       4A    -11.235742     5A    -11.232334     6A    -11.228261
       7A    -11.223770     8A    -11.222412     9A    -11.219977
      10A    -11.214079    11A     -1.226444    12A     -1.134998
      13A     -1.055127    14A     -1.014432    15A     -0.945246
      16A     -0.924518    17A     -0.891620    18A     -0.793599
      19A     -0.779596    20A     -0.694264    21A     -0.661822
      22A     -0.626499    23A     -0.600622    24A     -0.592572
      25A     -0.579588    26A     -0.569354    27A     -0.564855
      28A     -0.558043    29A     -0.552801    30A     -0.528077
      31A     -0.522670    32A     -0.484414    33A     -0.475315
      34A     -0.472402    35A     -0.402966    36A     -0.317948
      37A     -0.304060

  @DF-RHF Final Energy:  -402.95892757987252

   => Energetics <=

    Nuclear Repulsion Energy =            522.1883987087909418
    One-Electron Energy =               -1580.4737769927257887
    Two-Electron Energy =                 655.3264507040622675
    Total Energy =                       -402.9589275798724657
  Basis Set: (AUG-CC-PVTZ AUX)
    Blend: AUG-CC-PVTZ-RI
    Molecular point group: c1

    Geometry (in Angstrom), charge = 0, multiplicity = 1:

       Center              X                  Y                   Z               Mass
    ------------   -----------------  -----------------  -----------------  -----------------
         N            1.662844662585     0.620740990131    -0.459372776917    14.003074004430
         C            0.339110662585     0.160357990131    -0.196670776917    12.000000000000
         C           -0.734594337415     1.067880990131    -0.074240776917    12.000000000000
         C            0.116612662585    -1.228745009869    -0.105172776917    12.000000000000
         C           -2.021904337415     0.569980990131     0.151624223083    12.000000000000
         C           -1.181593337415    -1.687133009869     0.144194223083    12.000000000000
         C           -2.217976237415    -0.763307009869     0.265906023083    12.000000000000
         C           -0.504680337415     2.554406990131    -0.189276776917    12.000000000000
         C            1.243240662585    -2.208002009869    -0.299305776917    12.000000000000
         C            2.538308662585     0.624961990131     0.719780223083    12.000000000000
         H           -2.852557337415     1.267835990131     0.245095223083     1.007825032230
         H           -1.357767337415    -2.759633009869     0.212994223083     1.007825032230
         H            1.627645662585     1.561898990131    -0.844041776917     1.007825032230
         H           -3.253592337415    -1.174380009869     0.455028223083     1.007825032230
         H            0.271127662585     2.900363990131     0.502381223083     1.007825032230
         H           -0.202014337415     2.848340990131    -1.201802776917     1.007825032230
         H           -1.423532337415     3.098604990131     0.043878223083     1.007825032230
         H            1.977581662585    -1.801857009869    -0.999456776917     1.007825032230
         H            1.762468662585    -2.430011009869     0.640086223083     1.007825032230
         H            0.859769662585    -3.154512009869    -0.691028776917     1.007825032230
         H            2.129553662585     1.195177990131     1.567128223083     1.007825032230
         H            3.503614662585     1.053633990131     0.437210223083     1.007825032230
         H            2.709468662585    -0.399828009869     1.051998223083     1.007825032230

  Basis Set: AUG-CC-PVTZ
    Blend: AUG-CC-PVTZ
  Basis Set: (AUG-CC-PVTZ AUX)
    Blend: AUG-CC-PVTZ-JKFIT
	 Reference Energy          =    -402.9589275798725225 [Eh]
	 Singles Energy            =      -0.0000000000000000 [Eh]
	 Same-Spin Energy          =      -0.4480586605032333 [Eh]
	 Opposite-Spin Energy      =      -1.4657997330754986 [Eh]
	 Correlation Energy        =      -1.9138583935787319 [Eh]
	 Total Energy              =    -404.8727859734512435 [Eh]

	 ================> DF-SCS-MP2 Energies <==================
	-----------------------------------------------------------
	 SCS Same-Spin Scale       =       0.3333333333333333 [-]
	 SCS Opposite-Spin Scale   =       1.2000000000000000 [-]
	 SCS Same-Spin Energy      =      -0.1493528868344111 [Eh]
	 SCS Opposite-Spin Energy  =      -1.7589596796905982 [Eh]
	 SCS Correlation Energy    =      -1.9083125665250094 [Eh]
	 SCS Total Energy          =    -404.8672401463975348 [Eh]
	-----------------------------------------------------------

  Dipole Moment: [D]
     X:     0.5494      Y:     1.0687      Z:     0.5171     Total:     1.3082

*** Psi4 exiting successfully. Buy a developer a beer!
