                               Psi4 1.4a3.dev225

  ==> Input File <==

--------------------------------------------------------------------------
#psi4
#
memory 32 gb

molecule  {
0 1
  N        1.6268380     0.6089620    -0.4693990
  C        0.3031040     0.1485790    -0.2066970
  C       -0.7706010     1.0561020    -0.0842670
  C        0.0806060    -1.2405240    -0.1151990
  C       -2.0579110     0.5582020     0.1415980
  C       -1.2176000    -1.6989120     0.1341680
  C       -2.2850370    -0.8120180     0.2620550
  C       -0.5406870     2.5426280    -0.1993030
  C        1.2072340    -2.2197810    -0.3093320
  C        2.5023020     0.6131830     0.7097540
  H       -2.8885640     1.2560570     0.2350690
  H       -1.3937740    -2.7714120     0.2029680
  H        1.5916390     1.5501200    -0.8540680
  H       -3.2895990    -1.1861590     0.4450020
  H        0.3767662     2.9517490     0.6186363
  H       -0.2380210     2.8365620    -1.2118290
  H       -1.4595390     3.0868260     0.0338520
  H        1.9415750    -1.8136360    -1.0094830
  H        1.7264620    -2.4417900     0.6300600
  H        0.8237630    -3.1662910    -0.7010550
  H        2.0935470     1.1833990     1.5571020
  H        3.4676080     1.0418550     0.4271840
  H        2.6734620    -0.4116070     1.0419720
units angstrom
no_reorient  #important for SAPT in psi4, default
symmetry c1  #important for SAPT in psi4, default
}

set PROPERTIES_ORIGIN ["COM"]
properties('MP2/aug-cc-pvtz', properties = ['dipole'])
--------------------------------------------------------------------------

    Molecular point group: c1
  Charge       = 0
  Multiplicity = 1
  Basis Set: AUG-CC-PVTZ
    Blend: AUG-CC-PVTZ
  Basis Set: (AUG-CC-PVTZ AUX)
    Blend: AUG-CC-PVTZ-JKFIT

    Orbital Energies [Eh]
    ---------------------

    Doubly Occupied:

       1A    -15.553377     2A    -11.259366     3A    -11.251132
       4A    -11.249093     5A    -11.237851     6A    -11.232747
       7A    -11.227136     8A    -11.225481     9A    -11.224244
      10A    -11.214526    11A     -1.226402    12A     -1.131692
      13A     -1.053468    14A     -1.011703    15A     -0.942191
      16A     -0.917636    17A     -0.891547    18A     -0.792897
      19A     -0.781861    20A     -0.692126    21A     -0.661526
      22A     -0.628136    23A     -0.603450    24A     -0.591636
      25A     -0.576150    26A     -0.569256    27A     -0.560436
      28A     -0.553898    29A     -0.544821    30A     -0.530589
      31A     -0.511541    32A     -0.485192    33A     -0.477295
      34A     -0.467431    35A     -0.402306    36A     -0.317655
      37A     -0.303242

  @DF-RHF Final Energy:  -402.94179686729080

   => Energetics <=

    Nuclear Repulsion Energy =            520.5757714568158008
    One-Electron Energy =               -1577.2330610774711204
    Two-Electron Energy =                 653.7154927533645150
    Total Energy =                       -402.9417968672908046
  Basis Set: (AUG-CC-PVTZ AUX)
    Blend: AUG-CC-PVTZ-RI
    Molecular point group: c1

    Geometry (in Angstrom), charge = 0, multiplicity = 1:

       Center              X                  Y                   Z               Mass
    ------------   -----------------  -----------------  -----------------  -----------------
         N            1.664546272171     0.623550111208    -0.460863263236    14.003074004430
         C            0.340812272171     0.163167111208    -0.198161263236    12.000000000000
         C           -0.732892727829     1.070690111208    -0.075731263236    12.000000000000
         C            0.118314272171    -1.225935888792    -0.106663263236    12.000000000000
         C           -2.020202727829     0.572790111208     0.150133736764    12.000000000000
         C           -1.179891727829    -1.684323888792     0.142703736764    12.000000000000
         C           -2.247328727829    -0.797429888792     0.270590736764    12.000000000000
         C           -0.502978727829     2.557216111208    -0.190767263236    12.000000000000
         C            1.244942272171    -2.205192888792    -0.300796263236    12.000000000000
         C            2.540010272171     0.627771111208     0.718289736764    12.000000000000
         H           -2.850855727829     1.270645111208     0.243604736764     1.007825032230
         H           -1.356065727829    -2.756823888792     0.211503736764     1.007825032230
         H            1.629347272171     1.564708111208    -0.845532263236     1.007825032230
         H           -3.251890727829    -1.171570888792     0.453537736764     1.007825032230
         H            0.414474472171     2.966337111208     0.627172036764     1.007825032230
         H           -0.200312727829     2.851150111208    -1.203293263236     1.007825032230
         H           -1.421830727829     3.101414111208     0.042387736764     1.007825032230
         H            1.979283272171    -1.799047888792    -1.000947263236     1.007825032230
         H            1.764170272171    -2.427201888792     0.638595736764     1.007825032230
         H            0.861471272171    -3.151702888792    -0.692519263236     1.007825032230
         H            2.131255272171     1.197987111208     1.565637736764     1.007825032230
         H            3.505316272171     1.056443111208     0.435719736764     1.007825032230
         H            2.711170272171    -0.397018888792     1.050507736764     1.007825032230

  Basis Set: AUG-CC-PVTZ
    Blend: AUG-CC-PVTZ
  Basis Set: (AUG-CC-PVTZ AUX)
    Blend: AUG-CC-PVTZ-JKFIT
	 Reference Energy          =    -402.9417968672908046 [Eh]
	 Singles Energy            =      -0.0000000000000000 [Eh]
	 Same-Spin Energy          =      -0.4481507153972966 [Eh]
	 Opposite-Spin Energy      =      -1.4675878453444211 [Eh]
	 Correlation Energy        =      -1.9157385607417177 [Eh]
	 Total Energy              =    -404.8575354280325200 [Eh]

	 ================> DF-SCS-MP2 Energies <==================
	-----------------------------------------------------------
	 SCS Same-Spin Scale       =       0.3333333333333333 [-]
	 SCS Opposite-Spin Scale   =       1.2000000000000000 [-]
	 SCS Same-Spin Energy      =      -0.1493835717990988 [Eh]
	 SCS Opposite-Spin Energy  =      -1.7611054144133054 [Eh]
	 SCS Correlation Energy    =      -1.9104889862124041 [Eh]
	 SCS Total Energy          =    -404.8522858535031901 [Eh]
	-----------------------------------------------------------

  Dipole Moment: [D]
     X:     0.4522      Y:     0.9591      Z:     0.4562     Total:     1.1543

*** Psi4 exiting successfully. Buy a developer a beer!
