                               Psi4 1.4a3.dev225

  ==> Input File <==

--------------------------------------------------------------------------
#psi4
#
memory 32 gb

molecule  {
0 1
  N        1.6268380     0.6089620    -0.4693990
  C        0.3031040     0.1485790    -0.2066970
  C       -0.7706010     1.0561020    -0.0842670
  C        0.0490411    -1.4375904    -0.1022186
  C       -2.0579110     0.5582020     0.1415980
  C       -1.2176000    -1.6989120     0.1341680
  C       -2.2850370    -0.8120180     0.2620550
  C       -0.5406870     2.5426280    -0.1993030
  C        1.2072340    -2.2197810    -0.3093320
  C        2.5023020     0.6131830     0.7097540
  H       -2.8885640     1.2560570     0.2350690
  H       -1.3937740    -2.7714120     0.2029680
  H        1.5916390     1.5501200    -0.8540680
  H       -3.2895990    -1.1861590     0.4450020
  H        0.2351210     2.8885850     0.4923550
  H       -0.2380210     2.8365620    -1.2118290
  H       -1.4595390     3.0868260     0.0338520
  H        1.9415750    -1.8136360    -1.0094830
  H        1.7264620    -2.4417900     0.6300600
  H        0.8237630    -3.1662910    -0.7010550
  H        2.0935470     1.1833990     1.5571020
  H        3.4676080     1.0418550     0.4271840
  H        2.6734620    -0.4116070     1.0419720
units angstrom
no_reorient  #important for SAPT in psi4, default
symmetry c1  #important for SAPT in psi4, default
}

set PROPERTIES_ORIGIN ["COM"]
properties('MP2/aug-cc-pvtz', properties = ['dipole'])
--------------------------------------------------------------------------

    Molecular point group: c1
  Charge       = 0
  Multiplicity = 1
  Basis Set: AUG-CC-PVTZ
    Blend: AUG-CC-PVTZ
  Basis Set: (AUG-CC-PVTZ AUX)
    Blend: AUG-CC-PVTZ-JKFIT

    Orbital Energies [Eh]
    ---------------------

    Doubly Occupied:

       1A    -15.557262     2A    -11.271870     3A    -11.251270
       4A    -11.238174     5A    -11.230706     6A    -11.226976
       7A    -11.226614     8A    -11.222892     9A    -11.214163
      10A    -11.213843    11A     -1.222334    12A     -1.131587
      13A     -1.068730    14A     -1.013597    15A     -0.941867
      16A     -0.932766    17A     -0.886820    18A     -0.800534
      19A     -0.764009    20A     -0.688618    21A     -0.667120
      22A     -0.631707    23A     -0.604296    24A     -0.593899
      25A     -0.581984    26A     -0.576574    27A     -0.565783
      28A     -0.559371    29A     -0.556626    30A     -0.534429
      31A     -0.520636    32A     -0.503833    33A     -0.467648
      34A     -0.439421    35A     -0.399905    36A     -0.330330
      37A     -0.284267

  @DF-RHF Final Energy:  -402.91865995811406

   => Energetics <=

    Nuclear Repulsion Energy =            519.4942671348367185
    One-Electron Energy =               -1574.9809360616732192
    Two-Electron Energy =                 652.5680089687224381
    Total Energy =                       -402.9186599581140626
  Basis Set: (AUG-CC-PVTZ AUX)
    Blend: AUG-CC-PVTZ-RI
    Molecular point group: c1

    Geometry (in Angstrom), charge = 0, multiplicity = 1:

       Center              X                  Y                   Z               Mass
    ------------   -----------------  -----------------  -----------------  -----------------
         N            1.668406478325     0.641524713670    -0.461074176134    14.003074004430
         C            0.344672478325     0.181141713670    -0.198372176134    12.000000000000
         C           -0.729032521675     1.088664713670    -0.075942176134    12.000000000000
         C            0.090609578325    -1.405027686330    -0.093893776134    12.000000000000
         C           -2.016342521675     0.590764713670     0.149922823866    12.000000000000
         C           -1.176031521675    -1.666349286330     0.142492823866    12.000000000000
         C           -2.243468521675    -0.779455286330     0.270379823866    12.000000000000
         C           -0.499118521675     2.575190713670    -0.190978176134    12.000000000000
         C            1.248802478325    -2.187218286330    -0.301007176134    12.000000000000
         C            2.543870478325     0.645745713670     0.718078823866    12.000000000000
         H           -2.846995521675     1.288619713670     0.243393823866     1.007825032230
         H           -1.352205521675    -2.738849286330     0.211292823866     1.007825032230
         H            1.633207478325     1.582682713670    -0.845743176134     1.007825032230
         H           -3.248030521675    -1.153596286330     0.453326823866     1.007825032230
         H            0.276689478325     2.921147713670     0.500679823866     1.007825032230
         H           -0.196452521675     2.869124713670    -1.203504176134     1.007825032230
         H           -1.417970521675     3.119388713670     0.042176823866     1.007825032230
         H            1.983143478325    -1.781073286330    -1.001158176134     1.007825032230
         H            1.768030478325    -2.409227286330     0.638384823866     1.007825032230
         H            0.865331478325    -3.133728286330    -0.692730176134     1.007825032230
         H            2.135115478325     1.215961713670     1.565426823866     1.007825032230
         H            3.509176478325     1.074417713670     0.435508823866     1.007825032230
         H            2.715030478325    -0.379044286330     1.050296823866     1.007825032230

  Basis Set: AUG-CC-PVTZ
    Blend: AUG-CC-PVTZ
  Basis Set: (AUG-CC-PVTZ AUX)
    Blend: AUG-CC-PVTZ-JKFIT
	 Reference Energy          =    -402.9186599581140626 [Eh]
	 Singles Energy            =      -0.0000000000000000 [Eh]
	 Same-Spin Energy          =      -0.4491545410295080 [Eh]
	 Opposite-Spin Energy      =      -1.4694934215252442 [Eh]
	 Correlation Energy        =      -1.9186479625547523 [Eh]
	 Total Energy              =    -404.8373079206688203 [Eh]

	 ================> DF-SCS-MP2 Energies <==================
	-----------------------------------------------------------
	 SCS Same-Spin Scale       =       0.3333333333333333 [-]
	 SCS Opposite-Spin Scale   =       1.2000000000000000 [-]
	 SCS Same-Spin Energy      =      -0.1497181803431693 [Eh]
	 SCS Opposite-Spin Energy  =      -1.7633921058302930 [Eh]
	 SCS Correlation Energy    =      -1.9131102861734623 [Eh]
	 SCS Total Energy          =    -404.8317702442874975 [Eh]
	-----------------------------------------------------------

  Dipole Moment: [D]
     X:     0.7848      Y:     1.0194      Z:     0.4861     Total:     1.3753

*** Psi4 exiting successfully. Buy a developer a beer!
