                               Psi4 1.4a3.dev225

  ==> Input File <==

--------------------------------------------------------------------------
#psi4
#
memory 32 gb

molecule  {
0 1
  N        1.6268380     0.6089620    -0.4693990
  C        0.3031040     0.1485790    -0.2066970
  C       -0.7706010     1.0561020    -0.0842670
  C        0.0806060    -1.2405240    -0.1151990
  C       -2.0579110     0.5582020     0.1415980
  C       -1.2176000    -1.6989120     0.1341680
  C       -2.2850370    -0.8120180     0.2620550
  C       -0.5406870     2.5426280    -0.1993030
  C        1.2072340    -2.2197810    -0.3093320
  C        2.5023020     0.6131830     0.7097540
  H       -2.8885640     1.2560570     0.2350690
  H       -1.3937740    -2.7714120     0.2029680
  H        1.5916390     1.5501200    -0.8540680
  H       -3.2895990    -1.1861590     0.4450020
  H        0.3059436     2.9201670     0.5554956
  H       -0.2380210     2.8365620    -1.2118290
  H       -1.4595390     3.0868260     0.0338520
  H        1.9415750    -1.8136360    -1.0094830
  H        1.7264620    -2.4417900     0.6300600
  H        0.8237630    -3.1662910    -0.7010550
  H        2.0935470     1.1833990     1.5571020
  H        3.4676080     1.0418550     0.4271840
  H        2.6734620    -0.4116070     1.0419720
units angstrom
no_reorient  #important for SAPT in psi4, default
symmetry c1  #important for SAPT in psi4, default
}

set PROPERTIES_ORIGIN ["COM"]
properties('MP2/aug-cc-pvtz', properties = ['dipole'])
--------------------------------------------------------------------------

    Molecular point group: c1
  Charge       = 0
  Multiplicity = 1
  Basis Set: AUG-CC-PVTZ
    Blend: AUG-CC-PVTZ
  Basis Set: (AUG-CC-PVTZ AUX)
    Blend: AUG-CC-PVTZ-JKFIT

    Orbital Energies [Eh]
    ---------------------

    Doubly Occupied:

       1A    -15.553574     2A    -11.258691     3A    -11.249394
       4A    -11.240203     5A    -11.236745     6A    -11.232335
       7A    -11.226131     8A    -11.224784     9A    -11.223539
      10A    -11.214290    11A     -1.226441    12A     -1.131174
      13A     -1.053594    14A     -1.011820    15A     -0.943221
      16A     -0.919512    17A     -0.891776    18A     -0.793480
      19A     -0.781457    20A     -0.692204    21A     -0.661059
      22A     -0.628481    23A     -0.603326    24A     -0.591469
      25A     -0.576361    26A     -0.569014    27A     -0.560229
      28A     -0.553349    29A     -0.552040    30A     -0.530629
      31A     -0.517548    32A     -0.485216    33A     -0.477138
      34A     -0.469866    35A     -0.402374    36A     -0.317321
      37A     -0.302943

  @DF-RHF Final Energy:  -402.95522347643146

   => Energetics <=

    Nuclear Repulsion Energy =            520.9252042432478902
    One-Electron Energy =               -1577.9553991747088730
    Two-Electron Energy =                 654.0749714550295266
    Total Energy =                       -402.9552234764314562
  Basis Set: (AUG-CC-PVTZ AUX)
    Blend: AUG-CC-PVTZ-RI
    Molecular point group: c1

    Geometry (in Angstrom), charge = 0, multiplicity = 1:

       Center              X                  Y                   Z               Mass
    ------------   -----------------  -----------------  -----------------  -----------------
         N            1.665074579007     0.623785699657    -0.460392260146    14.003074004430
         C            0.341340579007     0.163402699657    -0.197690260146    12.000000000000
         C           -0.732364420993     1.070925699657    -0.075260260146    12.000000000000
         C            0.118842579007    -1.225700300343    -0.106192260146    12.000000000000
         C           -2.019674420993     0.573025699657     0.150604739854    12.000000000000
         C           -1.179363420993    -1.684088300343     0.143174739854    12.000000000000
         C           -2.246800420993    -0.797194300343     0.271061739854    12.000000000000
         C           -0.502450420993     2.557451699657    -0.190296260146    12.000000000000
         C            1.245470579007    -2.204957300343    -0.300325260146    12.000000000000
         C            2.540538579007     0.628006699657     0.718760739854    12.000000000000
         H           -2.850327420993     1.270880699657     0.244075739854     1.007825032230
         H           -1.355537420993    -2.756588300343     0.211974739854     1.007825032230
         H            1.629875579007     1.564943699657    -0.845061260146     1.007825032230
         H           -3.251362420993    -1.171335300343     0.454008739854     1.007825032230
         H            0.344180179007     2.934990699657     0.564502339854     1.007825032230
         H           -0.199784420993     2.851385699657    -1.202822260146     1.007825032230
         H           -1.421302420993     3.101649699657     0.042858739854     1.007825032230
         H            1.979811579007    -1.798812300343    -1.000476260146     1.007825032230
         H            1.764698579007    -2.426966300343     0.639066739854     1.007825032230
         H            0.861999579007    -3.151467300343    -0.692048260146     1.007825032230
         H            2.131783579007     1.198222699657     1.566108739854     1.007825032230
         H            3.505844579007     1.056678699657     0.436190739854     1.007825032230
         H            2.711698579007    -0.396783300343     1.050978739854     1.007825032230

  Basis Set: AUG-CC-PVTZ
    Blend: AUG-CC-PVTZ
  Basis Set: (AUG-CC-PVTZ AUX)
    Blend: AUG-CC-PVTZ-JKFIT
	 Reference Energy          =    -402.9552234764314562 [Eh]
	 Singles Energy            =      -0.0000000000000000 [Eh]
	 Same-Spin Energy          =      -0.4480700664951937 [Eh]
	 Opposite-Spin Energy      =      -1.4666777948773908 [Eh]
	 Correlation Energy        =      -1.9147478613725846 [Eh]
	 Total Energy              =    -404.8699713378040315 [Eh]

	 ================> DF-SCS-MP2 Energies <==================
	-----------------------------------------------------------
	 SCS Same-Spin Scale       =       0.3333333333333333 [-]
	 SCS Opposite-Spin Scale   =       1.2000000000000000 [-]
	 SCS Same-Spin Energy      =      -0.1493566888317312 [Eh]
	 SCS Opposite-Spin Energy  =      -1.7600133538528688 [Eh]
	 SCS Correlation Energy    =      -1.9093700426846001 [Eh]
	 SCS Total Energy          =    -404.8645935191160561 [Eh]
	-----------------------------------------------------------

  Dipole Moment: [D]
     X:     0.5005      Y:     1.0233      Z:     0.4921     Total:     1.2409

*** Psi4 exiting successfully. Buy a developer a beer!
