                               Psi4 1.4a3.dev225

  ==> Input File <==

--------------------------------------------------------------------------
#psi4
#
memory 32 gb

molecule  {
0 1
  N        1.6268380     0.6089620    -0.4693990
  C        0.3031040     0.1485790    -0.2066970
  C       -0.7706010     1.0561020    -0.0842670
  C        0.0806060    -1.2405240    -0.1151990
  C       -2.0579110     0.5582020     0.1415980
  C       -1.2176000    -1.6989120     0.1341680
  C       -2.2467415    -0.8438363     0.2574669
  C       -0.5406870     2.5426280    -0.1993030
  C        1.2072340    -2.2197810    -0.3093320
  C        2.5023020     0.6131830     0.7097540
  H       -2.8885640     1.2560570     0.2350690
  H       -1.3937740    -2.7714120     0.2029680
  H        1.5916390     1.5501200    -0.8540680
  H       -3.2895990    -1.1861590     0.4450020
  H        0.2351210     2.8885850     0.4923550
  H       -0.2380210     2.8365620    -1.2118290
  H       -1.4595390     3.0868260     0.0338520
  H        1.9415750    -1.8136360    -1.0094830
  H        1.7264620    -2.4417900     0.6300600
  H        0.8237630    -3.1662910    -0.7010550
  H        2.0935470     1.1833990     1.5571020
  H        3.4676080     1.0418550     0.4271840
  H        2.6734620    -0.4116070     1.0419720
units angstrom
no_reorient  #important for SAPT in psi4, default
symmetry c1  #important for SAPT in psi4, default
}

set PROPERTIES_ORIGIN ["COM"]
properties('MP2/aug-cc-pvtz', properties = ['dipole'])
--------------------------------------------------------------------------

    Molecular point group: c1
  Charge       = 0
  Multiplicity = 1
  Basis Set: AUG-CC-PVTZ
    Blend: AUG-CC-PVTZ
  Basis Set: (AUG-CC-PVTZ AUX)
    Blend: AUG-CC-PVTZ-JKFIT

    Orbital Energies [Eh]
    ---------------------

    Doubly Occupied:

       1A    -15.553459     2A    -11.257367     3A    -11.249374
       4A    -11.236422     5A    -11.231777     6A    -11.228449
       7A    -11.226973     8A    -11.223547     9A    -11.217741
      10A    -11.214069    11A     -1.226391    12A     -1.133467
      13A     -1.055413    14A     -1.013185    15A     -0.945382
      16A     -0.924683    17A     -0.890707    18A     -0.791138
      19A     -0.783131    20A     -0.693177    21A     -0.662631
      22A     -0.625112    23A     -0.603119    24A     -0.592015
      25A     -0.579399    26A     -0.569452    27A     -0.564889
      28A     -0.556603    29A     -0.554274    30A     -0.529557
      31A     -0.519970    32A     -0.488904    33A     -0.473131
      34A     -0.470370    35A     -0.403028    36A     -0.320003
      37A     -0.301630

  @DF-RHF Final Energy:  -402.95871655845059

   => Energetics <=

    Nuclear Repulsion Energy =            521.8473950958547221
    One-Electron Energy =               -1579.7923451010424287
    Two-Electron Energy =                 654.9862334467372875
    Total Energy =                       -402.9587165584505328
  Basis Set: (AUG-CC-PVTZ AUX)
    Blend: AUG-CC-PVTZ-RI
    Molecular point group: c1

    Geometry (in Angstrom), charge = 0, multiplicity = 1:

       Center              X                  Y                   Z               Mass
    ------------   -----------------  -----------------  -----------------  -----------------
         N            1.662201481881     0.626847387561    -0.459513743041    14.003074004430
         C            0.338467481881     0.166464387561    -0.196811743041    12.000000000000
         C           -0.735237518119     1.073987387561    -0.074381743041    12.000000000000
         C            0.115969481881    -1.222638612439    -0.105313743041    12.000000000000
         C           -2.022547518119     0.576087387561     0.151483256959    12.000000000000
         C           -1.182236518119    -1.681026612439     0.144053256959    12.000000000000
         C           -2.211378018119    -0.825950912439     0.267352156959    12.000000000000
         C           -0.505323518119     2.560513387561    -0.189417743041    12.000000000000
         C            1.242597481881    -2.201895612439    -0.299446743041    12.000000000000
         C            2.537665481881     0.631068387561     0.719639256959    12.000000000000
         H           -2.853200518119     1.273942387561     0.244954256959     1.007825032230
         H           -1.358410518119    -2.753526612439     0.212853256959     1.007825032230
         H            1.627002481881     1.568005387561    -0.844182743041     1.007825032230
         H           -3.254235518119    -1.168273612439     0.454887256959     1.007825032230
         H            0.270484481881     2.906470387561     0.502240256959     1.007825032230
         H           -0.202657518119     2.854447387561    -1.201943743041     1.007825032230
         H           -1.424175518119     3.104711387561     0.043737256959     1.007825032230
         H            1.976938481881    -1.795750612439    -0.999597743041     1.007825032230
         H            1.761825481881    -2.423904612439     0.639945256959     1.007825032230
         H            0.859126481881    -3.148405612439    -0.691169743041     1.007825032230
         H            2.128910481881     1.201284387561     1.566987256959     1.007825032230
         H            3.502971481881     1.059740387561     0.437069256959     1.007825032230
         H            2.708825481881    -0.393721612439     1.051857256959     1.007825032230

  Basis Set: AUG-CC-PVTZ
    Blend: AUG-CC-PVTZ
  Basis Set: (AUG-CC-PVTZ AUX)
    Blend: AUG-CC-PVTZ-JKFIT
	 Reference Energy          =    -402.9587165584505897 [Eh]
	 Singles Energy            =      -0.0000000000000000 [Eh]
	 Same-Spin Energy          =      -0.4479453758836723 [Eh]
	 Opposite-Spin Energy      =      -1.4658618887626989 [Eh]
	 Correlation Energy        =      -1.9138072646463713 [Eh]
	 Total Energy              =    -404.8725238230969694 [Eh]

	 ================> DF-SCS-MP2 Energies <==================
	-----------------------------------------------------------
	 SCS Same-Spin Scale       =       0.3333333333333333 [-]
	 SCS Opposite-Spin Scale   =       1.2000000000000000 [-]
	 SCS Same-Spin Energy      =      -0.1493151252945574 [Eh]
	 SCS Opposite-Spin Energy  =      -1.7590342665152385 [Eh]
	 SCS Correlation Energy    =      -1.9083493918097960 [Eh]
	 SCS Total Energy          =    -404.8670659502603826 [Eh]
	-----------------------------------------------------------

  Dipole Moment: [D]
     X:     0.5342      Y:     1.0851      Z:     0.5193     Total:     1.3162

*** Psi4 exiting successfully. Buy a developer a beer!
