                               Psi4 1.4a3.dev225

  ==> Input File <==

--------------------------------------------------------------------------
#psi4
#
memory 32 gb

molecule  {
0 1
  N        1.6268380     0.6089620    -0.4693990
  C        0.3031040     0.1485790    -0.2066970
  C       -0.7706010     1.0561020    -0.0842670
  C        0.0806060    -1.2405240    -0.1151990
  C       -2.0579110     0.5582020     0.1415980
  C       -1.2176000    -1.6989120     0.1341680
  C       -2.2850370    -0.8120180     0.2620550
  C       -0.5406870     2.5426280    -0.1993030
  C        1.2072340    -2.2197810    -0.3093320
  C        2.5023020     0.6131830     0.7097540
  H       -2.8885640     1.2560570     0.2350690
  H       -1.3937740    -2.7714120     0.2029680
  H        1.5950989     1.4576087    -0.8162569
  H       -3.2895990    -1.1861590     0.4450020
  H        0.2351210     2.8885850     0.4923550
  H       -0.2380210     2.8365620    -1.2118290
  H       -1.4595390     3.0868260     0.0338520
  H        1.9415750    -1.8136360    -1.0094830
  H        1.7264620    -2.4417900     0.6300600
  H        0.8237630    -3.1662910    -0.7010550
  H        2.0935470     1.1833990     1.5571020
  H        3.4676080     1.0418550     0.4271840
  H        2.6734620    -0.4116070     1.0419720
units angstrom
no_reorient  #important for SAPT in psi4, default
symmetry c1  #important for SAPT in psi4, default
}

set PROPERTIES_ORIGIN ["COM"]
properties('MP2/aug-cc-pvtz', properties = ['dipole'])
--------------------------------------------------------------------------

    Molecular point group: c1
  Charge       = 0
  Multiplicity = 1
  Basis Set: AUG-CC-PVTZ
    Blend: AUG-CC-PVTZ
  Basis Set: (AUG-CC-PVTZ AUX)
    Blend: AUG-CC-PVTZ-JKFIT

    Orbital Energies [Eh]
    ---------------------

    Doubly Occupied:

       1A    -15.542751     2A    -11.258042     3A    -11.249686
       4A    -11.236161     5A    -11.231973     6A    -11.228284
       7A    -11.225500     8A    -11.224326     9A    -11.223033
      10A    -11.214169    11A     -1.238454    12A     -1.133654
      13A     -1.054483    14A     -1.013407    15A     -0.945637
      16A     -0.922694    17A     -0.899332    18A     -0.801056
      19A     -0.781566    20A     -0.700877    21A     -0.661035
      22A     -0.631760    23A     -0.604968    24A     -0.593207
      25A     -0.579065    26A     -0.570709    27A     -0.565422
      28A     -0.556567    29A     -0.552728    30A     -0.534065
      31A     -0.520966    32A     -0.486048    33A     -0.478020
      34A     -0.471173    35A     -0.404420    36A     -0.317135
      37A     -0.303196

  @DF-RHF Final Energy:  -402.95586029458696

   => Energetics <=

    Nuclear Repulsion Energy =            521.9109285294222218
    One-Electron Energy =               -1579.8224379424364088
    Two-Electron Energy =                 654.9556491184273455
    Total Energy =                       -402.9558602945869552
  Basis Set: (AUG-CC-PVTZ AUX)
    Blend: AUG-CC-PVTZ-RI
    Molecular point group: c1

    Geometry (in Angstrom), charge = 0, multiplicity = 1:

       Center              X                  Y                   Z               Mass
    ------------   -----------------  -----------------  -----------------  -----------------
         N            1.665577076443     0.624711383531    -0.460203312720    14.003074004430
         C            0.341843076443     0.164328383531    -0.197501312720    12.000000000000
         C           -0.731861923557     1.071851383531    -0.075071312720    12.000000000000
         C            0.119345076443    -1.224774616469    -0.106003312720    12.000000000000
         C           -2.019171923557     0.573951383531     0.150793687280    12.000000000000
         C           -1.178860923557    -1.683162616469     0.143363687280    12.000000000000
         C           -2.246297923557    -0.796268616469     0.271250687280    12.000000000000
         C           -0.501947923557     2.558377383531    -0.190107312720    12.000000000000
         C            1.245973076443    -2.204031616469    -0.300136312720    12.000000000000
         C            2.541041076443     0.628932383531     0.718949687280    12.000000000000
         H           -2.849824923557     1.271806383531     0.244264687280     1.007825032230
         H           -1.355034923557    -2.755662616469     0.212163687280     1.007825032230
         H            1.633837976443     1.473358083531    -0.807061212720     1.007825032230
         H           -3.250859923557    -1.170409616469     0.454197687280     1.007825032230
         H            0.273860076443     2.904334383531     0.501550687280     1.007825032230
         H           -0.199281923557     2.852311383531    -1.202633312720     1.007825032230
         H           -1.420799923557     3.102575383531     0.043047687280     1.007825032230
         H            1.980314076443    -1.797886616469    -1.000287312720     1.007825032230
         H            1.765201076443    -2.426040616469     0.639255687280     1.007825032230
         H            0.862502076443    -3.150541616469    -0.691859312720     1.007825032230
         H            2.132286076443     1.199148383531     1.566297687280     1.007825032230
         H            3.506347076443     1.057604383531     0.436379687280     1.007825032230
         H            2.712201076443    -0.395857616469     1.051167687280     1.007825032230

  Basis Set: AUG-CC-PVTZ
    Blend: AUG-CC-PVTZ
  Basis Set: (AUG-CC-PVTZ AUX)
    Blend: AUG-CC-PVTZ-JKFIT
	 Reference Energy          =    -402.9558602945869552 [Eh]
	 Singles Energy            =      -0.0000000000000000 [Eh]
	 Same-Spin Energy          =      -0.4472177102354921 [Eh]
	 Opposite-Spin Energy      =      -1.4640276796631331 [Eh]
	 Correlation Energy        =      -1.9112453898986252 [Eh]
	 Total Energy              =    -404.8671056844855798 [Eh]

	 ================> DF-SCS-MP2 Energies <==================
	-----------------------------------------------------------
	 SCS Same-Spin Scale       =       0.3333333333333333 [-]
	 SCS Opposite-Spin Scale   =       1.2000000000000000 [-]
	 SCS Same-Spin Energy      =      -0.1490725700784974 [Eh]
	 SCS Opposite-Spin Energy  =      -1.7568332155957596 [Eh]
	 SCS Correlation Energy    =      -1.9059057856742569 [Eh]
	 SCS Total Energy          =    -404.8617660802611908 [Eh]
	-----------------------------------------------------------

  Dipole Moment: [D]
     X:     0.5396      Y:     1.0386      Z:     0.5380     Total:     1.2881

*** Psi4 exiting successfully. Buy a developer a beer!
