                               Psi4 1.4a3.dev225

  ==> Input File <==

--------------------------------------------------------------------------
#psi4
#
memory 32 gb

molecule  {
0 1
  N        1.6268380     0.6089620    -0.4693990
  C        0.3031040     0.1485790    -0.2066970
  C       -0.7706010     1.0561020    -0.0842670
  C        0.0806060    -1.2405240    -0.1151990
  C       -2.0579110     0.5582020     0.1415980
  C       -1.2176000    -1.6989120     0.1341680
  C       -2.3616280    -0.7483814     0.2712312
  C       -0.5406870     2.5426280    -0.1993030
  C        1.2072340    -2.2197810    -0.3093320
  C        2.5023020     0.6131830     0.7097540
  H       -2.8885640     1.2560570     0.2350690
  H       -1.3937740    -2.7714120     0.2029680
  H        1.5916390     1.5501200    -0.8540680
  H       -3.2895990    -1.1861590     0.4450020
  H        0.2351210     2.8885850     0.4923550
  H       -0.2380210     2.8365620    -1.2118290
  H       -1.4595390     3.0868260     0.0338520
  H        1.9415750    -1.8136360    -1.0094830
  H        1.7264620    -2.4417900     0.6300600
  H        0.8237630    -3.1662910    -0.7010550
  H        2.0935470     1.1833990     1.5571020
  H        3.4676080     1.0418550     0.4271840
  H        2.6734620    -0.4116070     1.0419720
units angstrom
no_reorient  #important for SAPT in psi4, default
symmetry c1  #important for SAPT in psi4, default
}

set PROPERTIES_ORIGIN ["COM"]
properties('MP2/aug-cc-pvtz', properties = ['dipole'])
--------------------------------------------------------------------------

    Molecular point group: c1
  Charge       = 0
  Multiplicity = 1
  Basis Set: AUG-CC-PVTZ
    Blend: AUG-CC-PVTZ
  Basis Set: (AUG-CC-PVTZ AUX)
    Blend: AUG-CC-PVTZ-JKFIT

    Orbital Energies [Eh]
    ---------------------

    Doubly Occupied:

       1A    -15.554598     2A    -11.260144     3A    -11.250250
       4A    -11.234860     5A    -11.232910     6A    -11.231681
       7A    -11.228183     8A    -11.225197     9A    -11.221293
      10A    -11.214220    11A     -1.227047    12A     -1.127588
      13A     -1.053520    14A     -1.012893    15A     -0.945516
      16A     -0.916546    17A     -0.894326    18A     -0.800847
      19A     -0.778456    20A     -0.691761    21A     -0.656627
      22A     -0.642306    23A     -0.604240    24A     -0.590482
      25A     -0.577785    26A     -0.568175    27A     -0.566530
      28A     -0.557052    29A     -0.547720    30A     -0.534612
      31A     -0.520746    32A     -0.486571    33A     -0.473463
      34A     -0.466190    35A     -0.401862    36A     -0.319992
      37A     -0.298485

  @DF-RHF Final Energy:  -402.94988407072708

   => Energetics <=

    Nuclear Repulsion Energy =            520.3359386981874195
    One-Electron Energy =               -1576.7422988496628022
    Two-Electron Energy =                 653.4564760807483026
    Total Energy =                       -402.9498840707270801
  Basis Set: (AUG-CC-PVTZ AUX)
    Blend: AUG-CC-PVTZ-RI
    Molecular point group: c1

    Geometry (in Angstrom), charge = 0, multiplicity = 1:

       Center              X                  Y                   Z               Mass
    ------------   -----------------  -----------------  -----------------  -----------------
         N            1.672405693766     0.618369089196    -0.460736287323    14.003074004430
         C            0.348671693766     0.157986089196    -0.198034287323    12.000000000000
         C           -0.725033306234     1.065509089196    -0.075604287323    12.000000000000
         C            0.126173693766    -1.231116910804    -0.106536287323    12.000000000000
         C           -2.012343306234     0.567609089196     0.150260712677    12.000000000000
         C           -1.172032306234    -1.689504910804     0.142830712677    12.000000000000
         C           -2.316060306234    -0.738974310804     0.279893912677    12.000000000000
         C           -0.495119306234     2.552035089196    -0.190640287323    12.000000000000
         C            1.252801693766    -2.210373910804    -0.300669287323    12.000000000000
         C            2.547869693766     0.622590089196     0.718416712677    12.000000000000
         H           -2.842996306234     1.265464089196     0.243731712677     1.007825032230
         H           -1.348206306234    -2.762004910804     0.211630712677     1.007825032230
         H            1.637206693766     1.559527089196    -0.845405287323     1.007825032230
         H           -3.244031306234    -1.176751910804     0.453664712677     1.007825032230
         H            0.280688693766     2.897992089196     0.501017712677     1.007825032230
         H           -0.192453306234     2.845969089196    -1.203166287323     1.007825032230
         H           -1.413971306234     3.096233089196     0.042514712677     1.007825032230
         H            1.987142693766    -1.804228910804    -1.000820287323     1.007825032230
         H            1.772029693766    -2.432382910804     0.638722712677     1.007825032230
         H            0.869330693766    -3.156883910804    -0.692392287323     1.007825032230
         H            2.139114693766     1.192806089196     1.565764712677     1.007825032230
         H            3.513175693766     1.051262089196     0.435846712677     1.007825032230
         H            2.719029693766    -0.402199910804     1.050634712677     1.007825032230

  Basis Set: AUG-CC-PVTZ
    Blend: AUG-CC-PVTZ
  Basis Set: (AUG-CC-PVTZ AUX)
    Blend: AUG-CC-PVTZ-JKFIT
	 Reference Energy          =    -402.9498840707270801 [Eh]
	 Singles Energy            =      -0.0000000000000000 [Eh]
	 Same-Spin Energy          =      -0.4478693192688649 [Eh]
	 Opposite-Spin Energy      =      -1.4668628873886271 [Eh]
	 Correlation Energy        =      -1.9147322066574919 [Eh]
	 Total Energy              =    -404.8646162773845845 [Eh]

	 ================> DF-SCS-MP2 Energies <==================
	-----------------------------------------------------------
	 SCS Same-Spin Scale       =       0.3333333333333333 [-]
	 SCS Opposite-Spin Scale   =       1.2000000000000000 [-]
	 SCS Same-Spin Energy      =      -0.1492897730896216 [Eh]
	 SCS Opposite-Spin Energy  =      -1.7602354648663525 [Eh]
	 SCS Correlation Energy    =      -1.9095252379559742 [Eh]
	 SCS Total Energy          =    -404.8594093086830412 [Eh]
	-----------------------------------------------------------

  Dipole Moment: [D]
     X:     0.5532      Y:     1.0532      Z:     0.5217     Total:     1.2991

*** Psi4 exiting successfully. Buy a developer a beer!
