                               Psi4 1.4a3.dev225

  ==> Input File <==

--------------------------------------------------------------------------
#psi4
#
memory 32 gb

molecule  {
0 1
  N        1.6268380     0.6089620    -0.4693990
  C        0.3031040     0.1485790    -0.2066970
  C       -0.6945154     0.9917925    -0.0929427
  C        0.0806060    -1.2405240    -0.1151990
  C       -2.0579110     0.5582020     0.1415980
  C       -1.2176000    -1.6989120     0.1341680
  C       -2.2850370    -0.8120180     0.2620550
  C       -0.5406870     2.5426280    -0.1993030
  C        1.2072340    -2.2197810    -0.3093320
  C        2.5023020     0.6131830     0.7097540
  H       -2.8885640     1.2560570     0.2350690
  H       -1.3937740    -2.7714120     0.2029680
  H        1.5916390     1.5501200    -0.8540680
  H       -3.2895990    -1.1861590     0.4450020
  H        0.2351210     2.8885850     0.4923550
  H       -0.2380210     2.8365620    -1.2118290
  H       -1.4595390     3.0868260     0.0338520
  H        1.9415750    -1.8136360    -1.0094830
  H        1.7264620    -2.4417900     0.6300600
  H        0.8237630    -3.1662910    -0.7010550
  H        2.0935470     1.1833990     1.5571020
  H        3.4676080     1.0418550     0.4271840
  H        2.6734620    -0.4116070     1.0419720
units angstrom
no_reorient  #important for SAPT in psi4, default
symmetry c1  #important for SAPT in psi4, default
}

set PROPERTIES_ORIGIN ["COM"]
properties('MP2/aug-cc-pvtz', properties = ['dipole'])
--------------------------------------------------------------------------

    Molecular point group: c1
  Charge       = 0
  Multiplicity = 1
  Basis Set: AUG-CC-PVTZ
    Blend: AUG-CC-PVTZ
  Basis Set: (AUG-CC-PVTZ AUX)
    Blend: AUG-CC-PVTZ-JKFIT

    Orbital Energies [Eh]
    ---------------------

    Doubly Occupied:

       1A    -15.551616     2A    -11.248908     3A    -11.246573
       4A    -11.234420     5A    -11.231716     6A    -11.229628
       7A    -11.229495     8A    -11.225186     9A    -11.222056
      10A    -11.214671    11A     -1.230456    12A     -1.131672
      13A     -1.048074    14A     -1.015640    15A     -0.948213
      16A     -0.916976    17A     -0.895293    18A     -0.795005
      19A     -0.787341    20A     -0.690226    21A     -0.663371
      22A     -0.626743    23A     -0.602628    24A     -0.591134
      25A     -0.583201    26A     -0.569283    27A     -0.563211
      28A     -0.553864    29A     -0.547355    30A     -0.531055
      31A     -0.521148    32A     -0.491883    33A     -0.474589
      34A     -0.460992    35A     -0.403533    36A     -0.319524
      37A     -0.307096

  @DF-RHF Final Energy:  -402.95044091845466

   => Energetics <=

    Nuclear Repulsion Energy =            522.4032764516374527
    One-Electron Energy =               -1580.8998830418897796
    Two-Electron Energy =                 655.5461656717975529
    Total Energy =                       -402.9504409184546603
  Basis Set: (AUG-CC-PVTZ AUX)
    Blend: AUG-CC-PVTZ-RI
    Molecular point group: c1

    Geometry (in Angstrom), charge = 0, multiplicity = 1:

       Center              X                  Y                   Z               Mass
    ------------   -----------------  -----------------  -----------------  -----------------
         N            1.658844967517     0.629733253953    -0.459150682660    14.003074004430
         C            0.335110967517     0.169350253953    -0.196448682660    12.000000000000
         C           -0.662508432483     1.012563753953    -0.082694382660    12.000000000000
         C            0.112612967517    -1.219752746047    -0.104950682660    12.000000000000
         C           -2.025904032483     0.578973253953     0.151846317340    12.000000000000
         C           -1.185593032483    -1.678140746047     0.144416317340    12.000000000000
         C           -2.253030032483    -0.791246746047     0.272303317340    12.000000000000
         C           -0.508680032483     2.563399253953    -0.189054682660    12.000000000000
         C            1.239240967517    -2.199009746047    -0.299083682660    12.000000000000
         C            2.534308967517     0.633954253953     0.720002317340    12.000000000000
         H           -2.856557032483     1.276828253953     0.245317317340     1.007825032230
         H           -1.361767032483    -2.750640746047     0.213216317340     1.007825032230
         H            1.623645967517     1.570891253953    -0.843819682660     1.007825032230
         H           -3.257592032483    -1.165387746047     0.455250317340     1.007825032230
         H            0.267127967517     2.909356253953     0.502603317340     1.007825032230
         H           -0.206014032483     2.857333253953    -1.201580682660     1.007825032230
         H           -1.427532032483     3.107597253953     0.044100317340     1.007825032230
         H            1.973581967517    -1.792864746047    -0.999234682660     1.007825032230
         H            1.758468967517    -2.421018746047     0.640308317340     1.007825032230
         H            0.855769967517    -3.145519746047    -0.690806682660     1.007825032230
         H            2.125553967517     1.204170253953     1.567350317340     1.007825032230
         H            3.499614967517     1.062626253953     0.437432317340     1.007825032230
         H            2.705468967517    -0.390835746047     1.052220317340     1.007825032230

  Basis Set: AUG-CC-PVTZ
    Blend: AUG-CC-PVTZ
  Basis Set: (AUG-CC-PVTZ AUX)
    Blend: AUG-CC-PVTZ-JKFIT
	 Reference Energy          =    -402.9504409184546603 [Eh]
	 Singles Energy            =      -0.0000000000000000 [Eh]
	 Same-Spin Energy          =      -0.4472332886530996 [Eh]
	 Opposite-Spin Energy      =      -1.4656436851106163 [Eh]
	 Correlation Energy        =      -1.9128769737637159 [Eh]
	 Total Energy              =    -404.8633178922183902 [Eh]

	 ================> DF-SCS-MP2 Energies <==================
	-----------------------------------------------------------
	 SCS Same-Spin Scale       =       0.3333333333333333 [-]
	 SCS Opposite-Spin Scale   =       1.2000000000000000 [-]
	 SCS Same-Spin Energy      =      -0.1490777628843665 [Eh]
	 SCS Opposite-Spin Energy  =      -1.7587724221327394 [Eh]
	 SCS Correlation Energy    =      -1.9078501850171059 [Eh]
	 SCS Total Energy          =    -404.8582911034717426 [Eh]
	-----------------------------------------------------------

  Dipole Moment: [D]
     X:     0.4396      Y:     0.9936      Z:     0.5398     Total:     1.2132

*** Psi4 exiting successfully. Buy a developer a beer!
