                               Psi4 1.4a3.dev225

  ==> Input File <==

--------------------------------------------------------------------------
#psi4
#
memory 32 gb

molecule  {
0 1
  N        1.6268380     0.6089620    -0.4693990
  C        0.3031040     0.1485790    -0.2066970
  C       -0.7706010     1.0561020    -0.0842670
  C        0.0806060    -1.2405240    -0.1151990
  C       -2.0579110     0.5582020     0.1415980
  C       -1.2176000    -1.6989120     0.1341680
  C       -2.2850370    -0.8120180     0.2620550
  C       -0.5406870     2.5426280    -0.1993030
  C        1.2072340    -2.2197810    -0.3093320
  C        2.5023020     0.6131830     0.7097540
  H       -2.8885640     1.2560570     0.2350690
  H       -1.3937740    -2.7714120     0.2029680
  H        1.5916390     1.5501200    -0.8540680
  H       -3.2895990    -1.1861590     0.4450020
  H        0.2351210     2.8885850     0.4923550
  H       -0.2325025     2.8419213    -1.2302904
  H       -1.4595390     3.0868260     0.0338520
  H        1.9415750    -1.8136360    -1.0094830
  H        1.7264620    -2.4417900     0.6300600
  H        0.8237630    -3.1662910    -0.7010550
  H        2.0935470     1.1833990     1.5571020
  H        3.4676080     1.0418550     0.4271840
  H        2.6734620    -0.4116070     1.0419720
units angstrom
no_reorient  #important for SAPT in psi4, default
symmetry c1  #important for SAPT in psi4, default
}

set PROPERTIES_ORIGIN ["COM"]
properties('MP2/aug-cc-pvtz', properties = ['dipole'])
--------------------------------------------------------------------------

    Molecular point group: c1
  Charge       = 0
  Multiplicity = 1
  Basis Set: AUG-CC-PVTZ
    Blend: AUG-CC-PVTZ
  Basis Set: (AUG-CC-PVTZ AUX)
    Blend: AUG-CC-PVTZ-JKFIT

    Orbital Energies [Eh]
    ---------------------

    Doubly Occupied:

       1A    -15.553759     2A    -11.258320     3A    -11.249655
       4A    -11.236065     5A    -11.232095     6A    -11.230808
       7A    -11.225513     8A    -11.224326     9A    -11.223113
      10A    -11.214163    11A     -1.226549    12A     -1.130899
      13A     -1.054178    14A     -1.012266    15A     -0.944830
      16A     -0.921599    17A     -0.892024    18A     -0.794400
      19A     -0.781270    20A     -0.692488    21A     -0.660813
      22A     -0.629545    23A     -0.603089    24A     -0.590861
      25A     -0.578849    26A     -0.568889    27A     -0.564030
      28A     -0.555876    29A     -0.552208    30A     -0.530729
      31A     -0.521015    32A     -0.485420    33A     -0.476966
      34A     -0.470731    35A     -0.402480    36A     -0.317103
      37A     -0.302774

  @DF-RHF Final Energy:  -402.96124531310090

   => Energetics <=

    Nuclear Repulsion Energy =            521.2257206361606450
    One-Electron Energy =               -1578.5545296326513380
    Two-Electron Energy =                 654.3675636833899034
    Total Energy =                       -402.9612453131009033
  Basis Set: (AUG-CC-PVTZ AUX)
    Blend: AUG-CC-PVTZ-RI
    Molecular point group: c1

    Geometry (in Angstrom), charge = 0, multiplicity = 1:

       Center              X                  Y                   Z               Mass
    ------------   -----------------  -----------------  -----------------  -----------------
         N            1.665561720152     0.623981309980    -0.459783543516    14.003074004430
         C            0.341827720152     0.163598309980    -0.197081543516    12.000000000000
         C           -0.731877279848     1.071121309980    -0.074651543516    12.000000000000
         C            0.119329720152    -1.225504690020    -0.105583543516    12.000000000000
         C           -2.019187279848     0.573221309980     0.151213456484    12.000000000000
         C           -1.178876279848    -1.683892690020     0.143783456484    12.000000000000
         C           -2.246313279848    -0.796998690020     0.271670456484    12.000000000000
         C           -0.501963279848     2.557647309980    -0.189687543516    12.000000000000
         C            1.245957720152    -2.204761690020    -0.299716543516    12.000000000000
         C            2.541025720152     0.628202309980     0.719369456484    12.000000000000
         H           -2.849840279848     1.271076309980     0.244684456484     1.007825032230
         H           -1.355050279848    -2.756392690020     0.212583456484     1.007825032230
         H            1.630362720152     1.565139309980    -0.844452543516     1.007825032230
         H           -3.250875279848    -1.171139690020     0.454617456484     1.007825032230
         H            0.273844720152     2.903604309980     0.501970456484     1.007825032230
         H           -0.193778779848     2.856940609980    -1.220674943516     1.007825032230
         H           -1.420815279848     3.101845309980     0.043467456484     1.007825032230
         H            1.980298720152    -1.798616690020    -0.999867543516     1.007825032230
         H            1.765185720152    -2.426770690020     0.639675456484     1.007825032230
         H            0.862486720152    -3.151271690020    -0.691439543516     1.007825032230
         H            2.132270720152     1.198418309980     1.566717456484     1.007825032230
         H            3.506331720152     1.056874309980     0.436799456484     1.007825032230
         H            2.712185720152    -0.396587690020     1.051587456484     1.007825032230

  Basis Set: AUG-CC-PVTZ
    Blend: AUG-CC-PVTZ
  Basis Set: (AUG-CC-PVTZ AUX)
    Blend: AUG-CC-PVTZ-JKFIT
	 Reference Energy          =    -402.9612453131009033 [Eh]
	 Singles Energy            =      -0.0000000000000000 [Eh]
	 Same-Spin Energy          =      -0.4479968975657650 [Eh]
	 Opposite-Spin Energy      =      -1.4660468868305689 [Eh]
	 Correlation Energy        =      -1.9140437843963340 [Eh]
	 Total Energy              =    -404.8752890974972161 [Eh]

	 ================> DF-SCS-MP2 Energies <==================
	-----------------------------------------------------------
	 SCS Same-Spin Scale       =       0.3333333333333333 [-]
	 SCS Opposite-Spin Scale   =       1.2000000000000000 [-]
	 SCS Same-Spin Energy      =      -0.1493322991885883 [Eh]
	 SCS Opposite-Spin Energy  =      -1.7592562641966827 [Eh]
	 SCS Correlation Energy    =      -1.9085885633852711 [Eh]
	 SCS Total Energy          =    -404.8698338764861546 [Eh]
	-----------------------------------------------------------

  Dipole Moment: [D]
     X:     0.5348      Y:     1.0636      Z:     0.5291     Total:     1.3027

*** Psi4 exiting successfully. Buy a developer a beer!
