                               Psi4 1.4a3.dev225

  ==> Input File <==

--------------------------------------------------------------------------
#psi4
#
memory 32 gb

molecule  {
0 1
  N        1.6268380     0.6089620    -0.4693990
  C        0.3031040     0.1485790    -0.2066970
  C       -0.7706010     1.0561020    -0.0842670
  C        0.0806060    -1.2405240    -0.1151990
  C       -2.0579110     0.5582020     0.1415980
  C       -1.2176000    -1.6989120     0.1341680
  C       -2.2850370    -0.8120180     0.2620550
  C       -0.5406870     2.5426280    -0.1993030
  C        1.2072340    -2.2197810    -0.3093320
  C        2.5023020     0.6131830     0.7097540
  H       -2.8885640     1.2560570     0.2350690
  H       -1.3937740    -2.7714120     0.2029680
  H        1.5916390     1.5501200    -0.8540680
  H       -3.2895990    -1.1861590     0.4450020
  H        0.2351210     2.8885850     0.4923550
  H       -0.2656136     2.8097655    -1.1195219
  H       -1.4595390     3.0868260     0.0338520
  H        1.9415750    -1.8136360    -1.0094830
  H        1.7264620    -2.4417900     0.6300600
  H        0.8237630    -3.1662910    -0.7010550
  H        2.0935470     1.1833990     1.5571020
  H        3.4676080     1.0418550     0.4271840
  H        2.6734620    -0.4116070     1.0419720
units angstrom
no_reorient  #important for SAPT in psi4, default
symmetry c1  #important for SAPT in psi4, default
}

set PROPERTIES_ORIGIN ["COM"]
properties('MP2/aug-cc-pvtz', properties = ['dipole'])
--------------------------------------------------------------------------

    Molecular point group: c1
  Charge       = 0
  Multiplicity = 1
  Basis Set: AUG-CC-PVTZ
    Blend: AUG-CC-PVTZ
  Basis Set: (AUG-CC-PVTZ AUX)
    Blend: AUG-CC-PVTZ-JKFIT

    Orbital Energies [Eh]
    ---------------------

    Doubly Occupied:

       1A    -15.554015     2A    -11.257854     3A    -11.249598
       4A    -11.235162     5A    -11.231805     6A    -11.224888
       7A    -11.223787     8A    -11.222621     9A    -11.215888
      10A    -11.213987    11A     -1.226629    12A     -1.130671
      13A     -1.056202    14A     -1.013558    15A     -0.949303
      16A     -0.924974    17A     -0.892303    18A     -0.796273
      19A     -0.781376    20A     -0.693222    21A     -0.660412
      22A     -0.629759    23A     -0.608238    24A     -0.595345
      25A     -0.579211    26A     -0.572198    27A     -0.568653
      28A     -0.557934    29A     -0.551871    30A     -0.530678
      31A     -0.521021    32A     -0.484992    33A     -0.477383
      34A     -0.471161    35A     -0.402472    36A     -0.317093
      37A     -0.302653

  @DF-RHF Final Energy:  -402.95588733416406

   => Energetics <=

    Nuclear Repulsion Energy =            521.7855435563972151
    One-Electron Energy =               -1579.6324789813913867
    Two-Electron Energy =                 654.8910480908300542
    Total Energy =                       -402.9558873341641174
  Basis Set: (AUG-CC-PVTZ AUX)
    Blend: AUG-CC-PVTZ-RI
    Molecular point group: c1

    Geometry (in Angstrom), charge = 0, multiplicity = 1:

       Center              X                  Y                   Z               Mass
    ------------   -----------------  -----------------  -----------------  -----------------
         N            1.665808715044     0.624221178736    -0.460609829980    14.003074004430
         C            0.342074715044     0.163838178736    -0.197907829980    12.000000000000
         C           -0.731630284956     1.071361178736    -0.075477829980    12.000000000000
         C            0.119576715044    -1.225264821264    -0.106409829980    12.000000000000
         C           -2.018940284956     0.573461178736     0.150387170020    12.000000000000
         C           -1.178629284956    -1.683652821264     0.142957170020    12.000000000000
         C           -2.246066284956    -0.796758821264     0.270844170020    12.000000000000
         C           -0.501716284956     2.557887178736    -0.190513829980    12.000000000000
         C            1.246204715044    -2.204521821264    -0.300542829980    12.000000000000
         C            2.541272715044     0.628442178736     0.718543170020    12.000000000000
         H           -2.849593284956     1.271316178736     0.243858170020     1.007825032230
         H           -1.354803284956    -2.756152821264     0.211757170020     1.007825032230
         H            1.630609715044     1.565379178736    -0.845278829980     1.007825032230
         H           -3.250628284956    -1.170899821264     0.453791170020     1.007825032230
         H            0.274091715044     2.903844178736     0.501144170020     1.007825032230
         H           -0.226642884956     2.825024678736    -1.110732729980     1.007825032230
         H           -1.420568284956     3.102085178736     0.042641170020     1.007825032230
         H            1.980545715044    -1.798376821264    -1.000693829980     1.007825032230
         H            1.765432715044    -2.426530821264     0.638849170020     1.007825032230
         H            0.862733715044    -3.151031821264    -0.692265829980     1.007825032230
         H            2.132517715044     1.198658178736     1.565891170020     1.007825032230
         H            3.506578715044     1.057114178736     0.435973170020     1.007825032230
         H            2.712432715044    -0.396347821264     1.050761170020     1.007825032230

  Basis Set: AUG-CC-PVTZ
    Blend: AUG-CC-PVTZ
  Basis Set: (AUG-CC-PVTZ AUX)
    Blend: AUG-CC-PVTZ-JKFIT
	 Reference Energy          =    -402.9558873341640606 [Eh]
	 Singles Energy            =      -0.0000000000000000 [Eh]
	 Same-Spin Energy          =      -0.4479846221154236 [Eh]
	 Opposite-Spin Energy      =      -1.4654361109031753 [Eh]
	 Correlation Energy        =      -1.9134207330185988 [Eh]
	 Total Energy              =    -404.8693080671826579 [Eh]

	 ================> DF-SCS-MP2 Energies <==================
	-----------------------------------------------------------
	 SCS Same-Spin Scale       =       0.3333333333333333 [-]
	 SCS Opposite-Spin Scale   =       1.2000000000000000 [-]
	 SCS Same-Spin Energy      =      -0.1493282073718079 [Eh]
	 SCS Opposite-Spin Energy  =      -1.7585233330838104 [Eh]
	 SCS Correlation Energy    =      -1.9078515404556182 [Eh]
	 SCS Total Energy          =    -404.8637388746196848 [Eh]
	-----------------------------------------------------------

  Dipole Moment: [D]
     X:     0.5569      Y:     1.1080      Z:     0.4863     Total:     1.3320

*** Psi4 exiting successfully. Buy a developer a beer!
