                               Psi4 1.4a3.dev225

  ==> Input File <==

--------------------------------------------------------------------------
#psi4
#
memory 32 gb

molecule  {
0 1
  N        1.6268380     0.6089620    -0.4693990
  C        0.3031040     0.1485790    -0.2066970
  C       -0.7858181     1.0689639    -0.0825319
  C        0.0806060    -1.2405240    -0.1151990
  C       -2.0579110     0.5582020     0.1415980
  C       -1.2176000    -1.6989120     0.1341680
  C       -2.2850370    -0.8120180     0.2620550
  C       -0.5406870     2.5426280    -0.1993030
  C        1.2072340    -2.2197810    -0.3093320
  C        2.5023020     0.6131830     0.7097540
  H       -2.8885640     1.2560570     0.2350690
  H       -1.3937740    -2.7714120     0.2029680
  H        1.5916390     1.5501200    -0.8540680
  H       -3.2895990    -1.1861590     0.4450020
  H        0.2351210     2.8885850     0.4923550
  H       -0.2380210     2.8365620    -1.2118290
  H       -1.4595390     3.0868260     0.0338520
  H        1.9415750    -1.8136360    -1.0094830
  H        1.7264620    -2.4417900     0.6300600
  H        0.8237630    -3.1662910    -0.7010550
  H        2.0935470     1.1833990     1.5571020
  H        3.4676080     1.0418550     0.4271840
  H        2.6734620    -0.4116070     1.0419720
units angstrom
no_reorient  #important for SAPT in psi4, default
symmetry c1  #important for SAPT in psi4, default
}

set PROPERTIES_ORIGIN ["COM"]
properties('MP2/aug-cc-pvtz', properties = ['dipole'])
--------------------------------------------------------------------------

    Molecular point group: c1
  Charge       = 0
  Multiplicity = 1
  Basis Set: AUG-CC-PVTZ
    Blend: AUG-CC-PVTZ
  Basis Set: (AUG-CC-PVTZ AUX)
    Blend: AUG-CC-PVTZ-JKFIT

    Orbital Energies [Eh]
    ---------------------

    Doubly Occupied:

       1A    -15.554208     2A    -11.260154     3A    -11.249780
       4A    -11.236513     5A    -11.231538     6A    -11.228195
       7A    -11.224864     8A    -11.223884     9A    -11.223068
      10A    -11.214006    11A     -1.225950    12A     -1.130811
      13A     -1.055858    14A     -1.012140    15A     -0.944714
      16A     -0.923274    17A     -0.891393    18A     -0.795872
      19A     -0.778615    20A     -0.693024    21A     -0.660131
      22A     -0.630141    23A     -0.603811    24A     -0.591784
      25A     -0.578337    26A     -0.568779    27A     -0.565592
      28A     -0.557588    29A     -0.552843    30A     -0.530778
      31A     -0.521059    32A     -0.483866    33A     -0.479111
      34A     -0.470141    35A     -0.402078    36A     -0.318230
      37A     -0.300679

  @DF-RHF Final Energy:  -402.96094995742203

   => Energetics <=

    Nuclear Repulsion Energy =            521.1139043234480823
    One-Electron Energy =               -1578.3240880908142572
    Two-Electron Energy =                 654.2492338099442577
    Total Energy =                       -402.9609499574220308
  Basis Set: (AUG-CC-PVTZ AUX)
    Blend: AUG-CC-PVTZ-RI
    Molecular point group: c1

    Geometry (in Angstrom), charge = 0, multiplicity = 1:

       Center              X                  Y                   Z               Mass
    ------------   -----------------  -----------------  -----------------  -----------------
         N            1.666954467732     0.622878894937    -0.460075369278    14.003074004430
         C            0.343220467732     0.162495894937    -0.197373369278    12.000000000000
         C           -0.745701632268     1.082880794937    -0.073208269278    12.000000000000
         C            0.120722467732    -1.226607105063    -0.105875369278    12.000000000000
         C           -2.017794532268     0.572118894937     0.150921630722    12.000000000000
         C           -1.177483532268    -1.684995105063     0.143491630722    12.000000000000
         C           -2.244920532268    -0.798101105063     0.271378630722    12.000000000000
         C           -0.500570532268     2.556544894937    -0.189979369278    12.000000000000
         C            1.247350467732    -2.205864105063    -0.300008369278    12.000000000000
         C            2.542418467732     0.627099894937     0.719077630722    12.000000000000
         H           -2.848447532268     1.269973894937     0.244392630722     1.007825032230
         H           -1.353657532268    -2.757495105063     0.212291630722     1.007825032230
         H            1.631755467732     1.564036894937    -0.844744369278     1.007825032230
         H           -3.249482532268    -1.172242105063     0.454325630722     1.007825032230
         H            0.275237467732     2.902501894937     0.501678630722     1.007825032230
         H           -0.197904532268     2.850478894937    -1.202505369278     1.007825032230
         H           -1.419422532268     3.100742894937     0.043175630722     1.007825032230
         H            1.981691467732    -1.799719105063    -1.000159369278     1.007825032230
         H            1.766578467732    -2.427873105063     0.639383630722     1.007825032230
         H            0.863879467732    -3.152374105063    -0.691731369278     1.007825032230
         H            2.133663467732     1.197315894937     1.566425630722     1.007825032230
         H            3.507724467732     1.055771894937     0.436507630722     1.007825032230
         H            2.713578467732    -0.397690105063     1.051295630722     1.007825032230

  Basis Set: AUG-CC-PVTZ
    Blend: AUG-CC-PVTZ
  Basis Set: (AUG-CC-PVTZ AUX)
    Blend: AUG-CC-PVTZ-JKFIT
	 Reference Energy          =    -402.9609499574220308 [Eh]
	 Singles Energy            =      -0.0000000000000000 [Eh]
	 Same-Spin Energy          =      -0.4481064557892618 [Eh]
	 Opposite-Spin Energy      =      -1.4660948175137443 [Eh]
	 Correlation Energy        =      -1.9142012733030060 [Eh]
	 Total Energy              =    -404.8751512307250096 [Eh]

	 ================> DF-SCS-MP2 Energies <==================
	-----------------------------------------------------------
	 SCS Same-Spin Scale       =       0.3333333333333333 [-]
	 SCS Opposite-Spin Scale   =       1.2000000000000000 [-]
	 SCS Same-Spin Energy      =      -0.1493688185964206 [Eh]
	 SCS Opposite-Spin Energy  =      -1.7593137810164932 [Eh]
	 SCS Correlation Energy    =      -1.9086825996129138 [Eh]
	 SCS Total Energy          =    -404.8696325570349472 [Eh]
	-----------------------------------------------------------

  Dipole Moment: [D]
     X:     0.5571      Y:     1.0884      Z:     0.5168     Total:     1.3274

*** Psi4 exiting successfully. Buy a developer a beer!
