                               Psi4 1.4a3.dev225

  ==> Input File <==

--------------------------------------------------------------------------
#psi4
#
memory 32 gb

molecule  {
0 1
  N        1.6268380     0.6089620    -0.4693990
  C        0.3031040     0.1485790    -0.2066970
  C       -0.7706010     1.0561020    -0.0842670
  C        0.0806060    -1.2405240    -0.1151990
  C       -2.0579110     0.5582020     0.1415980
  C       -1.2176000    -1.6989120     0.1341680
  C       -2.3000787    -0.8308921     0.2650846
  C       -0.5406870     2.5426280    -0.1993030
  C        1.2072340    -2.2197810    -0.3093320
  C        2.5023020     0.6131830     0.7097540
  H       -2.8885640     1.2560570     0.2350690
  H       -1.3937740    -2.7714120     0.2029680
  H        1.5916390     1.5501200    -0.8540680
  H       -3.2895990    -1.1861590     0.4450020
  H        0.2351210     2.8885850     0.4923550
  H       -0.2380210     2.8365620    -1.2118290
  H       -1.4595390     3.0868260     0.0338520
  H        1.9415750    -1.8136360    -1.0094830
  H        1.7264620    -2.4417900     0.6300600
  H        0.8237630    -3.1662910    -0.7010550
  H        2.0935470     1.1833990     1.5571020
  H        3.4676080     1.0418550     0.4271840
  H        2.6734620    -0.4116070     1.0419720
units angstrom
no_reorient  #important for SAPT in psi4, default
symmetry c1  #important for SAPT in psi4, default
}

set PROPERTIES_ORIGIN ["COM"]
properties('MP2/aug-cc-pvtz', properties = ['dipole'])
--------------------------------------------------------------------------

    Molecular point group: c1
  Charge       = 0
  Multiplicity = 1
  Basis Set: AUG-CC-PVTZ
    Blend: AUG-CC-PVTZ
  Basis Set: (AUG-CC-PVTZ AUX)
    Blend: AUG-CC-PVTZ-JKFIT

    Orbital Energies [Eh]
    ---------------------

    Doubly Occupied:

       1A    -15.554025     2A    -11.258764     3A    -11.249796
       4A    -11.236019     5A    -11.231930     6A    -11.228464
       7A    -11.227466     8A    -11.224998     9A    -11.223501
      10A    -11.214167    11A     -1.226663    12A     -1.129004
      13A     -1.054162    14A     -1.011497    15A     -0.945459
      16A     -0.921090    17A     -0.892289    18A     -0.795776
      19A     -0.781698    20A     -0.691776    21A     -0.660620
      22A     -0.631456    23A     -0.604734    24A     -0.591092
      25A     -0.578471    26A     -0.568753    27A     -0.565524
      28A     -0.556555    29A     -0.551645    30A     -0.531931
      31A     -0.520066    32A     -0.487677    33A     -0.475864
      34A     -0.469275    35A     -0.402250    36A     -0.317126
      37A     -0.301774

  @DF-RHF Final Energy:  -402.96077262477075

   => Energetics <=

    Nuclear Repulsion Energy =            520.8909232019531146
    One-Electron Energy =               -1577.8766784334361546
    Two-Electron Energy =                 654.0249826067122285
    Total Energy =                       -402.9607726247706978
  Basis Set: (AUG-CC-PVTZ AUX)
    Blend: AUG-CC-PVTZ-RI
    Molecular point group: c1

    Geometry (in Angstrom), charge = 0, multiplicity = 1:

       Center              X                  Y                   Z               Mass
    ------------   -----------------  -----------------  -----------------  -----------------
         N            1.666938888715     0.625697684511    -0.460190346688    14.003074004430
         C            0.343204888715     0.165314684511    -0.197488346688    12.000000000000
         C           -0.730500111285     1.072837684511    -0.075058346688    12.000000000000
         C            0.120706888715    -1.223788315489    -0.105990346688    12.000000000000
         C           -2.017810111285     0.574937684511     0.150806653312    12.000000000000
         C           -1.177499111285    -1.682176315489     0.143376653312    12.000000000000
         C           -2.259977811285    -0.814156415489     0.274293253312    12.000000000000
         C           -0.500586111285     2.559363684511    -0.190094346688    12.000000000000
         C            1.247334888715    -2.203045315489    -0.300123346688    12.000000000000
         C            2.542402888715     0.629918684511     0.718962653312    12.000000000000
         H           -2.848463111285     1.272792684511     0.244277653312     1.007825032230
         H           -1.353673111285    -2.754676315489     0.212176653312     1.007825032230
         H            1.631739888715     1.566855684511    -0.844859346688     1.007825032230
         H           -3.249498111285    -1.169423315489     0.454210653312     1.007825032230
         H            0.275221888715     2.905320684511     0.501563653312     1.007825032230
         H           -0.197920111285     2.853297684511    -1.202620346688     1.007825032230
         H           -1.419438111285     3.103561684511     0.043060653312     1.007825032230
         H            1.981675888715    -1.796900315489    -1.000274346688     1.007825032230
         H            1.766562888715    -2.425054315489     0.639268653312     1.007825032230
         H            0.863863888715    -3.149555315489    -0.691846346688     1.007825032230
         H            2.133647888715     1.200134684511     1.566310653312     1.007825032230
         H            3.507708888715     1.058590684511     0.436392653312     1.007825032230
         H            2.713562888715    -0.394871315489     1.051180653312     1.007825032230

  Basis Set: AUG-CC-PVTZ
    Blend: AUG-CC-PVTZ
  Basis Set: (AUG-CC-PVTZ AUX)
    Blend: AUG-CC-PVTZ-JKFIT
	 Reference Energy          =    -402.9607726247707546 [Eh]
	 Singles Energy            =      -0.0000000000000000 [Eh]
	 Same-Spin Energy          =      -0.4479796950784515 [Eh]
	 Opposite-Spin Energy      =      -1.4661061430513975 [Eh]
	 Correlation Energy        =      -1.9140858381298491 [Eh]
	 Total Energy              =    -404.8748584629005904 [Eh]

	 ================> DF-SCS-MP2 Energies <==================
	-----------------------------------------------------------
	 SCS Same-Spin Scale       =       0.3333333333333333 [-]
	 SCS Opposite-Spin Scale   =       1.2000000000000000 [-]
	 SCS Same-Spin Energy      =      -0.1493265650261505 [Eh]
	 SCS Opposite-Spin Energy  =      -1.7593273716616771 [Eh]
	 SCS Correlation Energy    =      -1.9086539366878275 [Eh]
	 SCS Total Energy          =    -404.8694265614585674 [Eh]
	-----------------------------------------------------------

  Dipole Moment: [D]
     X:     0.5383      Y:     1.0762      Z:     0.5214     Total:     1.3115

*** Psi4 exiting successfully. Buy a developer a beer!
