                               Psi4 1.4a3.dev225

  ==> Input File <==

--------------------------------------------------------------------------
#psi4
#
memory 32 gb

molecule  {
0 1
  N        1.6268380     0.6089620    -0.4693990
  C        0.2919918     0.1558494    -0.2546641
  C       -0.7706010     1.0561020    -0.0842670
  C        0.0806060    -1.2405240    -0.1151990
  C       -2.0579110     0.5582020     0.1415980
  C       -1.2176000    -1.6989120     0.1341680
  C       -2.2850370    -0.8120180     0.2620550
  C       -0.5406870     2.5426280    -0.1993030
  C        1.2072340    -2.2197810    -0.3093320
  C        2.5023020     0.6131830     0.7097540
  H       -2.8885640     1.2560570     0.2350690
  H       -1.3937740    -2.7714120     0.2029680
  H        1.5916390     1.5501200    -0.8540680
  H       -3.2895990    -1.1861590     0.4450020
  H        0.2351210     2.8885850     0.4923550
  H       -0.2380210     2.8365620    -1.2118290
  H       -1.4595390     3.0868260     0.0338520
  H        1.9415750    -1.8136360    -1.0094830
  H        1.7264620    -2.4417900     0.6300600
  H        0.8237630    -3.1662910    -0.7010550
  H        2.0935470     1.1833990     1.5571020
  H        3.4676080     1.0418550     0.4271840
  H        2.6734620    -0.4116070     1.0419720
units angstrom
no_reorient  #important for SAPT in psi4, default
symmetry c1  #important for SAPT in psi4, default
}

set PROPERTIES_ORIGIN ["COM"]
properties('MP2/aug-cc-pvtz', properties = ['dipole'])
--------------------------------------------------------------------------

    Molecular point group: c1
  Charge       = 0
  Multiplicity = 1
  Basis Set: AUG-CC-PVTZ
    Blend: AUG-CC-PVTZ
  Basis Set: (AUG-CC-PVTZ AUX)
    Blend: AUG-CC-PVTZ-JKFIT

    Orbital Energies [Eh]
    ---------------------

    Doubly Occupied:

       1A    -15.553196     2A    -11.258575     3A    -11.250368
       4A    -11.235010     5A    -11.233066     6A    -11.228078
       7A    -11.225483     8A    -11.224301     9A    -11.222974
      10A    -11.214331    11A     -1.225694    12A     -1.130697
      13A     -1.054391    14A     -1.012452    15A     -0.945972
      16A     -0.922210    17A     -0.892291    18A     -0.793357
      19A     -0.782140    20A     -0.691218    21A     -0.661087
      22A     -0.628314    23A     -0.604796    24A     -0.591778
      25A     -0.578434    26A     -0.568847    27A     -0.565384
      28A     -0.556872    29A     -0.552460    30A     -0.530574
      31A     -0.521129    32A     -0.485966    33A     -0.476000
      34A     -0.470910    35A     -0.402085    36A     -0.317169
      37A     -0.302317

  @DF-RHF Final Energy:  -402.96090805639983

   => Energetics <=

    Nuclear Repulsion Energy =            521.1894826697923691
    One-Electron Energy =               -1578.4809300077670287
    Two-Electron Energy =                 654.3305392815748291
    Total Energy =                       -402.9609080563998305
  Basis Set: (AUG-CC-PVTZ AUX)
    Blend: AUG-CC-PVTZ-RI
    Molecular point group: c1

    Geometry (in Angstrom), charge = 0, multiplicity = 1:

       Center              X                  Y                   Z               Mass
    ------------   -----------------  -----------------  -----------------  -----------------
         N            1.666589870766     0.623375531624    -0.455660822922    14.003074004430
         C            0.331743670766     0.170262931624    -0.240925922922    12.000000000000
         C           -0.730849129234     1.070515531624    -0.070528822922    12.000000000000
         C            0.120357870766    -1.226110468376    -0.101460822922    12.000000000000
         C           -2.018159129234     0.572615531624     0.155336177078    12.000000000000
         C           -1.177848129234    -1.684498468376     0.147906177078    12.000000000000
         C           -2.245285129234    -0.797604468376     0.275793177078    12.000000000000
         C           -0.500935129234     2.557041531624    -0.185564822922    12.000000000000
         C            1.246985870766    -2.205367468376    -0.295593822922    12.000000000000
         C            2.542053870766     0.627596531624     0.723492177078    12.000000000000
         H           -2.848812129234     1.270470531624     0.248807177078     1.007825032230
         H           -1.354022129234    -2.756998468376     0.216706177078     1.007825032230
         H            1.631390870766     1.564533531624    -0.840329822922     1.007825032230
         H           -3.249847129234    -1.171745468376     0.458740177078     1.007825032230
         H            0.274872870766     2.902998531624     0.506093177078     1.007825032230
         H           -0.198269129234     2.850975531624    -1.198090822922     1.007825032230
         H           -1.419787129234     3.101239531624     0.047590177078     1.007825032230
         H            1.981326870766    -1.799222468376    -0.995744822922     1.007825032230
         H            1.766213870766    -2.427376468376     0.643798177078     1.007825032230
         H            0.863514870766    -3.151877468376    -0.687316822922     1.007825032230
         H            2.133298870766     1.197812531624     1.570840177078     1.007825032230
         H            3.507359870766     1.056268531624     0.440922177078     1.007825032230
         H            2.713213870766    -0.397193468376     1.055710177078     1.007825032230

  Basis Set: AUG-CC-PVTZ
    Blend: AUG-CC-PVTZ
  Basis Set: (AUG-CC-PVTZ AUX)
    Blend: AUG-CC-PVTZ-JKFIT
	 Reference Energy          =    -402.9609080563998305 [Eh]
	 Singles Energy            =      -0.0000000000000000 [Eh]
	 Same-Spin Energy          =      -0.4479762506612674 [Eh]
	 Opposite-Spin Energy      =      -1.4658733498022514 [Eh]
	 Correlation Energy        =      -1.9138496004635188 [Eh]
	 Total Energy              =    -404.8747576568633235 [Eh]

	 ================> DF-SCS-MP2 Energies <==================
	-----------------------------------------------------------
	 SCS Same-Spin Scale       =       0.3333333333333333 [-]
	 SCS Opposite-Spin Scale   =       1.2000000000000000 [-]
	 SCS Same-Spin Energy      =      -0.1493254168870891 [Eh]
	 SCS Opposite-Spin Energy  =      -1.7590480197627016 [Eh]
	 SCS Correlation Energy    =      -1.9083734366497909 [Eh]
	 SCS Total Energy          =    -404.8692814930496411 [Eh]
	-----------------------------------------------------------

  Dipole Moment: [D]
     X:     0.5414      Y:     1.0610      Z:     0.5306     Total:     1.3039

*** Psi4 exiting successfully. Buy a developer a beer!
