                               Psi4 1.4a3.dev225

  ==> Input File <==

--------------------------------------------------------------------------
#psi4
#
memory 32 gb

molecule  {
0 1
  N        1.6268380     0.6089620    -0.4693990
  C        0.3031040     0.1485790    -0.2066970
  C       -0.7706010     1.0561020    -0.0842670
  C        0.0806060    -1.2405240    -0.1151990
  C       -2.0579110     0.5582020     0.1415980
  C       -1.2176000    -1.6989120     0.1341680
  C       -2.2850370    -0.8120180     0.2620550
  C       -0.5406870     2.5426280    -0.1993030
  C        1.2072340    -2.2197810    -0.3093320
  C        2.5023020     0.6131830     0.7097540
  H       -2.8885640     1.2560570     0.2350690
  H       -1.3937740    -2.7714120     0.2029680
  H        1.5916390     1.5501200    -0.8540680
  H       -3.2895990    -1.1861590     0.4450020
  H        0.2351210     2.8885850     0.4923550
  H       -0.1828358     2.8901551    -1.3964431
  H       -1.4595390     3.0868260     0.0338520
  H        1.9415750    -1.8136360    -1.0094830
  H        1.7264620    -2.4417900     0.6300600
  H        0.8237630    -3.1662910    -0.7010550
  H        2.0935470     1.1833990     1.5571020
  H        3.4676080     1.0418550     0.4271840
  H        2.6734620    -0.4116070     1.0419720
units angstrom
no_reorient  #important for SAPT in psi4, default
symmetry c1  #important for SAPT in psi4, default
}

set PROPERTIES_ORIGIN ["COM"]
properties('MP2/aug-cc-pvtz', properties = ['dipole'])
--------------------------------------------------------------------------

    Molecular point group: c1
  Charge       = 0
  Multiplicity = 1
  Basis Set: AUG-CC-PVTZ
    Blend: AUG-CC-PVTZ
  Basis Set: (AUG-CC-PVTZ AUX)
    Blend: AUG-CC-PVTZ-JKFIT

    Orbital Energies [Eh]
    ---------------------

    Doubly Occupied:

       1A    -15.553541     2A    -11.259626     3A    -11.251282
       4A    -11.249917     5A    -11.237859     6A    -11.232859
       7A    -11.227135     8A    -11.225570     9A    -11.224379
      10A    -11.214662    11A     -1.226731    12A     -1.131827
      13A     -1.053546    14A     -1.011903    15A     -0.942419
      16A     -0.917882    17A     -0.891857    18A     -0.793326
      19A     -0.781708    20A     -0.692321    21A     -0.661846
      22A     -0.630273    23A     -0.602109    24A     -0.587995
      25A     -0.579732    26A     -0.569444    27A     -0.562731
      28A     -0.554211    29A     -0.536551    30A     -0.530335
      31A     -0.518619    32A     -0.486462    33A     -0.476941
      34A     -0.467572    35A     -0.402698    36A     -0.317416
      37A     -0.303252

  @DF-RHF Final Energy:  -402.94226206115900

   => Energetics <=

    Nuclear Repulsion Energy =            520.5116610495769010
    One-Electron Energy =               -1577.0907721921880693
    Two-Electron Energy =                 653.6368490814520555
    Total Energy =                       -402.9422620611589991
  Basis Set: (AUG-CC-PVTZ AUX)
    Blend: AUG-CC-PVTZ-RI
    Molecular point group: c1

    Geometry (in Angstrom), charge = 0, multiplicity = 1:

       Center              X                  Y                   Z               Mass
    ------------   -----------------  -----------------  -----------------  -----------------
         N            1.665191227440     0.623621506100    -0.458544114192    14.003074004430
         C            0.341457227440     0.163238506100    -0.195842114192    12.000000000000
         C           -0.732247772560     1.070761506100    -0.073412114192    12.000000000000
         C            0.118959227440    -1.225864493900    -0.104344114192    12.000000000000
         C           -2.019557772560     0.572861506100     0.152452885808    12.000000000000
         C           -1.179246772560    -1.684252493900     0.145022885808    12.000000000000
         C           -2.246683772560    -0.797358493900     0.272909885808    12.000000000000
         C           -0.502333772560     2.557287506100    -0.188448114192    12.000000000000
         C            1.245587227440    -2.205121493900    -0.298477114192    12.000000000000
         C            2.540655227440     0.627842506100     0.720608885808    12.000000000000
         H           -2.850210772560     1.270716506100     0.245923885808     1.007825032230
         H           -1.355420772560    -2.756752493900     0.213822885808     1.007825032230
         H            1.629992227440     1.564779506100    -0.843213114192     1.007825032230
         H           -3.251245772560    -1.171499493900     0.455856885808     1.007825032230
         H            0.273474227440     2.903244506100     0.503209885808     1.007825032230
         H           -0.144482572560     2.904814606100    -1.385588214192     1.007825032230
         H           -1.421185772560     3.101485506100     0.044706885808     1.007825032230
         H            1.979928227440    -1.798976493900    -0.998628114192     1.007825032230
         H            1.764815227440    -2.427130493900     0.640914885808     1.007825032230
         H            0.862116227440    -3.151631493900    -0.690200114192     1.007825032230
         H            2.131900227440     1.198058506100     1.567956885808     1.007825032230
         H            3.505961227440     1.056514506100     0.438038885808     1.007825032230
         H            2.711815227440    -0.396947493900     1.052826885808     1.007825032230

  Basis Set: AUG-CC-PVTZ
    Blend: AUG-CC-PVTZ
  Basis Set: (AUG-CC-PVTZ AUX)
    Blend: AUG-CC-PVTZ-JKFIT
	 Reference Energy          =    -402.9422620611589991 [Eh]
	 Singles Energy            =      -0.0000000000000000 [Eh]
	 Same-Spin Energy          =      -0.4480497752737226 [Eh]
	 Opposite-Spin Energy      =      -1.4674371893910338 [Eh]
	 Correlation Energy        =      -1.9154869646647565 [Eh]
	 Total Energy              =    -404.8577490258237503 [Eh]

	 ================> DF-SCS-MP2 Energies <==================
	-----------------------------------------------------------
	 SCS Same-Spin Scale       =       0.3333333333333333 [-]
	 SCS Opposite-Spin Scale   =       1.2000000000000000 [-]
	 SCS Same-Spin Energy      =      -0.1493499250912408 [Eh]
	 SCS Opposite-Spin Energy  =      -1.7609246272692405 [Eh]
	 SCS Correlation Energy    =      -1.9102745523604814 [Eh]
	 SCS Total Energy          =    -404.8525366135194758 [Eh]
	-----------------------------------------------------------

  Dipole Moment: [D]
     X:     0.4903      Y:     0.9512      Z:     0.6330     Total:     1.2433

*** Psi4 exiting successfully. Buy a developer a beer!
