                               Psi4 1.4a3.dev225

  ==> Input File <==

--------------------------------------------------------------------------
#psi4
#
memory 32 gb

molecule  {
0 1
  N        1.6268380     0.6089620    -0.4693990
  C        0.3031040     0.1485790    -0.2066970
  C       -0.7706010     1.0561020    -0.0842670
  C        0.0806060    -1.2405240    -0.1151990
  C       -2.0579110     0.5582020     0.1415980
  C       -1.2176000    -1.6989120     0.1341680
  C       -2.2850370    -0.8120180     0.2620550
  C       -0.5406870     2.5426280    -0.1993030
  C        1.2072340    -2.2197810    -0.3093320
  C        2.3830797     0.6126082     0.5491747
  H       -2.8885640     1.2560570     0.2350690
  H       -1.3937740    -2.7714120     0.2029680
  H        1.5916390     1.5501200    -0.8540680
  H       -3.2895990    -1.1861590     0.4450020
  H        0.2351210     2.8885850     0.4923550
  H       -0.2380210     2.8365620    -1.2118290
  H       -1.4595390     3.0868260     0.0338520
  H        1.9415750    -1.8136360    -1.0094830
  H        1.7264620    -2.4417900     0.6300600
  H        0.8237630    -3.1662910    -0.7010550
  H        2.0935470     1.1833990     1.5571020
  H        3.4676080     1.0418550     0.4271840
  H        2.6734620    -0.4116070     1.0419720
units angstrom
no_reorient  #important for SAPT in psi4, default
symmetry c1  #important for SAPT in psi4, default
}

set PROPERTIES_ORIGIN ["COM"]
properties('MP2/aug-cc-pvtz', properties = ['dipole'])
--------------------------------------------------------------------------

    Molecular point group: c1
  Charge       = 0
  Multiplicity = 1
  Basis Set: AUG-CC-PVTZ
    Blend: AUG-CC-PVTZ
  Basis Set: (AUG-CC-PVTZ AUX)
    Blend: AUG-CC-PVTZ-JKFIT

    Orbital Energies [Eh]
    ---------------------

    Doubly Occupied:

       1A    -15.556596     2A    -11.264328     3A    -11.258724
       4A    -11.241663     5A    -11.237432     6A    -11.231340
       7A    -11.229359     8A    -11.228118     9A    -11.226538
      10A    -11.216301    11A     -1.285899    12A     -1.144417
      13A     -1.058456    14A     -1.022024    15A     -0.948143
      16A     -0.925110    17A     -0.874495    18A     -0.803004
      19A     -0.785261    20A     -0.709717    21A     -0.679926
      22A     -0.643756    23A     -0.635017    24A     -0.593393
      25A     -0.584035    26A     -0.570271    27A     -0.568576
      28A     -0.558839    29A     -0.557233    30A     -0.524359
      31A     -0.503574    32A     -0.482592    33A     -0.474558
      34A     -0.460308    35A     -0.380810    36A     -0.320481
      37A     -0.310161

  @DF-RHF Final Energy:  -402.91397156465121

   => Energetics <=

    Nuclear Repulsion Energy =            525.1937913507991880
    One-Electron Energy =               -1586.0259002958362089
    Two-Electron Energy =                 657.9181373803857014
    Total Energy =                       -402.9139715646512059
  Basis Set: (AUG-CC-PVTZ AUX)
    Blend: AUG-CC-PVTZ-RI
    Molecular point group: c1

    Geometry (in Angstrom), charge = 0, multiplicity = 1:

       Center              X                  Y                   Z               Mass
    ------------   -----------------  -----------------  -----------------  -----------------
         N            1.676192203218     0.624072341807    -0.445658614223    14.003074004430
         C            0.352458203218     0.163689341807    -0.182956614223    12.000000000000
         C           -0.721246796782     1.071212341807    -0.060526614223    12.000000000000
         C            0.129960203218    -1.225413658193    -0.091458614223    12.000000000000
         C           -2.008556796782     0.573312341807     0.165338385777    12.000000000000
         C           -1.168245796782    -1.683801658193     0.157908385777    12.000000000000
         C           -2.235682796782    -0.796907658193     0.285795385777    12.000000000000
         C           -0.491332796782     2.557738341807    -0.175562614223    12.000000000000
         C            1.256588203218    -2.204670658193    -0.285591614223    12.000000000000
         C            2.432433903218     0.627718541807     0.572915085777    12.000000000000
         H           -2.839209796782     1.271167341807     0.258809385777     1.007825032230
         H           -1.344419796782    -2.756301658193     0.226708385777     1.007825032230
         H            1.640993203218     1.565230341807    -0.830327614223     1.007825032230
         H           -3.240244796782    -1.171048658193     0.468742385777     1.007825032230
         H            0.284475203218     2.903695341807     0.516095385777     1.007825032230
         H           -0.188666796782     2.851672341807    -1.188088614223     1.007825032230
         H           -1.410184796782     3.101936341807     0.057592385777     1.007825032230
         H            1.990929203218    -1.798525658193    -0.985742614223     1.007825032230
         H            1.775816203218    -2.426679658193     0.653800385777     1.007825032230
         H            0.873117203218    -3.151180658193    -0.677314614223     1.007825032230
         H            2.142901203218     1.198509341807     1.580842385777     1.007825032230
         H            3.516962203218     1.056965341807     0.450924385777     1.007825032230
         H            2.722816203218    -0.396496658193     1.065712385777     1.007825032230

  Basis Set: AUG-CC-PVTZ
    Blend: AUG-CC-PVTZ
  Basis Set: (AUG-CC-PVTZ AUX)
    Blend: AUG-CC-PVTZ-JKFIT
	 Reference Energy          =    -402.9139715646512059 [Eh]
	 Singles Energy            =      -0.0000000000000000 [Eh]
	 Same-Spin Energy          =      -0.4503245248340699 [Eh]
	 Opposite-Spin Energy      =      -1.4679902057884582 [Eh]
	 Correlation Energy        =      -1.9183147306225281 [Eh]
	 Total Energy              =    -404.8322862952737182 [Eh]

	 ================> DF-SCS-MP2 Energies <==================
	-----------------------------------------------------------
	 SCS Same-Spin Scale       =       0.3333333333333333 [-]
	 SCS Opposite-Spin Scale   =       1.2000000000000000 [-]
	 SCS Same-Spin Energy      =      -0.1501081749446900 [Eh]
	 SCS Opposite-Spin Energy  =      -1.7615882469461497 [Eh]
	 SCS Correlation Energy    =      -1.9116964218908397 [Eh]
	 SCS Total Energy          =    -404.8256679865420438 [Eh]
	-----------------------------------------------------------

  Dipole Moment: [D]
     X:    -0.0093      Y:     0.9253      Z:     0.0026     Total:     0.9253

*** Psi4 exiting successfully. Buy a developer a beer!
