                               Psi4 1.4a3.dev225

  ==> Input File <==

--------------------------------------------------------------------------
#psi4
#
memory 32 gb

molecule  {
0 1
  N        1.6268380     0.6089620    -0.4693990
  C        0.3031040     0.1485790    -0.2066970
  C       -0.7706010     1.0561020    -0.0842670
  C        0.0806060    -1.2405240    -0.1151990
  C       -2.0579110     0.5582020     0.1415980
  C       -1.2176000    -1.6989120     0.1341680
  C       -2.2850370    -0.8120180     0.2620550
  C       -0.5406870     2.5426280    -0.1993030
  C        1.2072340    -2.2197810    -0.3093320
  C        2.5023020     0.6131830     0.7097540
  H       -2.8885640     1.2560570     0.2350690
  H       -1.3937740    -2.7714120     0.2029680
  H        1.5923310     1.5316177    -0.8465058
  H       -3.2895990    -1.1861590     0.4450020
  H        0.2351210     2.8885850     0.4923550
  H       -0.2380210     2.8365620    -1.2118290
  H       -1.4595390     3.0868260     0.0338520
  H        1.9415750    -1.8136360    -1.0094830
  H        1.7264620    -2.4417900     0.6300600
  H        0.8237630    -3.1662910    -0.7010550
  H        2.0935470     1.1833990     1.5571020
  H        3.4676080     1.0418550     0.4271840
  H        2.6734620    -0.4116070     1.0419720
units angstrom
no_reorient  #important for SAPT in psi4, default
symmetry c1  #important for SAPT in psi4, default
}

set PROPERTIES_ORIGIN ["COM"]
properties('MP2/aug-cc-pvtz', properties = ['dipole'])
--------------------------------------------------------------------------

    Molecular point group: c1
  Charge       = 0
  Multiplicity = 1
  Basis Set: AUG-CC-PVTZ
    Blend: AUG-CC-PVTZ
  Basis Set: (AUG-CC-PVTZ AUX)
    Blend: AUG-CC-PVTZ-JKFIT

    Orbital Energies [Eh]
    ---------------------

    Doubly Occupied:

       1A    -15.551691     2A    -11.258172     3A    -11.249636
       4A    -11.235938     5A    -11.232011     6A    -11.228365
       7A    -11.225403     8A    -11.224235     9A    -11.223010
      10A    -11.214126    11A     -1.228566    12A     -1.131361
      13A     -1.054414    14A     -1.012583    15A     -0.945405
      16A     -0.922223    17A     -0.893348    18A     -0.795822
      19A     -0.781331    20A     -0.694212    21A     -0.660792
      22A     -0.629976    23A     -0.603765    24A     -0.591879
      25A     -0.578875    26A     -0.569240    27A     -0.565315
      28A     -0.556710    29A     -0.552319    30A     -0.531469
      31A     -0.521017    32A     -0.485476    33A     -0.477246
      34A     -0.470923    35A     -0.402852    36A     -0.317093
      37A     -0.302822

  @DF-RHF Final Energy:  -402.96223022295283

   => Energetics <=

    Nuclear Repulsion Energy =            521.4263901601999578
    One-Electron Energy =               -1578.9380026245094086
    Two-Electron Energy =                 654.5493822413567386
    Total Energy =                       -402.9622302229528259
  Basis Set: (AUG-CC-PVTZ AUX)
    Blend: AUG-CC-PVTZ-RI
    Molecular point group: c1

    Geometry (in Angstrom), charge = 0, multiplicity = 1:

       Center              X                  Y                   Z               Mass
    ------------   -----------------  -----------------  -----------------  -----------------
         N            1.665597723814     0.624159307489    -0.459977668636    14.003074004430
         C            0.341863723814     0.163776307489    -0.197275668636    12.000000000000
         C           -0.731841276186     1.071299307489    -0.074845668636    12.000000000000
         C            0.119365723814    -1.225326692511    -0.105777668636    12.000000000000
         C           -2.019151276186     0.573399307489     0.151019331364    12.000000000000
         C           -1.178840276186    -1.683714692511     0.143589331364    12.000000000000
         C           -2.246277276186    -0.796820692511     0.271476331364    12.000000000000
         C           -0.501927276186     2.557825307489    -0.189881668636    12.000000000000
         C            1.245993723814    -2.204583692511    -0.299910668636    12.000000000000
         C            2.541061723814     0.628380307489     0.719175331364    12.000000000000
         H           -2.849804276186     1.271254307489     0.244490331364     1.007825032230
         H           -1.355014276186    -2.756214692511     0.212389331364     1.007825032230
         H            1.631090723814     1.546815007489    -0.837084468636     1.007825032230
         H           -3.250839276186    -1.170961692511     0.454423331364     1.007825032230
         H            0.273880723814     2.903782307489     0.501776331364     1.007825032230
         H           -0.199261276186     2.851759307489    -1.202407668636     1.007825032230
         H           -1.420779276186     3.102023307489     0.043273331364     1.007825032230
         H            1.980334723814    -1.798438692511    -1.000061668636     1.007825032230
         H            1.765221723814    -2.426592692511     0.639481331364     1.007825032230
         H            0.862522723814    -3.151093692511    -0.691633668636     1.007825032230
         H            2.132306723814     1.198596307489     1.566523331364     1.007825032230
         H            3.506367723814     1.057052307489     0.436605331364     1.007825032230
         H            2.712221723814    -0.396409692511     1.051393331364     1.007825032230

  Basis Set: AUG-CC-PVTZ
    Blend: AUG-CC-PVTZ
  Basis Set: (AUG-CC-PVTZ AUX)
    Blend: AUG-CC-PVTZ-JKFIT
	 Reference Energy          =    -402.9622302229528259 [Eh]
	 Singles Energy            =      -0.0000000000000000 [Eh]
	 Same-Spin Energy          =      -0.4478316017449180 [Eh]
	 Opposite-Spin Energy      =      -1.4655109407275799 [Eh]
	 Correlation Energy        =      -1.9133425424724979 [Eh]
	 Total Energy              =    -404.8755727654253178 [Eh]

	 ================> DF-SCS-MP2 Energies <==================
	-----------------------------------------------------------
	 SCS Same-Spin Scale       =       0.3333333333333333 [-]
	 SCS Opposite-Spin Scale   =       1.2000000000000000 [-]
	 SCS Same-Spin Energy      =      -0.1492772005816393 [Eh]
	 SCS Opposite-Spin Energy  =      -1.7586131288730960 [Eh]
	 SCS Correlation Energy    =      -1.9078903294547354 [Eh]
	 SCS Total Energy          =    -404.8701205524075704 [Eh]
	-----------------------------------------------------------

  Dipole Moment: [D]
     X:     0.5395      Y:     1.0665      Z:     0.5233     Total:     1.3047

*** Psi4 exiting successfully. Buy a developer a beer!
