                               Psi4 1.4a3.dev225

  ==> Input File <==

--------------------------------------------------------------------------
#psi4
#
memory 32 gb

molecule  {
0 1
  N        1.6268380     0.6089620    -0.4693990
  C        0.3031040     0.1485790    -0.2066970
  C       -0.7706010     1.0561020    -0.0842670
  C        0.0806060    -1.2405240    -0.1151990
  C       -2.0579110     0.5582020     0.1415980
  C       -1.2176000    -1.6989120     0.1341680
  C       -2.2850370    -0.8120180     0.2620550
  C       -0.5406870     2.5426280    -0.1993030
  C        1.2072340    -2.2197810    -0.3093320
  C        2.5023020     0.6131830     0.7097540
  H       -2.8885640     1.2560570     0.2350690
  H       -1.3937740    -2.7714120     0.2029680
  H        1.5916390     1.5501200    -0.8540680
  H       -3.2895990    -1.1861590     0.4450020
  H        0.2351210     2.8885850     0.4923550
  H       -0.2380210     2.8365620    -1.2118290
  H       -1.4595390     3.0868260     0.0338520
  H        1.9415750    -1.8136360    -1.0094830
  H        1.7264620    -2.4417900     0.6300600
  H        0.8412925    -3.1230236    -0.6831483
  H        2.0935470     1.1833990     1.5571020
  H        3.4676080     1.0418550     0.4271840
  H        2.6734620    -0.4116070     1.0419720
units angstrom
no_reorient  #important for SAPT in psi4, default
symmetry c1  #important for SAPT in psi4, default
}

set PROPERTIES_ORIGIN ["COM"]
properties('MP2/aug-cc-pvtz', properties = ['dipole'])
--------------------------------------------------------------------------

    Molecular point group: c1
  Charge       = 0
  Multiplicity = 1
  Basis Set: AUG-CC-PVTZ
    Blend: AUG-CC-PVTZ
  Basis Set: (AUG-CC-PVTZ AUX)
    Blend: AUG-CC-PVTZ-JKFIT

    Orbital Energies [Eh]
    ---------------------

    Doubly Occupied:

       1A    -15.553516     2A    -11.257884     3A    -11.249365
       4A    -11.235722     5A    -11.231656     6A    -11.228233
       7A    -11.225260     8A    -11.224127     9A    -11.222946
      10A    -11.207953    11A     -1.226275    12A     -1.130756
      13A     -1.055028    14A     -1.012836    15A     -0.946721
      16A     -0.923151    17A     -0.892806    18A     -0.794689
      19A     -0.782256    20A     -0.692519    21A     -0.660600
      22A     -0.629902    23A     -0.603288    24A     -0.591298
      25A     -0.578742    26A     -0.572814    27A     -0.565119
      28A     -0.558484    29A     -0.551946    30A     -0.530439
      31A     -0.524121    32A     -0.485011    33A     -0.477344
      34A     -0.470980    35A     -0.402214    36A     -0.317053
      37A     -0.302536

  @DF-RHF Final Energy:  -402.96082833670391

   => Energetics <=

    Nuclear Repulsion Energy =            521.5546145714675959
    One-Electron Energy =               -1579.1997068923608367
    Two-Electron Energy =                 654.6842639841892151
    Total Energy =                       -402.9608283367039121
  Basis Set: (AUG-CC-PVTZ AUX)
    Blend: AUG-CC-PVTZ-RI
    Molecular point group: c1

    Geometry (in Angstrom), charge = 0, multiplicity = 1:

       Center              X                  Y                   Z               Mass
    ------------   -----------------  -----------------  -----------------  -----------------
         N            1.665472123139     0.623698531483    -0.460054834260    14.003074004430
         C            0.341738123139     0.163315531483    -0.197352834260    12.000000000000
         C           -0.731966876861     1.070838531483    -0.074922834260    12.000000000000
         C            0.119240123139    -1.225787468517    -0.105854834260    12.000000000000
         C           -2.019276876861     0.572938531483     0.150942165740    12.000000000000
         C           -1.178965876861    -1.684175468517     0.143512165740    12.000000000000
         C           -2.246402876861    -0.797281468517     0.271399165740    12.000000000000
         C           -0.502052876861     2.557364531483    -0.189958834260    12.000000000000
         C            1.245868123139    -2.205044468517    -0.299987834260    12.000000000000
         C            2.540936123139     0.627919531483     0.719098165740    12.000000000000
         H           -2.849929876861     1.270793531483     0.244413165740     1.007825032230
         H           -1.355139876861    -2.756675468517     0.212312165740     1.007825032230
         H            1.630273123139     1.564856531483    -0.844723834260     1.007825032230
         H           -3.250964876861    -1.171422468517     0.454346165740     1.007825032230
         H            0.273755123139     2.903321531483     0.501699165740     1.007825032230
         H           -0.199386876861     2.851298531483    -1.202484834260     1.007825032230
         H           -1.420904876861     3.101562531483     0.043196165740     1.007825032230
         H            1.980209123139    -1.798899468517    -1.000138834260     1.007825032230
         H            1.765096123139    -2.427053468517     0.639404165740     1.007825032230
         H            0.879926623139    -3.108287068517    -0.673804134260     1.007825032230
         H            2.132181123139     1.198135531483     1.566446165740     1.007825032230
         H            3.506242123139     1.056591531483     0.436528165740     1.007825032230
         H            2.712096123139    -0.396870468517     1.051316165740     1.007825032230

  Basis Set: AUG-CC-PVTZ
    Blend: AUG-CC-PVTZ
  Basis Set: (AUG-CC-PVTZ AUX)
    Blend: AUG-CC-PVTZ-JKFIT
	 Reference Energy          =    -402.9608283367039121 [Eh]
	 Singles Energy            =      -0.0000000000000000 [Eh]
	 Same-Spin Energy          =      -0.4479845073381959 [Eh]
	 Opposite-Spin Energy      =      -1.4656129174410049 [Eh]
	 Correlation Energy        =      -1.9135974247792007 [Eh]
	 Total Energy              =    -404.8744257614831099 [Eh]

	 ================> DF-SCS-MP2 Energies <==================
	-----------------------------------------------------------
	 SCS Same-Spin Scale       =       0.3333333333333333 [-]
	 SCS Opposite-Spin Scale   =       1.2000000000000000 [-]
	 SCS Same-Spin Energy      =      -0.1493281691127319 [Eh]
	 SCS Opposite-Spin Energy  =      -1.7587355009292058 [Eh]
	 SCS Correlation Energy    =      -1.9080636700419378 [Eh]
	 SCS Total Energy          =    -404.8688920067458525 [Eh]
	-----------------------------------------------------------

  Dipole Moment: [D]
     X:     0.5406      Y:     1.0422      Z:     0.5115     Total:     1.2806

*** Psi4 exiting successfully. Buy a developer a beer!
