                               Psi4 1.4a3.dev225

  ==> Input File <==

--------------------------------------------------------------------------
#psi4
#
memory 32 gb

molecule  {
0 1
  N        1.6268380     0.6089620    -0.4693990
  C        0.3031040     0.1485790    -0.2066970
  C       -0.7706010     1.0561020    -0.0842670
  C        0.0806060    -1.2405240    -0.1151990
  C       -2.0579110     0.5582020     0.1415980
  C       -1.2176000    -1.6989120     0.1341680
  C       -2.2850370    -0.8120180     0.2620550
  C       -0.5406870     2.5426280    -0.1993030
  C        1.2072340    -2.2197810    -0.3093320
  C        2.5023020     0.6131830     0.7097540
  H       -2.8885640     1.2560570     0.2350690
  H       -1.3937740    -2.7714120     0.2029680
  H        1.5916390     1.5501200    -0.8540680
  H       -3.2895990    -1.1861590     0.4450020
  H        0.2351210     2.8885850     0.4923550
  H       -0.2380210     2.8365620    -1.2118290
  H       -1.4595390     3.0868260     0.0338520
  H        1.9415750    -1.8136360    -1.0094830
  H        1.7264620    -2.4417900     0.6300600
  H        0.8237630    -3.1662910    -0.7010550
  H        2.0935470     1.1833990     1.5571020
  H        3.4676080     1.0418550     0.4271840
  H        2.6766002    -0.4303966     1.0480632
units angstrom
no_reorient  #important for SAPT in psi4, default
symmetry c1  #important for SAPT in psi4, default
}

set PROPERTIES_ORIGIN ["COM"]
properties('MP2/aug-cc-pvtz', properties = ['dipole'])
--------------------------------------------------------------------------

    Molecular point group: c1
  Charge       = 0
  Multiplicity = 1
  Basis Set: AUG-CC-PVTZ
    Blend: AUG-CC-PVTZ
  Basis Set: (AUG-CC-PVTZ AUX)
    Blend: AUG-CC-PVTZ-JKFIT

    Orbital Energies [Eh]
    ---------------------

    Doubly Occupied:

       1A    -15.554068     2A    -11.258273     3A    -11.252012
       4A    -11.235935     5A    -11.232056     6A    -11.228445
       7A    -11.225409     8A    -11.224241     9A    -11.223026
      10A    -11.214077    11A     -1.226605    12A     -1.130835
      13A     -1.054420    14A     -1.012328    15A     -0.944843
      16A     -0.922103    17A     -0.890764    18A     -0.794520
      19A     -0.781251    20A     -0.692432    21A     -0.660797
      22A     -0.629544    23A     -0.603531    24A     -0.590698
      25A     -0.578811    26A     -0.568633    27A     -0.565018
      28A     -0.556721    29A     -0.552187    30A     -0.529097
      31A     -0.520834    32A     -0.485057    33A     -0.477003
      34A     -0.470827    35A     -0.402468    36A     -0.317108
      37A     -0.302790

  @DF-RHF Final Energy:  -402.96118988312782

   => Energetics <=

    Nuclear Repulsion Energy =            521.2365734589681097
    One-Electron Energy =               -1578.5779926098100532
    Two-Electron Energy =                 654.3802292677140713
    Total Energy =                       -402.9611898831277585
  Basis Set: (AUG-CC-PVTZ AUX)
    Blend: AUG-CC-PVTZ-RI
    Molecular point group: c1

    Geometry (in Angstrom), charge = 0, multiplicity = 1:

       Center              X                  Y                   Z               Mass
    ------------   -----------------  -----------------  -----------------  -----------------
         N            1.665579476190     0.624161450627    -0.459966695595    14.003074004430
         C            0.341845476190     0.163778450627    -0.197264695595    12.000000000000
         C           -0.731859523810     1.071301450627    -0.074834695595    12.000000000000
         C            0.119347476190    -1.225324549373    -0.105766695595    12.000000000000
         C           -2.019169523810     0.573401450627     0.151030304405    12.000000000000
         C           -1.178858523810    -1.683712549373     0.143600304405    12.000000000000
         C           -2.246295523810    -0.796818549373     0.271487304405    12.000000000000
         C           -0.501945523810     2.557827450627    -0.189870695595    12.000000000000
         C            1.245975476190    -2.204581549373    -0.299899695595    12.000000000000
         C            2.541043476190     0.628382450627     0.719186304405    12.000000000000
         H           -2.849822523810     1.271256450627     0.244501304405     1.007825032230
         H           -1.355032523810    -2.756212549373     0.212400304405     1.007825032230
         H            1.630380476190     1.565319450627    -0.844635695595     1.007825032230
         H           -3.250857523810    -1.170959549373     0.454434304405     1.007825032230
         H            0.273862476190     2.903784450627     0.501787304405     1.007825032230
         H           -0.199279523810     2.851761450627    -1.202396695595     1.007825032230
         H           -1.420797523810     3.102025450627     0.043284304405     1.007825032230
         H            1.980316476190    -1.798436549373    -1.000050695595     1.007825032230
         H            1.765203476190    -2.426590549373     0.639492304405     1.007825032230
         H            0.862504476190    -3.151091549373    -0.691622695595     1.007825032230
         H            2.132288476190     1.198598450627     1.566534304405     1.007825032230
         H            3.506349476190     1.057054450627     0.436616304405     1.007825032230
         H            2.715341676190    -0.415197149373     1.057495504405     1.007825032230

  Basis Set: AUG-CC-PVTZ
    Blend: AUG-CC-PVTZ
  Basis Set: (AUG-CC-PVTZ AUX)
    Blend: AUG-CC-PVTZ-JKFIT
	 Reference Energy          =    -402.9611898831278154 [Eh]
	 Singles Energy            =      -0.0000000000000000 [Eh]
	 Same-Spin Energy          =      -0.4480255732693958 [Eh]
	 Opposite-Spin Energy      =      -1.4660809251284181 [Eh]
	 Correlation Energy        =      -1.9141064983978140 [Eh]
	 Total Energy              =    -404.8752963815256294 [Eh]

	 ================> DF-SCS-MP2 Energies <==================
	-----------------------------------------------------------
	 SCS Same-Spin Scale       =       0.3333333333333333 [-]
	 SCS Opposite-Spin Scale   =       1.2000000000000000 [-]
	 SCS Same-Spin Energy      =      -0.1493418577564653 [Eh]
	 SCS Opposite-Spin Energy  =      -1.7592971101541017 [Eh]
	 SCS Correlation Energy    =      -1.9086389679105671 [Eh]
	 SCS Total Energy          =    -404.8698288510383918 [Eh]
	-----------------------------------------------------------

  Dipole Moment: [D]
     X:     0.5330      Y:     1.0798      Z:     0.5149     Total:     1.3096

*** Psi4 exiting successfully. Buy a developer a beer!
