                               Psi4 1.4a3.dev225

  ==> Input File <==

--------------------------------------------------------------------------
#psi4
#
memory 32 gb

molecule  {
0 1
  N        1.6268380     0.6089620    -0.4693990
  C        0.3031040     0.1485790    -0.2066970
  C       -0.7706010     1.0561020    -0.0842670
  C        0.0806060    -1.2405240    -0.1151990
  C       -2.0579110     0.5582020     0.1415980
  C       -1.2176000    -1.6989120     0.1341680
  C       -2.3013286    -0.9103029     0.2706953
  C       -0.5406870     2.5426280    -0.1993030
  C        1.2072340    -2.2197810    -0.3093320
  C        2.5023020     0.6131830     0.7097540
  H       -2.8885640     1.2560570     0.2350690
  H       -1.3937740    -2.7714120     0.2029680
  H        1.5916390     1.5501200    -0.8540680
  H       -3.2895990    -1.1861590     0.4450020
  H        0.2351210     2.8885850     0.4923550
  H       -0.2380210     2.8365620    -1.2118290
  H       -1.4595390     3.0868260     0.0338520
  H        1.9415750    -1.8136360    -1.0094830
  H        1.7264620    -2.4417900     0.6300600
  H        0.8237630    -3.1662910    -0.7010550
  H        2.0935470     1.1833990     1.5571020
  H        3.4676080     1.0418550     0.4271840
  H        2.6734620    -0.4116070     1.0419720
units angstrom
no_reorient  #important for SAPT in psi4, default
symmetry c1  #important for SAPT in psi4, default
}

set PROPERTIES_ORIGIN ["COM"]
properties('MP2/aug-cc-pvtz', properties = ['dipole'])
--------------------------------------------------------------------------

    Molecular point group: c1
  Charge       = 0
  Multiplicity = 1
  Basis Set: AUG-CC-PVTZ
    Blend: AUG-CC-PVTZ
  Basis Set: (AUG-CC-PVTZ AUX)
    Blend: AUG-CC-PVTZ-JKFIT

    Orbital Energies [Eh]
    ---------------------

    Doubly Occupied:

       1A    -15.554305     2A    -11.259399     3A    -11.249952
       4A    -11.236772     5A    -11.233755     6A    -11.231359
       7A    -11.228679     8A    -11.225360     9A    -11.219828
      10A    -11.214155    11A     -1.226806    12A     -1.127431
      13A     -1.054742    14A     -1.011018    15A     -0.945676
      16A     -0.920627    17A     -0.891213    18A     -0.796796
      19A     -0.782722    20A     -0.690578    21A     -0.664155
      22A     -0.631385    23A     -0.607536    24A     -0.590473
      25A     -0.578027    26A     -0.569302    27A     -0.565597
      28A     -0.556582    29A     -0.551677    30A     -0.533164
      31A     -0.516337    32A     -0.494984    33A     -0.468792
      34A     -0.464253    35A     -0.402420    36A     -0.322205
      37A     -0.296927

  @DF-RHF Final Energy:  -402.95002870692582

   => Energetics <=

    Nuclear Repulsion Energy =            520.3486493070223560
    One-Electron Energy =               -1576.7673802596677888
    Two-Electron Energy =                 653.4687022457196690
    Total Energy =                       -402.9500287069258775
  Basis Set: (AUG-CC-PVTZ AUX)
    Blend: AUG-CC-PVTZ-RI
    Molecular point group: c1

    Geometry (in Angstrom), charge = 0, multiplicity = 1:

       Center              X                  Y                   Z               Mass
    ------------   -----------------  -----------------  -----------------  -----------------
         N            1.667049904756     0.632750946897    -0.460688688718    14.003074004430
         C            0.343315904756     0.172367946897    -0.197986688718    12.000000000000
         C           -0.730389095244     1.079890946897    -0.075556688718    12.000000000000
         C            0.120817904756    -1.216735053103    -0.106488688718    12.000000000000
         C           -2.017699095244     0.581990946897     0.150308311282    12.000000000000
         C           -1.177388095244    -1.675123053103     0.142878311282    12.000000000000
         C           -2.261116695244    -0.886513953103     0.279405611282    12.000000000000
         C           -0.500475095244     2.566416946897    -0.190592688718    12.000000000000
         C            1.247445904756    -2.195992053103    -0.300621688718    12.000000000000
         C            2.542513904756     0.636971946897     0.718464311282    12.000000000000
         H           -2.848352095244     1.279845946897     0.243779311282     1.007825032230
         H           -1.353562095244    -2.747623053103     0.211678311282     1.007825032230
         H            1.631850904756     1.573908946897    -0.845357688718     1.007825032230
         H           -3.249387095244    -1.162370053103     0.453712311282     1.007825032230
         H            0.275332904756     2.912373946897     0.501065311282     1.007825032230
         H           -0.197809095244     2.860350946897    -1.203118688718     1.007825032230
         H           -1.419327095244     3.110614946897     0.042562311282     1.007825032230
         H            1.981786904756    -1.789847053103    -1.000772688718     1.007825032230
         H            1.766673904756    -2.418001053103     0.638770311282     1.007825032230
         H            0.863974904756    -3.142502053103    -0.692344688718     1.007825032230
         H            2.133758904756     1.207187946897     1.565812311282     1.007825032230
         H            3.507819904756     1.065643946897     0.435894311282     1.007825032230
         H            2.713673904756    -0.387818053103     1.050682311282     1.007825032230

  Basis Set: AUG-CC-PVTZ
    Blend: AUG-CC-PVTZ
  Basis Set: (AUG-CC-PVTZ AUX)
    Blend: AUG-CC-PVTZ-JKFIT
	 Reference Energy          =    -402.9500287069258206 [Eh]
	 Singles Energy            =      -0.0000000000000000 [Eh]
	 Same-Spin Energy          =      -0.4477979609184203 [Eh]
	 Opposite-Spin Energy      =      -1.4667870460938814 [Eh]
	 Correlation Energy        =      -1.9145850070123018 [Eh]
	 Total Energy              =    -404.8646137139381267 [Eh]

	 ================> DF-SCS-MP2 Energies <==================
	-----------------------------------------------------------
	 SCS Same-Spin Scale       =       0.3333333333333333 [-]
	 SCS Opposite-Spin Scale   =       1.2000000000000000 [-]
	 SCS Same-Spin Energy      =      -0.1492659869728068 [Eh]
	 SCS Opposite-Spin Energy  =      -1.7601444553126577 [Eh]
	 SCS Correlation Energy    =      -1.9094104422854645 [Eh]
	 SCS Total Energy          =    -404.8594391492113118 [Eh]
	-----------------------------------------------------------

  Dipole Moment: [D]
     X:     0.5297      Y:     1.0944      Z:     0.5214     Total:     1.3229

*** Psi4 exiting successfully. Buy a developer a beer!
