                               Psi4 1.4a3.dev225

  ==> Input File <==

--------------------------------------------------------------------------
#psi4
#
memory 32 gb

molecule  {
0 1
  N        1.6268380     0.6089620    -0.4693990
  C        0.3031040     0.1485790    -0.2066970
  C       -0.7706010     1.0561020    -0.0842670
  C        0.0806060    -1.2405240    -0.1151990
  C       -2.0579110     0.5582020     0.1415980
  C       -1.2176000    -1.6989120     0.1341680
  C       -2.2850370    -0.8120180     0.2620550
  C       -0.5406870     2.5426280    -0.1993030
  C        1.1922652    -2.2067702    -0.3067527
  C        2.5023020     0.6131830     0.7097540
  H       -2.8885640     1.2560570     0.2350690
  H       -1.3937740    -2.7714120     0.2029680
  H        1.5916390     1.5501200    -0.8540680
  H       -3.2895990    -1.1861590     0.4450020
  H        0.2351210     2.8885850     0.4923550
  H       -0.2380210     2.8365620    -1.2118290
  H       -1.4595390     3.0868260     0.0338520
  H        1.9415750    -1.8136360    -1.0094830
  H        1.7264620    -2.4417900     0.6300600
  H        0.8237630    -3.1662910    -0.7010550
  H        2.0935470     1.1833990     1.5571020
  H        3.4676080     1.0418550     0.4271840
  H        2.6734620    -0.4116070     1.0419720
units angstrom
no_reorient  #important for SAPT in psi4, default
symmetry c1  #important for SAPT in psi4, default
}

set PROPERTIES_ORIGIN ["COM"]
properties('MP2/aug-cc-pvtz', properties = ['dipole'])
--------------------------------------------------------------------------

    Molecular point group: c1
  Charge       = 0
  Multiplicity = 1
  Basis Set: AUG-CC-PVTZ
    Blend: AUG-CC-PVTZ
  Basis Set: (AUG-CC-PVTZ AUX)
    Blend: AUG-CC-PVTZ-JKFIT

    Orbital Energies [Eh]
    ---------------------

    Doubly Occupied:

       1A    -15.553857     2A    -11.258286     3A    -11.249601
       4A    -11.235966     5A    -11.231124     6A    -11.228423
       7A    -11.225464     8A    -11.224280     9A    -11.223049
      10A    -11.214688    11A     -1.226780    12A     -1.131304
      13A     -1.056025    14A     -1.013227    15A     -0.945368
      16A     -0.921936    17A     -0.891697    18A     -0.795020
      19A     -0.781076    20A     -0.692643    21A     -0.661248
      22A     -0.630217    23A     -0.604043    24A     -0.591598
      25A     -0.579982    26A     -0.567135    27A     -0.565178
      28A     -0.557555    29A     -0.552064    30A     -0.530672
      31A     -0.518626    32A     -0.487450    33A     -0.476490
      34A     -0.470218    35A     -0.402505    36A     -0.316800
      37A     -0.302713

  @DF-RHF Final Energy:  -402.96104374554903

   => Energetics <=

    Nuclear Repulsion Energy =            521.6751596529497874
    One-Electron Energy =               -1579.4437916833762756
    Two-Electron Energy =                 654.8075882848773972
    Total Energy =                       -402.9610437455490910
  Basis Set: (AUG-CC-PVTZ AUX)
    Blend: AUG-CC-PVTZ-RI
    Molecular point group: c1

    Geometry (in Angstrom), charge = 0, multiplicity = 1:

       Center              X                  Y                   Z               Mass
    ------------   -----------------  -----------------  -----------------  -----------------
         N            1.666932413741     0.622865669648    -0.460150351070    14.003074004430
         C            0.343198413741     0.162482669648    -0.197448351070    12.000000000000
         C           -0.730506586259     1.070005669648    -0.075018351070    12.000000000000
         C            0.120700413741    -1.226620330352    -0.105950351070    12.000000000000
         C           -2.017816586259     0.572105669648     0.150846648930    12.000000000000
         C           -1.177505586259    -1.685008330352     0.143416648930    12.000000000000
         C           -2.244942586259    -0.798114330352     0.271303648930    12.000000000000
         C           -0.500592586259     2.556531669648    -0.190054351070    12.000000000000
         C            1.232359613741    -2.192866530352    -0.297504051070    12.000000000000
         C            2.542396413741     0.627086669648     0.719002648930    12.000000000000
         H           -2.848469586259     1.269960669648     0.244317648930     1.007825032230
         H           -1.353679586259    -2.757508330352     0.212216648930     1.007825032230
         H            1.631733413741     1.564023669648    -0.844819351070     1.007825032230
         H           -3.249504586259    -1.172255330352     0.454250648930     1.007825032230
         H            0.275215413741     2.902488669648     0.501603648930     1.007825032230
         H           -0.197926586259     2.850465669648    -1.202580351070     1.007825032230
         H           -1.419444586259     3.100729669648     0.043100648930     1.007825032230
         H            1.981669413741    -1.799732330352    -1.000234351070     1.007825032230
         H            1.766556413741    -2.427886330352     0.639308648930     1.007825032230
         H            0.863857413741    -3.152387330352    -0.691806351070     1.007825032230
         H            2.133641413741     1.197302669648     1.566350648930     1.007825032230
         H            3.507702413741     1.055758669648     0.436432648930     1.007825032230
         H            2.713556413741    -0.397703330352     1.051220648930     1.007825032230

  Basis Set: AUG-CC-PVTZ
    Blend: AUG-CC-PVTZ
  Basis Set: (AUG-CC-PVTZ AUX)
    Blend: AUG-CC-PVTZ-JKFIT
	 Reference Energy          =    -402.9610437455490342 [Eh]
	 Singles Energy            =      -0.0000000000000000 [Eh]
	 Same-Spin Energy          =      -0.4482011588360291 [Eh]
	 Opposite-Spin Energy      =      -1.4661202053027103 [Eh]
	 Correlation Energy        =      -1.9143213641387393 [Eh]
	 Total Energy              =    -404.8753651096877775 [Eh]

	 ================> DF-SCS-MP2 Energies <==================
	-----------------------------------------------------------
	 SCS Same-Spin Scale       =       0.3333333333333333 [-]
	 SCS Opposite-Spin Scale   =       1.2000000000000000 [-]
	 SCS Same-Spin Energy      =      -0.1494003862786764 [Eh]
	 SCS Opposite-Spin Energy  =      -1.7593442463632523 [Eh]
	 SCS Correlation Energy    =      -1.9087446326419286 [Eh]
	 SCS Total Energy          =    -404.8697883781909468 [Eh]
	-----------------------------------------------------------

  Dipole Moment: [D]
     X:     0.5418      Y:     1.0732      Z:     0.5192     Total:     1.3096

*** Psi4 exiting successfully. Buy a developer a beer!
