                               Psi4 1.4a3.dev225

  ==> Input File <==

--------------------------------------------------------------------------
#psi4
#
memory 32 gb

molecule  {
0 1
  N        1.6268380     0.6089620    -0.4693990
  C        0.3031040     0.1485790    -0.2066970
  C       -0.7706010     1.0561020    -0.0842670
  C        0.0806060    -1.2405240    -0.1151990
  C       -2.0579110     0.5582020     0.1415980
  C       -1.2176000    -1.6989120     0.1341680
  C       -2.2850370    -0.8120180     0.2620550
  C       -0.5406870     2.5426280    -0.1993030
  C        1.2072340    -2.2197810    -0.3093320
  C        2.5023020     0.6131830     0.7097540
  H       -2.8122810     1.1919695     0.2264851
  H       -1.3937740    -2.7714120     0.2029680
  H        1.5916390     1.5501200    -0.8540680
  H       -3.2895990    -1.1861590     0.4450020
  H        0.2351210     2.8885850     0.4923550
  H       -0.2380210     2.8365620    -1.2118290
  H       -1.4595390     3.0868260     0.0338520
  H        1.9415750    -1.8136360    -1.0094830
  H        1.7264620    -2.4417900     0.6300600
  H        0.8237630    -3.1662910    -0.7010550
  H        2.0935470     1.1833990     1.5571020
  H        3.4676080     1.0418550     0.4271840
  H        2.6734620    -0.4116070     1.0419720
units angstrom
no_reorient  #important for SAPT in psi4, default
symmetry c1  #important for SAPT in psi4, default
}

set PROPERTIES_ORIGIN ["COM"]
properties('MP2/aug-cc-pvtz', properties = ['dipole'])
--------------------------------------------------------------------------

    Molecular point group: c1
  Charge       = 0
  Multiplicity = 1
  Basis Set: AUG-CC-PVTZ
    Blend: AUG-CC-PVTZ
  Basis Set: (AUG-CC-PVTZ AUX)
    Blend: AUG-CC-PVTZ-JKFIT

    Orbital Energies [Eh]
    ---------------------

    Doubly Occupied:

       1A    -15.553398     2A    -11.257479     3A    -11.249397
       4A    -11.234981     5A    -11.231690     6A    -11.228519
       7A    -11.223770     8A    -11.222337     9A    -11.213857
      10A    -11.212744    11A     -1.226158    12A     -1.131254
      13A     -1.055317    14A     -1.012833    15A     -0.945356
      16A     -0.925718    17A     -0.892099    18A     -0.794623
      19A     -0.787640    20A     -0.695466    21A     -0.665529
      22A     -0.629069    23A     -0.605276    24A     -0.591423
      25A     -0.582503    26A     -0.569395    27A     -0.565315
      28A     -0.557918    29A     -0.555902    30A     -0.530385
      31A     -0.521077    32A     -0.486990    33A     -0.476609
      34A     -0.470470    35A     -0.402279    36A     -0.316618
      37A     -0.302229

  @DF-RHF Final Energy:  -402.95606955240567

   => Energetics <=

    Nuclear Repulsion Energy =            521.8690610382216164
    One-Electron Energy =               -1579.8030207994070224
    Two-Electron Energy =                 654.9778902087797405
    Total Energy =                       -402.9560695524056655
  Basis Set: (AUG-CC-PVTZ AUX)
    Blend: AUG-CC-PVTZ-RI
    Molecular point group: c1

    Geometry (in Angstrom), charge = 0, multiplicity = 1:

       Center              X                  Y                   Z               Mass
    ------------   -----------------  -----------------  -----------------  -----------------
         N            1.665033846717     0.624499353926    -0.459857225515    14.003074004430
         C            0.341299846717     0.164116353926    -0.197155225515    12.000000000000
         C           -0.732405153283     1.071639353926    -0.074725225515    12.000000000000
         C            0.118801846717    -1.224986646074    -0.105657225515    12.000000000000
         C           -2.019715153283     0.573739353926     0.151139774485    12.000000000000
         C           -1.179404153283    -1.683374646074     0.143709774485    12.000000000000
         C           -2.246841153283    -0.796480646074     0.271596774485    12.000000000000
         C           -0.502491153283     2.558165353926    -0.189761225515    12.000000000000
         C            1.245429846717    -2.204243646074    -0.299790225515    12.000000000000
         C            2.540497846717     0.628720353926     0.719295774485    12.000000000000
         H           -2.774085153283     1.207506853926     0.236026874485     1.007825032230
         H           -1.355578153283    -2.755874646074     0.212509774485     1.007825032230
         H            1.629834846717     1.565657353926    -0.844526225515     1.007825032230
         H           -3.251403153283    -1.170621646074     0.454543774485     1.007825032230
         H            0.273316846717     2.904122353926     0.501896774485     1.007825032230
         H           -0.199825153283     2.852099353926    -1.202287225515     1.007825032230
         H           -1.421343153283     3.102363353926     0.043393774485     1.007825032230
         H            1.979770846717    -1.798098646074    -0.999941225515     1.007825032230
         H            1.764657846717    -2.426252646074     0.639601774485     1.007825032230
         H            0.861958846717    -3.150753646074    -0.691513225515     1.007825032230
         H            2.131742846717     1.198936353926     1.566643774485     1.007825032230
         H            3.505803846717     1.057392353926     0.436725774485     1.007825032230
         H            2.711657846717    -0.396069646074     1.051513774485     1.007825032230

  Basis Set: AUG-CC-PVTZ
    Blend: AUG-CC-PVTZ
  Basis Set: (AUG-CC-PVTZ AUX)
    Blend: AUG-CC-PVTZ-JKFIT
	 Reference Energy          =    -402.9560695524056655 [Eh]
	 Singles Energy            =      -0.0000000000000000 [Eh]
	 Same-Spin Energy          =      -0.4478044792666624 [Eh]
	 Opposite-Spin Energy      =      -1.4653524770115092 [Eh]
	 Correlation Energy        =      -1.9131569562781716 [Eh]
	 Total Energy              =    -404.8692265086838233 [Eh]

	 ================> DF-SCS-MP2 Energies <==================
	-----------------------------------------------------------
	 SCS Same-Spin Scale       =       0.3333333333333333 [-]
	 SCS Opposite-Spin Scale   =       1.2000000000000000 [-]
	 SCS Same-Spin Energy      =      -0.1492681597555541 [Eh]
	 SCS Opposite-Spin Energy  =      -1.7584229724138110 [Eh]
	 SCS Correlation Energy    =      -1.9076911321693650 [Eh]
	 SCS Total Energy          =    -404.8637606845750270 [Eh]
	-----------------------------------------------------------

  Dipole Moment: [D]
     X:     0.5046      Y:     1.1004      Z:     0.5228     Total:     1.3187

*** Psi4 exiting successfully. Buy a developer a beer!
