                               Psi4 1.4a3.dev225

  ==> Input File <==

--------------------------------------------------------------------------
#psi4
#
memory 32 gb

molecule  {
0 1
  N        1.6268380     0.6089620    -0.4693990
  C        0.2697078     0.2359417    -0.2407291
  C       -0.7706010     1.0561020    -0.0842670
  C        0.0806060    -1.2405240    -0.1151990
  C       -2.0579110     0.5582020     0.1415980
  C       -1.2176000    -1.6989120     0.1341680
  C       -2.2850370    -0.8120180     0.2620550
  C       -0.5406870     2.5426280    -0.1993030
  C        1.2072340    -2.2197810    -0.3093320
  C        2.5023020     0.6131830     0.7097540
  H       -2.8885640     1.2560570     0.2350690
  H       -1.3937740    -2.7714120     0.2029680
  H        1.5916390     1.5501200    -0.8540680
  H       -3.2895990    -1.1861590     0.4450020
  H        0.2351210     2.8885850     0.4923550
  H       -0.2380210     2.8365620    -1.2118290
  H       -1.4595390     3.0868260     0.0338520
  H        1.9415750    -1.8136360    -1.0094830
  H        1.7264620    -2.4417900     0.6300600
  H        0.8237630    -3.1662910    -0.7010550
  H        2.0935470     1.1833990     1.5571020
  H        3.4676080     1.0418550     0.4271840
  H        2.6734620    -0.4116070     1.0419720
units angstrom
no_reorient  #important for SAPT in psi4, default
symmetry c1  #important for SAPT in psi4, default
}

set PROPERTIES_ORIGIN ["COM"]
properties('MP2/aug-cc-pvtz', properties = ['dipole'])
--------------------------------------------------------------------------

    Molecular point group: c1
  Charge       = 0
  Multiplicity = 1
  Basis Set: AUG-CC-PVTZ
    Blend: AUG-CC-PVTZ
  Basis Set: (AUG-CC-PVTZ AUX)
    Blend: AUG-CC-PVTZ-JKFIT

    Orbital Energies [Eh]
    ---------------------

    Doubly Occupied:

       1A    -15.554776     2A    -11.257065     3A    -11.251225
       4A    -11.239946     5A    -11.226795     6A    -11.226201
       7A    -11.225436     8A    -11.224353     9A    -11.221349
      10A    -11.215389    11A     -1.227684    12A     -1.131599
      13A     -1.055494    14A     -1.011542    15A     -0.946329
      16A     -0.922366    17A     -0.893335    18A     -0.793177
      19A     -0.781771    20A     -0.689143    21A     -0.663623
      22A     -0.624742    23A     -0.606431    24A     -0.593474
      25A     -0.578987    26A     -0.569127    27A     -0.563977
      28A     -0.556316    29A     -0.551493    30A     -0.530308
      31A     -0.521759    32A     -0.490381    33A     -0.472808
      34A     -0.461454    35A     -0.406519    36A     -0.322672
      37A     -0.298440

  @DF-RHF Final Energy:  -402.95039670913741

   => Energetics <=

    Nuclear Repulsion Energy =            521.2254028770857985
    One-Electron Energy =               -1578.5366276200295488
    Two-Electron Energy =                 654.3608280338063423
    Total Energy =                       -402.9503967091374079
  Basis Set: (AUG-CC-PVTZ AUX)
    Blend: AUG-CC-PVTZ-RI
    Molecular point group: c1

    Geometry (in Angstrom), charge = 0, multiplicity = 1:

       Center              X                  Y                   Z               Mass
    ------------   -----------------  -----------------  -----------------  -----------------
         N            1.668569134279     0.616261738449    -0.456898528767    14.003074004430
         C            0.311438934279     0.243241438449    -0.228228628767    12.000000000000
         C           -0.728869865721     1.063401738449    -0.071766528767    12.000000000000
         C            0.122337134279    -1.233224261551    -0.102698528767    12.000000000000
         C           -2.016179865721     0.565501738449     0.154098471233    12.000000000000
         C           -1.175868865721    -1.691612261551     0.146668471233    12.000000000000
         C           -2.243305865721    -0.804718261551     0.274555471233    12.000000000000
         C           -0.498955865721     2.549927738449    -0.186802528767    12.000000000000
         C            1.248965134279    -2.212481261551    -0.296831528767    12.000000000000
         C            2.544033134279     0.620482738449     0.722254471233    12.000000000000
         H           -2.846832865721     1.263356738449     0.247569471233     1.007825032230
         H           -1.352042865721    -2.764112261551     0.215468471233     1.007825032230
         H            1.633370134279     1.557419738449    -0.841567528767     1.007825032230
         H           -3.247867865721    -1.178859261551     0.457502471233     1.007825032230
         H            0.276852134279     2.895884738449     0.504855471233     1.007825032230
         H           -0.196289865721     2.843861738449    -1.199328528767     1.007825032230
         H           -1.417807865721     3.094125738449     0.046352471233     1.007825032230
         H            1.983306134279    -1.806336261551    -0.996982528767     1.007825032230
         H            1.768193134279    -2.434490261551     0.642560471233     1.007825032230
         H            0.865494134279    -3.158991261551    -0.688554528767     1.007825032230
         H            2.135278134279     1.190698738449     1.569602471233     1.007825032230
         H            3.509339134279     1.049154738449     0.439684471233     1.007825032230
         H            2.715193134279    -0.404307261551     1.054472471233     1.007825032230

  Basis Set: AUG-CC-PVTZ
    Blend: AUG-CC-PVTZ
  Basis Set: (AUG-CC-PVTZ AUX)
    Blend: AUG-CC-PVTZ-JKFIT
	 Reference Energy          =    -402.9503967091374079 [Eh]
	 Singles Energy            =      -0.0000000000000000 [Eh]
	 Same-Spin Energy          =      -0.4477962725795834 [Eh]
	 Opposite-Spin Energy      =      -1.4664210979785792 [Eh]
	 Correlation Energy        =      -1.9142173705581627 [Eh]
	 Total Energy              =    -404.8646140796955706 [Eh]

	 ================> DF-SCS-MP2 Energies <==================
	-----------------------------------------------------------
	 SCS Same-Spin Scale       =       0.3333333333333333 [-]
	 SCS Opposite-Spin Scale   =       1.2000000000000000 [-]
	 SCS Same-Spin Energy      =      -0.1492654241931945 [Eh]
	 SCS Opposite-Spin Energy  =      -1.7597053175742949 [Eh]
	 SCS Correlation Energy    =      -1.9089707417674895 [Eh]
	 SCS Total Energy          =    -404.8593674509048697 [Eh]
	-----------------------------------------------------------

  Dipole Moment: [D]
     X:     0.5844      Y:     1.0496      Z:     0.5474     Total:     1.3202

*** Psi4 exiting successfully. Buy a developer a beer!
