                               Psi4 1.4a3.dev225

  ==> Input File <==

--------------------------------------------------------------------------
#psi4
#
memory 32 gb

molecule  {
0 1
  N        1.6268380     0.6089620    -0.4693990
  C        0.3031040     0.1485790    -0.2066970
  C       -0.7706010     1.0561020    -0.0842670
  C        0.0806060    -1.2405240    -0.1151990
  C       -2.0579110     0.5582020     0.1415980
  C       -1.2176000    -1.6989120     0.1341680
  C       -2.2850370    -0.8120180     0.2620550
  C       -0.5406870     2.5426280    -0.1993030
  C        1.2072340    -2.2197810    -0.3093320
  C        2.5023020     0.6131830     0.7097540
  H       -2.8885640     1.2560570     0.2350690
  H       -1.3937740    -2.7714120     0.2029680
  H        1.5916390     1.5501200    -0.8540680
  H       -3.2895990    -1.1861590     0.4450020
  H        0.1719570     2.8430070     0.5764972
  H       -0.2380210     2.8365620    -1.2118290
  H       -1.4595390     3.0868260     0.0338520
  H        1.9415750    -1.8136360    -1.0094830
  H        1.7264620    -2.4417900     0.6300600
  H        0.8237630    -3.1662910    -0.7010550
  H        2.0935470     1.1833990     1.5571020
  H        3.4676080     1.0418550     0.4271840
  H        2.6734620    -0.4116070     1.0419720
units angstrom
no_reorient  #important for SAPT in psi4, default
symmetry c1  #important for SAPT in psi4, default
}

set PROPERTIES_ORIGIN ["COM"]
properties('MP2/aug-cc-pvtz', properties = ['dipole'])
--------------------------------------------------------------------------

    Molecular point group: c1
  Charge       = 0
  Multiplicity = 1
  Basis Set: AUG-CC-PVTZ
    Blend: AUG-CC-PVTZ
  Basis Set: (AUG-CC-PVTZ AUX)
    Blend: AUG-CC-PVTZ-JKFIT

    Orbital Energies [Eh]
    ---------------------

    Doubly Occupied:

       1A    -15.553488     2A    -11.257887     3A    -11.249536
       4A    -11.235143     5A    -11.231868     6A    -11.228340
       7A    -11.224906     8A    -11.223819     9A    -11.222686
      10A    -11.213998    11A     -1.226313    12A     -1.130607
      13A     -1.054557    14A     -1.012350    15A     -0.945326
      16A     -0.921663    17A     -0.891790    18A     -0.793924
      19A     -0.780993    20A     -0.691515    21A     -0.660403
      22A     -0.628592    23A     -0.605369    24A     -0.593274
      25A     -0.579384    26A     -0.569872    27A     -0.568685
      28A     -0.553380    29A     -0.552082    30A     -0.530540
      31A     -0.517779    32A     -0.485114    33A     -0.475490
      34A     -0.470957    35A     -0.402232    36A     -0.316995
      37A     -0.302561

  @DF-RHF Final Energy:  -402.96048528605729

   => Energetics <=

    Nuclear Repulsion Energy =            521.3782020689242245
    One-Electron Energy =               -1578.8705389975759772
    Two-Electron Energy =                 654.5318516425943471
    Total Energy =                       -402.9604852860572919
  Basis Set: (AUG-CC-PVTZ AUX)
    Blend: AUG-CC-PVTZ-RI
    Molecular point group: c1

    Geometry (in Angstrom), charge = 0, multiplicity = 1:

       Center              X                  Y                   Z               Mass
    ------------   -----------------  -----------------  -----------------  -----------------
         N            1.666074062741     0.624361280834    -0.460548923257    14.003074004430
         C            0.342340062741     0.163978280834    -0.197846923257    12.000000000000
         C           -0.731364937259     1.071501280834    -0.075416923257    12.000000000000
         C            0.119842062741    -1.225124719166    -0.106348923257    12.000000000000
         C           -2.018674937259     0.573601280834     0.150448076743    12.000000000000
         C           -1.178363937259    -1.683512719166     0.143018076743    12.000000000000
         C           -2.245800937259    -0.796618719166     0.270905076743    12.000000000000
         C           -0.501450937259     2.558027280834    -0.190452923257    12.000000000000
         C            1.246470062741    -2.204381719166    -0.300481923257    12.000000000000
         C            2.541538062741     0.628582280834     0.718604076743    12.000000000000
         H           -2.849327937259     1.271456280834     0.243919076743     1.007825032230
         H           -1.354537937259    -2.756012719166     0.211818076743     1.007825032230
         H            1.630875062741     1.565519280834    -0.845217923257     1.007825032230
         H           -3.250362937259    -1.170759719166     0.453852076743     1.007825032230
         H            0.211193062741     2.858406280834     0.585347276743     1.007825032230
         H           -0.198784937259     2.851961280834    -1.202978923257     1.007825032230
         H           -1.420302937259     3.102225280834     0.042702076743     1.007825032230
         H            1.980811062741    -1.798236719166    -1.000632923257     1.007825032230
         H            1.765698062741    -2.426390719166     0.638910076743     1.007825032230
         H            0.862999062741    -3.150891719166    -0.692204923257     1.007825032230
         H            2.132783062741     1.198798280834     1.565952076743     1.007825032230
         H            3.506844062741     1.057254280834     0.436034076743     1.007825032230
         H            2.712698062741    -0.396207719166     1.050822076743     1.007825032230

  Basis Set: AUG-CC-PVTZ
    Blend: AUG-CC-PVTZ
  Basis Set: (AUG-CC-PVTZ AUX)
    Blend: AUG-CC-PVTZ-JKFIT
	 Reference Energy          =    -402.9604852860572919 [Eh]
	 Singles Energy            =      -0.0000000000000000 [Eh]
	 Same-Spin Energy          =      -0.4480420868589733 [Eh]
	 Opposite-Spin Energy      =      -1.4660642148641392 [Eh]
	 Correlation Energy        =      -1.9141063017231126 [Eh]
	 Total Energy              =    -404.8745915877804009 [Eh]

	 ================> DF-SCS-MP2 Energies <==================
	-----------------------------------------------------------
	 SCS Same-Spin Scale       =       0.3333333333333333 [-]
	 SCS Opposite-Spin Scale   =       1.2000000000000000 [-]
	 SCS Same-Spin Energy      =      -0.1493473622863244 [Eh]
	 SCS Opposite-Spin Energy  =      -1.7592770578369670 [Eh]
	 SCS Correlation Energy    =      -1.9086244201232914 [Eh]
	 SCS Total Energy          =    -404.8691097061806090 [Eh]
	-----------------------------------------------------------

  Dipole Moment: [D]
     X:     0.5157      Y:     1.0834      Z:     0.5355     Total:     1.3139

*** Psi4 exiting successfully. Buy a developer a beer!
