                               Psi4 1.4a3.dev225

  ==> Input File <==

--------------------------------------------------------------------------
#psi4
#
memory 32 gb

molecule  {
0 1
  N        1.6268380     0.6089620    -0.4693990
  C        0.3031040     0.1485790    -0.2066970
  C       -0.6184298     0.9274830    -0.1016184
  C        0.0806060    -1.2405240    -0.1151990
  C       -2.0579110     0.5582020     0.1415980
  C       -1.2176000    -1.6989120     0.1341680
  C       -2.2850370    -0.8120180     0.2620550
  C       -0.5406870     2.5426280    -0.1993030
  C        1.2072340    -2.2197810    -0.3093320
  C        2.5023020     0.6131830     0.7097540
  H       -2.8885640     1.2560570     0.2350690
  H       -1.3937740    -2.7714120     0.2029680
  H        1.5916390     1.5501200    -0.8540680
  H       -3.2895990    -1.1861590     0.4450020
  H        0.2351210     2.8885850     0.4923550
  H       -0.2380210     2.8365620    -1.2118290
  H       -1.4595390     3.0868260     0.0338520
  H        1.9415750    -1.8136360    -1.0094830
  H        1.7264620    -2.4417900     0.6300600
  H        0.8237630    -3.1662910    -0.7010550
  H        2.0935470     1.1833990     1.5571020
  H        3.4676080     1.0418550     0.4271840
  H        2.6734620    -0.4116070     1.0419720
units angstrom
no_reorient  #important for SAPT in psi4, default
symmetry c1  #important for SAPT in psi4, default
}

set PROPERTIES_ORIGIN ["COM"]
properties('MP2/aug-cc-pvtz', properties = ['dipole'])
--------------------------------------------------------------------------

    Molecular point group: c1
  Charge       = 0
  Multiplicity = 1
  Basis Set: AUG-CC-PVTZ
    Blend: AUG-CC-PVTZ
  Basis Set: (AUG-CC-PVTZ AUX)
    Blend: AUG-CC-PVTZ-JKFIT

    Orbital Energies [Eh]
    ---------------------

    Doubly Occupied:

       1A    -15.549488     2A    -11.248238     3A    -11.236726
       4A    -11.233846     5A    -11.232258     6A    -11.230994
       7A    -11.226036     8A    -11.224902     9A    -11.221304
      10A    -11.215150    11A     -1.236555    12A     -1.133762
      13A     -1.045255    14A     -1.021181    15A     -0.948990
      16A     -0.912635    17A     -0.898024    18A     -0.806114
      19A     -0.780661    20A     -0.688364    21A     -0.664791
      22A     -0.624551    23A     -0.602915    24A     -0.593203
      25A     -0.586431    26A     -0.569660    27A     -0.560565
      28A     -0.551794    29A     -0.542799    30A     -0.531639
      31A     -0.522429    32A     -0.495513    33A     -0.479743
      34A     -0.439328    35A     -0.403376    36A     -0.334045
      37A     -0.302559

  @DF-RHF Final Energy:  -402.90607867218000

   => Energetics <=

    Nuclear Repulsion Energy =            523.6872665465131149
    One-Electron Energy =               -1583.3950435880085479
    Two-Electron Energy =                 656.8016983693153179
    Total Energy =                       -402.9060786721800014
  Basis Set: (AUG-CC-PVTZ AUX)
    Blend: AUG-CC-PVTZ-RI
    Molecular point group: c1

    Geometry (in Angstrom), charge = 0, multiplicity = 1:

       Center              X                  Y                   Z               Mass
    ------------   -----------------  -----------------  -----------------  -----------------
         N            1.652087049190     0.635445219799    -0.458380107518    14.003074004430
         C            0.328353049190     0.175062219799    -0.195678107518    12.000000000000
         C           -0.593180750810     0.953966219799    -0.090599507518    12.000000000000
         C            0.105855049190    -1.214040780201    -0.104180107518    12.000000000000
         C           -2.032661950810     0.584685219799     0.152616892482    12.000000000000
         C           -1.192350950810    -1.672428780201     0.145186892482    12.000000000000
         C           -2.259787950810    -0.785534780201     0.273073892482    12.000000000000
         C           -0.515437950810     2.569111219799    -0.188284107518    12.000000000000
         C            1.232483049190    -2.193297780201    -0.298313107518    12.000000000000
         C            2.527551049190     0.639666219799     0.720772892482    12.000000000000
         H           -2.863314950810     1.282540219799     0.246087892482     1.007825032230
         H           -1.368524950810    -2.744928780201     0.213986892482     1.007825032230
         H            1.616888049190     1.576603219799    -0.843049107518     1.007825032230
         H           -3.264349950810    -1.159675780201     0.456020892482     1.007825032230
         H            0.260370049190     2.915068219799     0.503373892482     1.007825032230
         H           -0.212771950810     2.863045219799    -1.200810107518     1.007825032230
         H           -1.434289950810     3.113309219799     0.044870892482     1.007825032230
         H            1.966824049190    -1.787152780201    -0.998464107518     1.007825032230
         H            1.751711049190    -2.415306780201     0.641078892482     1.007825032230
         H            0.849012049190    -3.139807780201    -0.690036107518     1.007825032230
         H            2.118796049190     1.209882219799     1.568120892482     1.007825032230
         H            3.492857049190     1.068338219799     0.438202892482     1.007825032230
         H            2.698711049190    -0.385123780201     1.052990892482     1.007825032230

  Basis Set: AUG-CC-PVTZ
    Blend: AUG-CC-PVTZ
  Basis Set: (AUG-CC-PVTZ AUX)
    Blend: AUG-CC-PVTZ-JKFIT
	 Reference Energy          =    -402.9060786721800014 [Eh]
	 Singles Energy            =      -0.0000000000000000 [Eh]
	 Same-Spin Energy          =      -0.4463232538441548 [Eh]
	 Opposite-Spin Energy      =      -1.4663293624203044 [Eh]
	 Correlation Energy        =      -1.9126526162644593 [Eh]
	 Total Energy              =    -404.8187312884444395 [Eh]

	 ================> DF-SCS-MP2 Energies <==================
	-----------------------------------------------------------
	 SCS Same-Spin Scale       =       0.3333333333333333 [-]
	 SCS Opposite-Spin Scale   =       1.2000000000000000 [-]
	 SCS Same-Spin Energy      =      -0.1487744179480516 [Eh]
	 SCS Opposite-Spin Energy  =      -1.7595952349043653 [Eh]
	 SCS Correlation Energy    =      -1.9083696528524170 [Eh]
	 SCS Total Energy          =    -404.8144483250324015 [Eh]
	-----------------------------------------------------------

  Dipole Moment: [D]
     X:     0.3353      Y:     0.9114      Z:     0.5596     Total:     1.1208

*** Psi4 exiting successfully. Buy a developer a beer!
