                               Psi4 1.4a3.dev225

  ==> Input File <==

--------------------------------------------------------------------------
#psi4
#
memory 32 gb

molecule  {
0 1
  N        1.6268380     0.6089620    -0.4693990
  C        0.3031040     0.1485790    -0.2066970
  C       -0.7706010     1.0561020    -0.0842670
  C        0.0806060    -1.2405240    -0.1151990
  C       -2.0579110     0.5582020     0.1415980
  C       -1.2176000    -1.6989120     0.1341680
  C       -2.2850370    -0.8120180     0.2620550
  C       -0.5406870     2.5426280    -0.1993030
  C        1.2072340    -2.2197810    -0.3093320
  C        2.5023020     0.6131830     0.7097540
  H       -2.8885640     1.2560570     0.2350690
  H       -1.3937740    -2.7714120     0.2029680
  H        1.5916390     1.5501200    -0.8540680
  H       -3.2895990    -1.1861590     0.4450020
  H        0.2351210     2.8885850     0.4923550
  H       -0.2380210     2.8365620    -1.2118290
  H       -1.4595390     3.0868260     0.0338520
  H        1.8853842    -1.8075126    -1.0607100
  H        1.7264620    -2.4417900     0.6300600
  H        0.8237630    -3.1662910    -0.7010550
  H        2.0935470     1.1833990     1.5571020
  H        3.4676080     1.0418550     0.4271840
  H        2.6734620    -0.4116070     1.0419720
units angstrom
no_reorient  #important for SAPT in psi4, default
symmetry c1  #important for SAPT in psi4, default
}

set PROPERTIES_ORIGIN ["COM"]
properties('MP2/aug-cc-pvtz', properties = ['dipole'])
--------------------------------------------------------------------------

    Molecular point group: c1
  Charge       = 0
  Multiplicity = 1
  Basis Set: AUG-CC-PVTZ
    Blend: AUG-CC-PVTZ
  Basis Set: (AUG-CC-PVTZ AUX)
    Blend: AUG-CC-PVTZ-JKFIT

    Orbital Energies [Eh]
    ---------------------

    Doubly Occupied:

       1A    -15.553756     2A    -11.258117     3A    -11.249450
       4A    -11.235830     5A    -11.231520     6A    -11.228343
       7A    -11.225261     8A    -11.224025     9A    -11.222720
      10A    -11.214039    11A     -1.226499    12A     -1.130725
      13A     -1.054471    14A     -1.012462    15A     -0.945213
      16A     -0.921953    17A     -0.891922    18A     -0.794516
      19A     -0.780739    20A     -0.692449    21A     -0.659996
      22A     -0.629614    23A     -0.603577    24A     -0.591345
      25A     -0.578414    26A     -0.572476    27A     -0.565622
      28A     -0.556679    29A     -0.551574    30A     -0.530738
      31A     -0.519050    32A     -0.483976    33A     -0.476697
      34A     -0.471191    35A     -0.402316    36A     -0.317149
      37A     -0.302723

  @DF-RHF Final Energy:  -402.96113959354489

   => Energetics <=

    Nuclear Repulsion Energy =            521.3548424909457708
    One-Electron Energy =               -1578.8176684521768038
    Two-Electron Energy =                 654.5016863676860339
    Total Energy =                       -402.9611395935448854
  Basis Set: (AUG-CC-PVTZ AUX)
    Blend: AUG-CC-PVTZ-RI
    Molecular point group: c1

    Geometry (in Angstrom), charge = 0, multiplicity = 1:

       Center              X                  Y                   Z               Mass
    ------------   -----------------  -----------------  -----------------  -----------------
         N            1.666022045599     0.623975610115    -0.459539125908    14.003074004430
         C            0.342288045599     0.163592610115    -0.196837125908    12.000000000000
         C           -0.731416954401     1.071115610115    -0.074407125908    12.000000000000
         C            0.119790045599    -1.225510389885    -0.105339125908    12.000000000000
         C           -2.018726954401     0.573215610115     0.151457874092    12.000000000000
         C           -1.178415954401    -1.683898389885     0.144027874092    12.000000000000
         C           -2.245852954401    -0.797004389885     0.271914874092    12.000000000000
         C           -0.501502954401     2.557641610115    -0.189443125908    12.000000000000
         C            1.246418045599    -2.204767389885    -0.299472125908    12.000000000000
         C            2.541486045599     0.628196610115     0.719613874092    12.000000000000
         H           -2.849379954401     1.271070610115     0.244928874092     1.007825032230
         H           -1.354589954401    -2.756398389885     0.212827874092     1.007825032230
         H            1.630823045599     1.565133610115    -0.844208125908     1.007825032230
         H           -3.250414954401    -1.171145389885     0.454861874092     1.007825032230
         H            0.274305045599     2.903598610115     0.502214874092     1.007825032230
         H           -0.198836954401     2.851575610115    -1.201969125908     1.007825032230
         H           -1.420354954401     3.101839610115     0.043711874092     1.007825032230
         H            1.924568245599    -1.792498989885    -1.050850125908     1.007825032230
         H            1.765646045599    -2.426776389885     0.639919874092     1.007825032230
         H            0.862947045599    -3.151277389885    -0.691195125908     1.007825032230
         H            2.132731045599     1.198412610115     1.566961874092     1.007825032230
         H            3.506792045599     1.056868610115     0.437043874092     1.007825032230
         H            2.712646045599    -0.396593389885     1.051831874092     1.007825032230

  Basis Set: AUG-CC-PVTZ
    Blend: AUG-CC-PVTZ
  Basis Set: (AUG-CC-PVTZ AUX)
    Blend: AUG-CC-PVTZ-JKFIT
	 Reference Energy          =    -402.9611395935448854 [Eh]
	 Singles Energy            =      -0.0000000000000000 [Eh]
	 Same-Spin Energy          =      -0.4480143522417124 [Eh]
	 Opposite-Spin Energy      =      -1.4659983454270600 [Eh]
	 Correlation Energy        =      -1.9140126976687724 [Eh]
	 Total Energy              =    -404.8751522912136807 [Eh]

	 ================> DF-SCS-MP2 Energies <==================
	-----------------------------------------------------------
	 SCS Same-Spin Scale       =       0.3333333333333333 [-]
	 SCS Opposite-Spin Scale   =       1.2000000000000000 [-]
	 SCS Same-Spin Energy      =      -0.1493381174139041 [Eh]
	 SCS Opposite-Spin Energy  =      -1.7591980145124719 [Eh]
	 SCS Correlation Energy    =      -1.9085361319263761 [Eh]
	 SCS Total Energy          =    -404.8696757254712679 [Eh]
	-----------------------------------------------------------

  Dipole Moment: [D]
     X:     0.5249      Y:     1.0657      Z:     0.5084     Total:     1.2922

*** Psi4 exiting successfully. Buy a developer a beer!
