                               Psi4 1.4a3.dev225

  ==> Input File <==

--------------------------------------------------------------------------
#psi4
#
memory 32 gb

molecule  {
0 1
  N        1.6268380     0.6089620    -0.4693990
  C        0.3031040     0.1485790    -0.2066970
  C       -0.7706010     1.0561020    -0.0842670
  C        0.0806060    -1.2405240    -0.1151990
  C       -2.0579110     0.5582020     0.1415980
  C       -1.2176000    -1.6989120     0.1341680
  C       -2.2850370    -0.8120180     0.2620550
  C       -0.5406870     2.5426280    -0.1993030
  C        1.2072340    -2.2197810    -0.3093320
  C        2.5023020     0.6131830     0.7097540
  H       -2.8885640     1.2560570     0.2350690
  H       -1.3937740    -2.7714120     0.2029680
  H        1.5847192     1.7351427    -0.9296903
  H       -3.2895990    -1.1861590     0.4450020
  H        0.2351210     2.8885850     0.4923550
  H       -0.2380210     2.8365620    -1.2118290
  H       -1.4595390     3.0868260     0.0338520
  H        1.9415750    -1.8136360    -1.0094830
  H        1.7264620    -2.4417900     0.6300600
  H        0.8237630    -3.1662910    -0.7010550
  H        2.0935470     1.1833990     1.5571020
  H        3.4676080     1.0418550     0.4271840
  H        2.6734620    -0.4116070     1.0419720
units angstrom
no_reorient  #important for SAPT in psi4, default
symmetry c1  #important for SAPT in psi4, default
}

set PROPERTIES_ORIGIN ["COM"]
properties('MP2/aug-cc-pvtz', properties = ['dipole'])
--------------------------------------------------------------------------

    Molecular point group: c1
  Charge       = 0
  Multiplicity = 1
  Basis Set: AUG-CC-PVTZ
    Blend: AUG-CC-PVTZ
  Basis Set: (AUG-CC-PVTZ AUX)
    Blend: AUG-CC-PVTZ-JKFIT

    Orbital Energies [Eh]
    ---------------------

    Doubly Occupied:

       1A    -15.571899     2A    -11.259103     3A    -11.250055
       4A    -11.235724     5A    -11.232660     6A    -11.228386
       7A    -11.225393     8A    -11.224299     9A    -11.223209
      10A    -11.214369    11A     -1.213571    12A     -1.126910
      13A     -1.054419    14A     -1.011384    15A     -0.945326
      16A     -0.921864    17A     -0.883333    18A     -0.786342
      19A     -0.780484    20A     -0.678869    21A     -0.660109
      22A     -0.625464    23A     -0.601582    24A     -0.587904
      25A     -0.578643    26A     -0.565771    27A     -0.564359
      28A     -0.557270    29A     -0.551302    30A     -0.521697
      31A     -0.520755    32A     -0.484088    33A     -0.474376
      34A     -0.468866    35A     -0.398569    36A     -0.317226
      37A     -0.302350

  @DF-RHF Final Energy:  -402.93222445871493

   => Energetics <=

    Nuclear Repulsion Energy =            520.3257939380094967
    One-Electron Energy =               -1576.8201748980925458
    Two-Electron Energy =                 653.5621565013682357
    Total Energy =                       -402.9322244587149271
  Basis Set: (AUG-CC-PVTZ AUX)
    Blend: AUG-CC-PVTZ-RI
    Molecular point group: c1

    Geometry (in Angstrom), charge = 0, multiplicity = 1:

       Center              X                  Y                   Z               Mass
    ------------   -----------------  -----------------  -----------------  -----------------
         N            1.665654504643     0.622641096511    -0.459357147221    14.003074004430
         C            0.341920504643     0.162258096511    -0.196655147221    12.000000000000
         C           -0.731784495357     1.069781096511    -0.074225147221    12.000000000000
         C            0.119422504643    -1.226844903489    -0.105157147221    12.000000000000
         C           -2.019094495357     0.571881096511     0.151639852779    12.000000000000
         C           -1.178783495357    -1.685232903489     0.144209852779    12.000000000000
         C           -2.246220495357    -0.798338903489     0.272096852779    12.000000000000
         C           -0.501870495357     2.556307096511    -0.189261147221    12.000000000000
         C            1.246050504643    -2.206101903489    -0.299290147221    12.000000000000
         C            2.541118504643     0.626862096511     0.719795852779    12.000000000000
         H           -2.849747495357     1.269736096511     0.245110852779     1.007825032230
         H           -1.354957495357    -2.757732903489     0.213009852779     1.007825032230
         H            1.623535704643     1.748821796511    -0.919648447221     1.007825032230
         H           -3.250782495357    -1.172479903489     0.455043852779     1.007825032230
         H            0.273937504643     2.902264096511     0.502396852779     1.007825032230
         H           -0.199204495357     2.850241096511    -1.201787147221     1.007825032230
         H           -1.420722495357     3.100505096511     0.043893852779     1.007825032230
         H            1.980391504643    -1.799956903489    -0.999441147221     1.007825032230
         H            1.765278504643    -2.428110903489     0.640101852779     1.007825032230
         H            0.862579504643    -3.152611903489    -0.691013147221     1.007825032230
         H            2.132363504643     1.197078096511     1.567143852779     1.007825032230
         H            3.506424504643     1.055534096511     0.437225852779     1.007825032230
         H            2.712278504643    -0.397927903489     1.052013852779     1.007825032230

  Basis Set: AUG-CC-PVTZ
    Blend: AUG-CC-PVTZ
  Basis Set: (AUG-CC-PVTZ AUX)
    Blend: AUG-CC-PVTZ-JKFIT
	 Reference Energy          =    -402.9322244587149271 [Eh]
	 Singles Energy            =      -0.0000000000000000 [Eh]
	 Same-Spin Energy          =      -0.4496324879461975 [Eh]
	 Opposite-Spin Energy      =      -1.4706767140926567 [Eh]
	 Correlation Energy        =      -1.9203092020388541 [Eh]
	 Total Energy              =    -404.8525336607538065 [Eh]

	 ================> DF-SCS-MP2 Energies <==================
	-----------------------------------------------------------
	 SCS Same-Spin Scale       =       0.3333333333333333 [-]
	 SCS Opposite-Spin Scale   =       1.2000000000000000 [-]
	 SCS Same-Spin Energy      =      -0.1498774959820658 [Eh]
	 SCS Opposite-Spin Energy  =      -1.7648120569111880 [Eh]
	 SCS Correlation Energy    =      -1.9146895528932539 [Eh]
	 SCS Total Energy          =    -404.8469140116081917 [Eh]
	-----------------------------------------------------------

  Dipole Moment: [D]
     X:     0.5197      Y:     1.1091      Z:     0.5141     Total:     1.3283

*** Psi4 exiting successfully. Buy a developer a beer!
