                               Psi4 1.4a3.dev225

  ==> Input File <==

--------------------------------------------------------------------------
#psi4
#
memory 32 gb

molecule  {
0 1
  N        1.6268380     0.6089620    -0.4693990
  C        0.2941434     0.1702258    -0.2150914
  C       -0.7706010     1.0561020    -0.0842670
  C        0.0806060    -1.2405240    -0.1151990
  C       -2.0579110     0.5582020     0.1415980
  C       -1.2176000    -1.6989120     0.1341680
  C       -2.2850370    -0.8120180     0.2620550
  C       -0.5406870     2.5426280    -0.1993030
  C        1.2072340    -2.2197810    -0.3093320
  C        2.5023020     0.6131830     0.7097540
  H       -2.8885640     1.2560570     0.2350690
  H       -1.3937740    -2.7714120     0.2029680
  H        1.5916390     1.5501200    -0.8540680
  H       -3.2895990    -1.1861590     0.4450020
  H        0.2351210     2.8885850     0.4923550
  H       -0.2380210     2.8365620    -1.2118290
  H       -1.4595390     3.0868260     0.0338520
  H        1.9415750    -1.8136360    -1.0094830
  H        1.7264620    -2.4417900     0.6300600
  H        0.8237630    -3.1662910    -0.7010550
  H        2.0935470     1.1833990     1.5571020
  H        3.4676080     1.0418550     0.4271840
  H        2.6734620    -0.4116070     1.0419720
units angstrom
no_reorient  #important for SAPT in psi4, default
symmetry c1  #important for SAPT in psi4, default
}

set PROPERTIES_ORIGIN ["COM"]
properties('MP2/aug-cc-pvtz', properties = ['dipole'])
--------------------------------------------------------------------------

    Molecular point group: c1
  Charge       = 0
  Multiplicity = 1
  Basis Set: AUG-CC-PVTZ
    Blend: AUG-CC-PVTZ
  Basis Set: (AUG-CC-PVTZ AUX)
    Blend: AUG-CC-PVTZ-JKFIT

    Orbital Energies [Eh]
    ---------------------

    Doubly Occupied:

       1A    -15.554005     2A    -11.258081     3A    -11.250015
       4A    -11.234214     5A    -11.233599     6A    -11.227876
       7A    -11.225448     8A    -11.224183     9A    -11.222683
      10A    -11.214479    11A     -1.226770    12A     -1.130873
      13A     -1.054410    14A     -1.012205    15A     -0.945671
      16A     -0.922190    17A     -0.892212    18A     -0.792561
      19A     -0.783423    20A     -0.691690    21A     -0.661491
      22A     -0.628094    23A     -0.604102    24A     -0.591841
      25A     -0.579067    26A     -0.568862    27A     -0.565035
      28A     -0.556629    29A     -0.552038    30A     -0.530642
      31A     -0.521297    32A     -0.486791    33A     -0.474081
      34A     -0.470924    35A     -0.403602    36A     -0.317672
      37A     -0.302162

  @DF-RHF Final Energy:  -402.96100947832707

   => Energetics <=

    Nuclear Repulsion Energy =            521.2868665025127939
    One-Electron Energy =               -1578.6739171802564670
    Two-Electron Energy =                 654.4260411994166589
    Total Energy =                       -402.9610094783270142
  Basis Set: (AUG-CC-PVTZ AUX)
    Blend: AUG-CC-PVTZ-RI
    Molecular point group: c1

    Geometry (in Angstrom), charge = 0, multiplicity = 1:

       Center              X                  Y                   Z               Mass
    ------------   -----------------  -----------------  -----------------  -----------------
         N            1.666398765786     0.622098620658    -0.459175667709    14.003074004430
         C            0.333704165786     0.183362420658    -0.204868067709    12.000000000000
         C           -0.731040234214     1.069238620658    -0.074043667709    12.000000000000
         C            0.120166765786    -1.227387379342    -0.104975667709    12.000000000000
         C           -2.018350234214     0.571338620658     0.151821332291    12.000000000000
         C           -1.178039234214    -1.685775379342     0.144391332291    12.000000000000
         C           -2.245476234214    -0.798881379342     0.272278332291    12.000000000000
         C           -0.501126234214     2.555764620658    -0.189079667709    12.000000000000
         C            1.246794765786    -2.206644379342    -0.299108667709    12.000000000000
         C            2.541862765786     0.626319620658     0.719977332291    12.000000000000
         H           -2.849003234214     1.269193620658     0.245292332291     1.007825032230
         H           -1.354213234214    -2.758275379342     0.213191332291     1.007825032230
         H            1.631199765786     1.563256620658    -0.843844667709     1.007825032230
         H           -3.250038234214    -1.173022379342     0.455225332291     1.007825032230
         H            0.274681765786     2.901721620658     0.502578332291     1.007825032230
         H           -0.198460234214     2.849698620658    -1.201605667709     1.007825032230
         H           -1.419978234214     3.099962620658     0.044075332291     1.007825032230
         H            1.981135765786    -1.800499379342    -0.999259667709     1.007825032230
         H            1.766022765786    -2.428653379342     0.640283332291     1.007825032230
         H            0.863323765786    -3.153154379342    -0.690831667709     1.007825032230
         H            2.133107765786     1.196535620658     1.567325332291     1.007825032230
         H            3.507168765786     1.054991620658     0.437407332291     1.007825032230
         H            2.713022765786    -0.398470379342     1.052195332291     1.007825032230

  Basis Set: AUG-CC-PVTZ
    Blend: AUG-CC-PVTZ
  Basis Set: (AUG-CC-PVTZ AUX)
    Blend: AUG-CC-PVTZ-JKFIT
	 Reference Energy          =    -402.9610094783270711 [Eh]
	 Singles Energy            =      -0.0000000000000000 [Eh]
	 Same-Spin Energy          =      -0.4479862179271257 [Eh]
	 Opposite-Spin Energy      =      -1.4659700541954868 [Eh]
	 Correlation Energy        =      -1.9139562721226124 [Eh]
	 Total Energy              =    -404.8749657504496895 [Eh]

	 ================> DF-SCS-MP2 Energies <==================
	-----------------------------------------------------------
	 SCS Same-Spin Scale       =       0.3333333333333333 [-]
	 SCS Opposite-Spin Scale   =       1.2000000000000000 [-]
	 SCS Same-Spin Energy      =      -0.1493287393090419 [Eh]
	 SCS Opposite-Spin Energy  =      -1.7591640650345841 [Eh]
	 SCS Correlation Energy    =      -1.9084928043436260 [Eh]
	 SCS Total Energy          =    -404.8695022826706804 [Eh]
	-----------------------------------------------------------

  Dipole Moment: [D]
     X:     0.5513      Y:     1.0662      Z:     0.5268     Total:     1.3108

*** Psi4 exiting successfully. Buy a developer a beer!
