                               Psi4 1.4a3.dev225

  ==> Input File <==

--------------------------------------------------------------------------
#psi4
#
memory 32 gb

molecule  {
0 1
  N        1.6268380     0.6089620    -0.4693990
  C        0.3031040     0.1485790    -0.2066970
  C       -0.7706010     1.0561020    -0.0842670
  C        0.0806060    -1.2405240    -0.1151990
  C       -2.0579110     0.5582020     0.1415980
  C       -1.2176000    -1.6989120     0.1341680
  C       -2.2524538    -0.6154481     0.2447744
  C       -0.5406870     2.5426280    -0.1993030
  C        1.2072340    -2.2197810    -0.3093320
  C        2.5023020     0.6131830     0.7097540
  H       -2.8885640     1.2560570     0.2350690
  H       -1.3937740    -2.7714120     0.2029680
  H        1.5916390     1.5501200    -0.8540680
  H       -3.2895990    -1.1861590     0.4450020
  H        0.2351210     2.8885850     0.4923550
  H       -0.2380210     2.8365620    -1.2118290
  H       -1.4595390     3.0868260     0.0338520
  H        1.9415750    -1.8136360    -1.0094830
  H        1.7264620    -2.4417900     0.6300600
  H        0.8237630    -3.1662910    -0.7010550
  H        2.0935470     1.1833990     1.5571020
  H        3.4676080     1.0418550     0.4271840
  H        2.6734620    -0.4116070     1.0419720
units angstrom
no_reorient  #important for SAPT in psi4, default
symmetry c1  #important for SAPT in psi4, default
}

set PROPERTIES_ORIGIN ["COM"]
properties('MP2/aug-cc-pvtz', properties = ['dipole'])
--------------------------------------------------------------------------

    Molecular point group: c1
  Charge       = 0
  Multiplicity = 1
  Basis Set: AUG-CC-PVTZ
    Blend: AUG-CC-PVTZ
  Basis Set: (AUG-CC-PVTZ AUX)
    Blend: AUG-CC-PVTZ-JKFIT

    Orbital Energies [Eh]
    ---------------------

    Doubly Occupied:

       1A    -15.553432     2A    -11.256987     3A    -11.249436
       4A    -11.234422     5A    -11.233470     6A    -11.230335
       7A    -11.227791     8A    -11.218764     9A    -11.213892
      10A    -11.198705    11A     -1.227014    12A     -1.148167
      13A     -1.058561    14A     -1.023182    15A     -0.945376
      16A     -0.922172    17A     -0.891127    18A     -0.800067
      19A     -0.766857    20A     -0.696738    21A     -0.664392
      22A     -0.629536    23A     -0.599094    24A     -0.591895
      25A     -0.580459    26A     -0.570741    27A     -0.566271
      28A     -0.558982    29A     -0.550255    30A     -0.527087
      31A     -0.522105    32A     -0.488851    33A     -0.485558
      34A     -0.443498    35A     -0.404099    36A     -0.334174
      37A     -0.295474

  @DF-RHF Final Energy:  -402.89869318701625

   => Energetics <=

    Nuclear Repulsion Energy =            523.6802974484090782
    One-Electron Energy =               -1583.3400522865363200
    Two-Electron Energy =                 656.7610616511111630
    Total Energy =                       -402.8986931870161925
  Basis Set: (AUG-CC-PVTZ AUX)
    Blend: AUG-CC-PVTZ-RI
    Molecular point group: c1

    Geometry (in Angstrom), charge = 0, multiplicity = 1:

       Center              X                  Y                   Z               Mass
    ------------   -----------------  -----------------  -----------------  -----------------
         N            1.662708848017     0.606561961642    -0.458386395970    14.003074004430
         C            0.338974848017     0.146178961642    -0.195684395970    12.000000000000
         C           -0.734730151983     1.053701961642    -0.073254395970    12.000000000000
         C            0.116476848017    -1.242924038358    -0.104186395970    12.000000000000
         C           -2.022040151983     0.555801961642     0.152610604030    12.000000000000
         C           -1.181729151983    -1.701312038358     0.145180604030    12.000000000000
         C           -2.216582951983    -0.617848138358     0.255787004030    12.000000000000
         C           -0.504816151983     2.540227961642    -0.188290395970    12.000000000000
         C            1.243104848017    -2.222181038358    -0.298319395970    12.000000000000
         C            2.538172848017     0.610782961642     0.720766604030    12.000000000000
         H           -2.852693151983     1.253656961642     0.246081604030     1.007825032230
         H           -1.357903151983    -2.773812038358     0.213980604030     1.007825032230
         H            1.627509848017     1.547719961642    -0.843055395970     1.007825032230
         H           -3.253728151983    -1.188559038358     0.456014604030     1.007825032230
         H            0.270991848017     2.886184961642     0.503367604030     1.007825032230
         H           -0.202150151983     2.834161961642    -1.200816395970     1.007825032230
         H           -1.423668151983     3.084425961642     0.044864604030     1.007825032230
         H            1.977445848017    -1.816036038358    -0.998470395970     1.007825032230
         H            1.762332848017    -2.444190038358     0.641072604030     1.007825032230
         H            0.859633848017    -3.168691038358    -0.690042395970     1.007825032230
         H            2.129417848017     1.180998961642     1.568114604030     1.007825032230
         H            3.503478848017     1.039454961642     0.438196604030     1.007825032230
         H            2.709332848017    -0.414007038358     1.052984604030     1.007825032230

  Basis Set: AUG-CC-PVTZ
    Blend: AUG-CC-PVTZ
  Basis Set: (AUG-CC-PVTZ AUX)
    Blend: AUG-CC-PVTZ-JKFIT
	 Reference Energy          =    -402.8986931870162493 [Eh]
	 Singles Energy            =      -0.0000000000000000 [Eh]
	 Same-Spin Energy          =      -0.4475726032260469 [Eh]
	 Opposite-Spin Energy      =      -1.4673464449684834 [Eh]
	 Correlation Energy        =      -1.9149190481945304 [Eh]
	 Total Energy              =    -404.8136122352107691 [Eh]

	 ================> DF-SCS-MP2 Energies <==================
	-----------------------------------------------------------
	 SCS Same-Spin Scale       =       0.3333333333333333 [-]
	 SCS Opposite-Spin Scale   =       1.2000000000000000 [-]
	 SCS Same-Spin Energy      =      -0.1491908677420156 [Eh]
	 SCS Opposite-Spin Energy  =      -1.7608157339621802 [Eh]
	 SCS Correlation Energy    =      -1.9100066017041957 [Eh]
	 SCS Total Energy          =    -404.8086997887204461 [Eh]
	-----------------------------------------------------------

  Dipole Moment: [D]
     X:     0.5934      Y:     1.0480      Z:     0.5114     Total:     1.3085

*** Psi4 exiting successfully. Buy a developer a beer!
