                               Psi4 1.4a3.dev225

  ==> Input File <==

--------------------------------------------------------------------------
#psi4
#
memory 32 gb

molecule  {
0 1
  N        1.6268380     0.6089620    -0.4693990
  C        0.3031040     0.1485790    -0.2066970
  C       -0.7706010     1.0561020    -0.0842670
  C        0.0806060    -1.2405240    -0.1151990
  C       -2.0579110     0.5582020     0.1415980
  C       -1.2176000    -1.6989120     0.1341680
  C       -2.2850370    -0.8120180     0.2620550
  C       -0.5406870     2.5426280    -0.1993030
  C        1.2072340    -2.2197810    -0.3093320
  C        2.5023020     0.6131830     0.7097540
  H       -2.8885640     1.2560570     0.2350690
  H       -1.3775971    -2.6729316     0.1966506
  H        1.5916390     1.5501200    -0.8540680
  H       -3.2895990    -1.1861590     0.4450020
  H        0.2351210     2.8885850     0.4923550
  H       -0.2380210     2.8365620    -1.2118290
  H       -1.4595390     3.0868260     0.0338520
  H        1.9415750    -1.8136360    -1.0094830
  H        1.7264620    -2.4417900     0.6300600
  H        0.8237630    -3.1662910    -0.7010550
  H        2.0935470     1.1833990     1.5571020
  H        3.4676080     1.0418550     0.4271840
  H        2.6734620    -0.4116070     1.0419720
units angstrom
no_reorient  #important for SAPT in psi4, default
symmetry c1  #important for SAPT in psi4, default
}

set PROPERTIES_ORIGIN ["COM"]
properties('MP2/aug-cc-pvtz', properties = ['dipole'])
--------------------------------------------------------------------------

    Molecular point group: c1
  Charge       = 0
  Multiplicity = 1
  Basis Set: AUG-CC-PVTZ
    Blend: AUG-CC-PVTZ
  Basis Set: (AUG-CC-PVTZ AUX)
    Blend: AUG-CC-PVTZ-JKFIT

    Orbital Energies [Eh]
    ---------------------

    Doubly Occupied:

       1A    -15.553418     2A    -11.257478     3A    -11.249429
       4A    -11.235545     5A    -11.231108     6A    -11.228108
       7A    -11.224617     8A    -11.223115     9A    -11.214226
      10A    -11.211125    11A     -1.226165    12A     -1.131201
      13A     -1.055485    14A     -1.012470    15A     -0.945580
      16A     -0.926023    17A     -0.891720    18A     -0.799212
      19A     -0.781316    20A     -0.700821    21A     -0.661496
      22A     -0.629211    23A     -0.604936    24A     -0.591481
      25A     -0.583493    26A     -0.569007    27A     -0.565096
      28A     -0.560519    29A     -0.552500    30A     -0.530406
      31A     -0.521851    32A     -0.485155    33A     -0.479034
      34A     -0.470343    35A     -0.402154    36A     -0.316638
      37A     -0.302210

  @DF-RHF Final Energy:  -402.95604821264396

   => Energetics <=

    Nuclear Repulsion Energy =            521.8695127583905560
    One-Electron Energy =               -1579.8037430257588767
    Two-Electron Energy =                 654.9781820547243569
    Total Energy =                       -402.9560482126439638
  Basis Set: (AUG-CC-PVTZ AUX)
    Blend: AUG-CC-PVTZ-RI
    Molecular point group: c1

    Geometry (in Angstrom), charge = 0, multiplicity = 1:

       Center              X                  Y                   Z               Mass
    ------------   -----------------  -----------------  -----------------  -----------------
         N            1.665482212967     0.623286665704    -0.459874132653    14.003074004430
         C            0.341748212967     0.162903665704    -0.197172132653    12.000000000000
         C           -0.731956787033     1.070426665704    -0.074742132653    12.000000000000
         C            0.119250212967    -1.226199334296    -0.105674132653    12.000000000000
         C           -2.019266787033     0.572526665704     0.151122867347    12.000000000000
         C           -1.178955787033    -1.684587334296     0.143692867347    12.000000000000
         C           -2.246392787033    -0.797693334296     0.271579867347    12.000000000000
         C           -0.502042787033     2.556952665704    -0.189778132653    12.000000000000
         C            1.245878212967    -2.205456334296    -0.299807132653    12.000000000000
         C            2.540946212967     0.627507665704     0.719278867347    12.000000000000
         H           -2.849919787033     1.270381665704     0.244593867347     1.007825032230
         H           -1.338952887033    -2.658606934296     0.206175467347     1.007825032230
         H            1.630283212967     1.564444665704    -0.844543132653     1.007825032230
         H           -3.250954787033    -1.171834334296     0.454526867347     1.007825032230
         H            0.273765212967     2.902909665704     0.501879867347     1.007825032230
         H           -0.199376787033     2.850886665704    -1.202304132653     1.007825032230
         H           -1.420894787033     3.101150665704     0.043376867347     1.007825032230
         H            1.980219212967    -1.799311334296    -0.999958132653     1.007825032230
         H            1.765106212967    -2.427465334296     0.639584867347     1.007825032230
         H            0.862407212967    -3.151966334296    -0.691530132653     1.007825032230
         H            2.132191212967     1.197723665704     1.566626867347     1.007825032230
         H            3.506252212967     1.056179665704     0.436708867347     1.007825032230
         H            2.712106212967    -0.397282334296     1.051496867347     1.007825032230

  Basis Set: AUG-CC-PVTZ
    Blend: AUG-CC-PVTZ
  Basis Set: (AUG-CC-PVTZ AUX)
    Blend: AUG-CC-PVTZ-JKFIT
	 Reference Energy          =    -402.9560482126439638 [Eh]
	 Singles Energy            =      -0.0000000000000000 [Eh]
	 Same-Spin Energy          =      -0.4478165740053439 [Eh]
	 Opposite-Spin Energy      =      -1.4653737518997718 [Eh]
	 Correlation Energy        =      -1.9131903259051157 [Eh]
	 Total Energy              =    -404.8692385385490979 [Eh]

	 ================> DF-SCS-MP2 Energies <==================
	-----------------------------------------------------------
	 SCS Same-Spin Scale       =       0.3333333333333333 [-]
	 SCS Opposite-Spin Scale   =       1.2000000000000000 [-]
	 SCS Same-Spin Energy      =      -0.1492721913351146 [Eh]
	 SCS Opposite-Spin Energy  =      -1.7584485022797260 [Eh]
	 SCS Correlation Energy    =      -1.9077206936148408 [Eh]
	 SCS Total Energy          =    -404.8637689062588265 [Eh]
	-----------------------------------------------------------

  Dipole Moment: [D]
     X:     0.5309      Y:     1.0318      Z:     0.5223     Total:     1.2725

*** Psi4 exiting successfully. Buy a developer a beer!
