                               Psi4 1.4a3.dev225

  ==> Input File <==

--------------------------------------------------------------------------
#psi4
#
memory 32 gb

molecule  {
0 1
  N        1.6268380     0.6089620    -0.4693990
  C        0.3031040     0.1485790    -0.2066970
  C       -0.7706010     1.0561020    -0.0842670
  C        0.0806060    -1.2405240    -0.1151990
  C       -2.0579110     0.5582020     0.1415980
  C       -1.2176000    -1.6989120     0.1341680
  C       -2.2850370    -0.8120180     0.2620550
  C       -0.5406870     2.5426280    -0.1993030
  C        1.2072340    -2.2197810    -0.3093320
  C        2.5023020     0.6131830     0.7097540
  H       -2.8885640     1.2560570     0.2350690
  H       -1.3937740    -2.7714120     0.2029680
  H        1.5916390     1.5501200    -0.8540680
  H       -3.2895990    -1.1861590     0.4450020
  H        0.2351210     2.8885850     0.4923550
  H       -0.2435395     2.8312027    -1.1933676
  H       -1.4595390     3.0868260     0.0338520
  H        1.9415750    -1.8136360    -1.0094830
  H        1.7264620    -2.4417900     0.6300600
  H        0.8237630    -3.1662910    -0.7010550
  H        2.0935470     1.1833990     1.5571020
  H        3.4676080     1.0418550     0.4271840
  H        2.6734620    -0.4116070     1.0419720
units angstrom
no_reorient  #important for SAPT in psi4, default
symmetry c1  #important for SAPT in psi4, default
}

set PROPERTIES_ORIGIN ["COM"]
properties('MP2/aug-cc-pvtz', properties = ['dipole'])
--------------------------------------------------------------------------

    Molecular point group: c1
  Charge       = 0
  Multiplicity = 1
  Basis Set: AUG-CC-PVTZ
    Blend: AUG-CC-PVTZ
  Basis Set: (AUG-CC-PVTZ AUX)
    Blend: AUG-CC-PVTZ-JKFIT

    Orbital Energies [Eh]
    ---------------------

    Doubly Occupied:

       1A    -15.553838     2A    -11.258132     3A    -11.249627
       4A    -11.235731     5A    -11.231981     6A    -11.225923
       7A    -11.225268     8A    -11.224121     9A    -11.222918
      10A    -11.214092    11A     -1.226560    12A     -1.130787
      13A     -1.054666    14A     -1.012585    15A     -0.945978
      16A     -0.922708    17A     -0.892108    18A     -0.794913
      19A     -0.781278    20A     -0.692672    21A     -0.660656
      22A     -0.629523    23A     -0.604027    24A     -0.592255
      25A     -0.578847    26A     -0.568838    27A     -0.566752
      28A     -0.557302    29A     -0.552165    30A     -0.530710
      31A     -0.521043    32A     -0.485254    33A     -0.477088
      34A     -0.470944    35A     -0.402467    36A     -0.317081
      37A     -0.302717

  @DF-RHF Final Energy:  -402.96178730536735

   => Energetics <=

    Nuclear Repulsion Energy =            521.4034773937376031
    One-Electron Energy =               -1578.9034248058519552
    Two-Electron Energy =                 654.5381601067470001
    Total Energy =                       -402.9617873053673520
  Basis Set: (AUG-CC-PVTZ AUX)
    Blend: AUG-CC-PVTZ-RI
    Molecular point group: c1

    Geometry (in Angstrom), charge = 0, multiplicity = 1:

       Center              X                  Y                   Z               Mass
    ------------   -----------------  -----------------  -----------------  -----------------
         N            1.665644051534     0.624061266232    -0.460058972089    14.003074004430
         C            0.341910051534     0.163678266232    -0.197356972089    12.000000000000
         C           -0.731794948466     1.071201266232    -0.074926972089    12.000000000000
         C            0.119412051534    -1.225424733768    -0.105858972089    12.000000000000
         C           -2.019104948466     0.573301266232     0.150938027911    12.000000000000
         C           -1.178793948466    -1.683812733768     0.143508027911    12.000000000000
         C           -2.246230948466    -0.796918733768     0.271395027911    12.000000000000
         C           -0.501880948466     2.557727266232    -0.189962972089    12.000000000000
         C            1.246040051534    -2.204681733768    -0.299991972089    12.000000000000
         C            2.541108051534     0.628282266232     0.719094027911    12.000000000000
         H           -2.849757948466     1.271156266232     0.244409027911     1.007825032230
         H           -1.354967948466    -2.756312733768     0.212308027911     1.007825032230
         H            1.630445051534     1.565219266232    -0.844727972089     1.007825032230
         H           -3.250792948466    -1.171059733768     0.454342027911     1.007825032230
         H            0.273927051534     2.903684266232     0.501695027911     1.007825032230
         H           -0.204733448466     2.846301966232    -1.184027572089     1.007825032230
         H           -1.420732948466     3.101925266232     0.043192027911     1.007825032230
         H            1.980381051534    -1.798536733768    -1.000142972089     1.007825032230
         H            1.765268051534    -2.426690733768     0.639400027911     1.007825032230
         H            0.862569051534    -3.151191733768    -0.691714972089     1.007825032230
         H            2.132353051534     1.198498266232     1.566442027911     1.007825032230
         H            3.506414051534     1.056954266232     0.436524027911     1.007825032230
         H            2.712268051534    -0.396507733768     1.051312027911     1.007825032230

  Basis Set: AUG-CC-PVTZ
    Blend: AUG-CC-PVTZ
  Basis Set: (AUG-CC-PVTZ AUX)
    Blend: AUG-CC-PVTZ-JKFIT
	 Reference Energy          =    -402.9617873053673520 [Eh]
	 Singles Energy            =      -0.0000000000000000 [Eh]
	 Same-Spin Energy          =      -0.4479872064300696 [Eh]
	 Opposite-Spin Energy      =      -1.4658043377261833 [Eh]
	 Correlation Energy        =      -1.9137915441562530 [Eh]
	 Total Energy              =    -404.8755788495236061 [Eh]

	 ================> DF-SCS-MP2 Energies <==================
	-----------------------------------------------------------
	 SCS Same-Spin Scale       =       0.3333333333333333 [-]
	 SCS Opposite-Spin Scale   =       1.2000000000000000 [-]
	 SCS Same-Spin Energy      =      -0.1493290688100232 [Eh]
	 SCS Opposite-Spin Energy  =      -1.7589652052714200 [Eh]
	 SCS Correlation Energy    =      -1.9082942740814433 [Eh]
	 SCS Total Energy          =    -404.8700815794488221 [Eh]
	-----------------------------------------------------------

  Dipole Moment: [D]
     X:     0.5429      Y:     1.0810      Z:     0.5125     Total:     1.3137

*** Psi4 exiting successfully. Buy a developer a beer!
