                               Psi4 1.4a3.dev225

  ==> Input File <==

--------------------------------------------------------------------------
#psi4
#
memory 32 gb

molecule  {
0 1
  N        1.6268380     0.6089620    -0.4693990
  C        0.3031040     0.1485790    -0.2066970
  C       -0.7706010     1.0561020    -0.0842670
  C        0.0806060    -1.2405240    -0.1151990
  C       -2.0579110     0.5582020     0.1415980
  C       -1.2176000    -1.6989120     0.1341680
  C       -2.3147906    -0.8500306     0.2680744
  C       -0.5406870     2.5426280    -0.1993030
  C        1.2072340    -2.2197810    -0.3093320
  C        2.5023020     0.6131830     0.7097540
  H       -2.8885640     1.2560570     0.2350690
  H       -1.3937740    -2.7714120     0.2029680
  H        1.5916390     1.5501200    -0.8540680
  H       -3.2895990    -1.1861590     0.4450020
  H        0.2351210     2.8885850     0.4923550
  H       -0.2380210     2.8365620    -1.2118290
  H       -1.4595390     3.0868260     0.0338520
  H        1.9415750    -1.8136360    -1.0094830
  H        1.7264620    -2.4417900     0.6300600
  H        0.8237630    -3.1662910    -0.7010550
  H        2.0935470     1.1833990     1.5571020
  H        3.4676080     1.0418550     0.4271840
  H        2.6734620    -0.4116070     1.0419720
units angstrom
no_reorient  #important for SAPT in psi4, default
symmetry c1  #important for SAPT in psi4, default
}

set PROPERTIES_ORIGIN ["COM"]
properties('MP2/aug-cc-pvtz', properties = ['dipole'])
--------------------------------------------------------------------------

    Molecular point group: c1
  Charge       = 0
  Multiplicity = 1
  Basis Set: AUG-CC-PVTZ
    Blend: AUG-CC-PVTZ
  Basis Set: (AUG-CC-PVTZ AUX)
    Blend: AUG-CC-PVTZ-JKFIT

    Orbital Energies [Eh]
    ---------------------

    Doubly Occupied:

       1A    -15.554273     2A    -11.259333     3A    -11.249967
       4A    -11.236174     5A    -11.231852     6A    -11.229699
       7A    -11.228559     8A    -11.225624     9A    -11.224045
      10A    -11.214220    11A     -1.226805    12A     -1.127322
      13A     -1.053991    14A     -1.010657    15A     -0.945570
      16A     -0.920126    17A     -0.892515    18A     -0.797308
      19A     -0.781875    20A     -0.691039    21A     -0.660908
      22A     -0.633499    23A     -0.605803    24A     -0.590722
      25A     -0.578113    26A     -0.568745    27A     -0.565737
      28A     -0.556585    29A     -0.551016    30A     -0.533023
      31A     -0.519023    32A     -0.490180    33A     -0.473897
      34A     -0.467733    35A     -0.402045    36A     -0.317413
      37A     -0.300656

  @DF-RHF Final Energy:  -402.95821547344542

   => Energetics <=

    Nuclear Repulsion Energy =            520.4781973501145558
    One-Electron Energy =               -1577.0407188460580983
    Two-Electron Energy =                 653.6043060224982355
    Total Energy =                       -402.9582154734454207
  Basis Set: (AUG-CC-PVTZ AUX)
    Blend: AUG-CC-PVTZ-RI
    Molecular point group: c1

    Geometry (in Angstrom), charge = 0, multiplicity = 1:

       Center              X                  Y                   Z               Mass
    ------------   -----------------  -----------------  -----------------  -----------------
         N            1.668245598770     0.627397564907    -0.460455900541    14.003074004430
         C            0.344511598770     0.167014564907    -0.197753900541    12.000000000000
         C           -0.729193401230     1.074537564907    -0.075323900541    12.000000000000
         C            0.122013598770    -1.222088435093    -0.106255900541    12.000000000000
         C           -2.016503401230     0.576637564907     0.150541099459    12.000000000000
         C           -1.176192401230    -1.680476435093     0.143111099459    12.000000000000
         C           -2.273383001230    -0.831595035093     0.277017499459    12.000000000000
         C           -0.499279401230     2.561063564907    -0.190359900541    12.000000000000
         C            1.248641598770    -2.201345435093    -0.300388900541    12.000000000000
         C            2.543709598770     0.631618564907     0.718697099459    12.000000000000
         H           -2.847156401230     1.274492564907     0.244012099459     1.007825032230
         H           -1.352366401230    -2.752976435093     0.211911099459     1.007825032230
         H            1.633046598770     1.568555564907    -0.845124900541     1.007825032230
         H           -3.248191401230    -1.167723435093     0.453945099459     1.007825032230
         H            0.276528598770     2.907020564907     0.501298099459     1.007825032230
         H           -0.196613401230     2.854997564907    -1.202885900541     1.007825032230
         H           -1.418131401230     3.105261564907     0.042795099459     1.007825032230
         H            1.982982598770    -1.795200435093    -1.000539900541     1.007825032230
         H            1.767869598770    -2.423354435093     0.639003099459     1.007825032230
         H            0.865170598770    -3.147855435093    -0.692111900541     1.007825032230
         H            2.134954598770     1.201834564907     1.566045099459     1.007825032230
         H            3.509015598770     1.060290564907     0.436127099459     1.007825032230
         H            2.714869598770    -0.393171435093     1.050915099459     1.007825032230

  Basis Set: AUG-CC-PVTZ
    Blend: AUG-CC-PVTZ
  Basis Set: (AUG-CC-PVTZ AUX)
    Blend: AUG-CC-PVTZ-JKFIT
	 Reference Energy          =    -402.9582154734454207 [Eh]
	 Singles Energy            =      -0.0000000000000000 [Eh]
	 Same-Spin Energy          =      -0.4479822017736552 [Eh]
	 Opposite-Spin Energy      =      -1.4663742246802824 [Eh]
	 Correlation Energy        =      -1.9143564264539377 [Eh]
	 Total Energy              =    -404.8725718998993557 [Eh]

	 ================> DF-SCS-MP2 Energies <==================
	-----------------------------------------------------------
	 SCS Same-Spin Scale       =       0.3333333333333333 [-]
	 SCS Opposite-Spin Scale   =       1.2000000000000000 [-]
	 SCS Same-Spin Energy      =      -0.1493274005912184 [Eh]
	 SCS Opposite-Spin Energy  =      -1.7596490696163389 [Eh]
	 SCS Correlation Energy    =      -1.9089764702075573 [Eh]
	 SCS Total Energy          =    -404.8671919436529834 [Eh]
	-----------------------------------------------------------

  Dipole Moment: [D]
     X:     0.5406      Y:     1.0808      Z:     0.5218     Total:     1.3163

*** Psi4 exiting successfully. Buy a developer a beer!
