                               Psi4 1.4a3.dev225

  ==> Input File <==

--------------------------------------------------------------------------
#psi4
#
memory 32 gb

molecule  {
0 1
  N        1.6268380     0.6089620    -0.4693990
  C        0.3031040     0.1485790    -0.2066970
  C       -0.7706010     1.0561020    -0.0842670
  C        0.0806060    -1.2405240    -0.1151990
  C       -2.0579110     0.5582020     0.1415980
  C       -1.2176000    -1.6989120     0.1341680
  C       -2.2850370    -0.8120180     0.2620550
  C       -0.5406870     2.5426280    -0.1993030
  C        1.3569224    -2.3498890    -0.3351253
  C        2.5023020     0.6131830     0.7097540
  H       -2.8885640     1.2560570     0.2350690
  H       -1.3937740    -2.7714120     0.2029680
  H        1.5916390     1.5501200    -0.8540680
  H       -3.2895990    -1.1861590     0.4450020
  H        0.2351210     2.8885850     0.4923550
  H       -0.2380210     2.8365620    -1.2118290
  H       -1.4595390     3.0868260     0.0338520
  H        1.9415750    -1.8136360    -1.0094830
  H        1.7264620    -2.4417900     0.6300600
  H        0.8237630    -3.1662910    -0.7010550
  H        2.0935470     1.1833990     1.5571020
  H        3.4676080     1.0418550     0.4271840
  H        2.6734620    -0.4116070     1.0419720
units angstrom
no_reorient  #important for SAPT in psi4, default
symmetry c1  #important for SAPT in psi4, default
}

set PROPERTIES_ORIGIN ["COM"]
properties('MP2/aug-cc-pvtz', properties = ['dipole'])
--------------------------------------------------------------------------

    Molecular point group: c1
  Charge       = 0
  Multiplicity = 1
  Basis Set: AUG-CC-PVTZ
    Blend: AUG-CC-PVTZ
  Basis Set: (AUG-CC-PVTZ AUX)
    Blend: AUG-CC-PVTZ-JKFIT

    Orbital Energies [Eh]
    ---------------------

    Doubly Occupied:

       1A    -15.553427     2A    -11.257967     3A    -11.249982
       4A    -11.238081     5A    -11.235319     6A    -11.228024
       7A    -11.224838     8A    -11.223863     9A    -11.222848
      10A    -11.215257    11A     -1.224988    12A     -1.127949
      13A     -1.044250    14A     -1.004931    15A     -0.946600
      16A     -0.924797    17A     -0.894907    18A     -0.791780
      19A     -0.781871    20A     -0.692059    21A     -0.657654
      22A     -0.625971    23A     -0.601731    24A     -0.591626
      25A     -0.590961    26A     -0.576982    27A     -0.572700
      28A     -0.561579    29A     -0.541171    30A     -0.535513
      31A     -0.528281    32A     -0.480634    33A     -0.476992
      34A     -0.442931    35A     -0.401235    36A     -0.318623
      37A     -0.302549

  @DF-RHF Final Energy:  -402.93510555081383

   => Energetics <=

    Nuclear Repulsion Energy =            517.8889659142406572
    One-Electron Energy =               -1571.8664000385745112
    Two-Electron Energy =                 651.0423285735198533
    Total Energy =                       -402.9351055508138870
  Basis Set: (AUG-CC-PVTZ AUX)
    Blend: AUG-CC-PVTZ-RI
    Molecular point group: c1

    Geometry (in Angstrom), charge = 0, multiplicity = 1:

       Center              X                  Y                   Z               Mass
    ------------   -----------------  -----------------  -----------------  -----------------
         N            1.652307571334     0.635577472688    -0.457630298478    14.003074004430
         C            0.328573571334     0.175194472688    -0.194928298478    12.000000000000
         C           -0.745131428666     1.082717472688    -0.072498298478    12.000000000000
         C            0.106075571334    -1.213908527312    -0.103430298478    12.000000000000
         C           -2.032441428666     0.584817472688     0.153366701522    12.000000000000
         C           -1.192130428666    -1.672296527312     0.145936701522    12.000000000000
         C           -2.259567428666    -0.785402527312     0.273823701522    12.000000000000
         C           -0.515217428666     2.569243472688    -0.187534298478    12.000000000000
         C            1.382391971334    -2.323273527312    -0.323356598478    12.000000000000
         C            2.527771571334     0.639798472688     0.721522701522    12.000000000000
         H           -2.863094428666     1.282672472688     0.246837701522     1.007825032230
         H           -1.368304428666    -2.744796527312     0.214736701522     1.007825032230
         H            1.617108571334     1.576735472688    -0.842299298478     1.007825032230
         H           -3.264129428666    -1.159543527312     0.456770701522     1.007825032230
         H            0.260590571334     2.915200472688     0.504123701522     1.007825032230
         H           -0.212551428666     2.863177472688    -1.200060298478     1.007825032230
         H           -1.434069428666     3.113441472688     0.045620701522     1.007825032230
         H            1.967044571334    -1.787020527312    -0.997714298478     1.007825032230
         H            1.751931571334    -2.415174527312     0.641828701522     1.007825032230
         H            0.849232571334    -3.139675527312    -0.689286298478     1.007825032230
         H            2.119016571334     1.210014472688     1.568870701522     1.007825032230
         H            3.493077571334     1.068470472688     0.438952701522     1.007825032230
         H            2.698931571334    -0.384991527312     1.053740701522     1.007825032230

  Basis Set: AUG-CC-PVTZ
    Blend: AUG-CC-PVTZ
  Basis Set: (AUG-CC-PVTZ AUX)
    Blend: AUG-CC-PVTZ-JKFIT
	 Reference Energy          =    -402.9351055508138302 [Eh]
	 Singles Energy            =      -0.0000000000000000 [Eh]
	 Same-Spin Energy          =      -0.4476474577014257 [Eh]
	 Opposite-Spin Energy      =      -1.4668268698094851 [Eh]
	 Correlation Energy        =      -1.9144743275109106 [Eh]
	 Total Energy              =    -404.8495798783247324 [Eh]

	 ================> DF-SCS-MP2 Energies <==================
	-----------------------------------------------------------
	 SCS Same-Spin Scale       =       0.3333333333333333 [-]
	 SCS Opposite-Spin Scale   =       1.2000000000000000 [-]
	 SCS Same-Spin Energy      =      -0.1492158192338086 [Eh]
	 SCS Opposite-Spin Energy  =      -1.7601922437713819 [Eh]
	 SCS Correlation Energy    =      -1.9094080630051904 [Eh]
	 SCS Total Energy          =    -404.8445136138190037 [Eh]
	-----------------------------------------------------------

  Dipole Moment: [D]
     X:     0.4733      Y:     1.1123      Z:     0.5369     Total:     1.3226

*** Psi4 exiting successfully. Buy a developer a beer!
