                               Psi4 1.4a3.dev225

  ==> Input File <==

--------------------------------------------------------------------------
#psi4
#
memory 32 gb

molecule  {
0 1
  N        1.6268380     0.6089620    -0.4693990
  C        0.3031040     0.1485790    -0.2066970
  C       -0.7706010     1.0561020    -0.0842670
  C        0.0806060    -1.2405240    -0.1151990
  C       -2.0579110     0.5582020     0.1415980
  C       -1.2176000    -1.6989120     0.1341680
  C       -2.2850370    -0.8120180     0.2620550
  C       -0.5406870     2.5426280    -0.1993030
  C        1.2072340    -2.2197810    -0.3093320
  C        2.5023020     0.6131830     0.7097540
  H       -3.0411301     1.3842321     0.2522368
  H       -1.3937740    -2.7714120     0.2029680
  H        1.5916390     1.5501200    -0.8540680
  H       -3.2895990    -1.1861590     0.4450020
  H        0.2351210     2.8885850     0.4923550
  H       -0.2380210     2.8365620    -1.2118290
  H       -1.4595390     3.0868260     0.0338520
  H        1.9415750    -1.8136360    -1.0094830
  H        1.7264620    -2.4417900     0.6300600
  H        0.8237630    -3.1662910    -0.7010550
  H        2.0935470     1.1833990     1.5571020
  H        3.4676080     1.0418550     0.4271840
  H        2.6734620    -0.4116070     1.0419720
units angstrom
no_reorient  #important for SAPT in psi4, default
symmetry c1  #important for SAPT in psi4, default
}

set PROPERTIES_ORIGIN ["COM"]
properties('MP2/aug-cc-pvtz', properties = ['dipole'])
--------------------------------------------------------------------------

    Molecular point group: c1
  Charge       = 0
  Multiplicity = 1
  Basis Set: AUG-CC-PVTZ
    Blend: AUG-CC-PVTZ
  Basis Set: (AUG-CC-PVTZ AUX)
    Blend: AUG-CC-PVTZ-JKFIT

    Orbital Energies [Eh]
    ---------------------

    Doubly Occupied:

       1A    -15.554936     2A    -11.260213     3A    -11.250365
       4A    -11.247211     5A    -11.238496     6A    -11.233308
       7A    -11.228211     8A    -11.227062     9A    -11.225058
      10A    -11.215024    11A     -1.227741    12A     -1.131509
      13A     -1.054089    14A     -1.012879    15A     -0.945892
      16A     -0.918845    17A     -0.892529    18A     -0.795984
      19A     -0.773874    20A     -0.690370    21A     -0.653680
      22A     -0.630799    23A     -0.602245    24A     -0.592186
      25A     -0.575880    26A     -0.568469    27A     -0.565553
      28A     -0.557052    29A     -0.535601    30A     -0.531688
      31A     -0.519920    32A     -0.480990    33A     -0.476671
      34A     -0.470410    35A     -0.402966    36A     -0.318743
      37A     -0.304268

  @DF-RHF Final Energy:  -402.93966764029676

   => Energetics <=

    Nuclear Repulsion Energy =            520.3698322040614812
    One-Electron Energy =               -1576.7975634674796765
    Two-Electron Energy =                 653.4880636231213202
    Total Energy =                       -402.9396676402967614
  Basis Set: (AUG-CC-PVTZ AUX)
    Blend: AUG-CC-PVTZ-RI
    Molecular point group: c1

    Geometry (in Angstrom), charge = 0, multiplicity = 1:

       Center              X                  Y                   Z               Mass
    ------------   -----------------  -----------------  -----------------  -----------------
         N            1.666740964840     0.623065155720    -0.460049322376    14.003074004430
         C            0.343006964840     0.162682155720    -0.197347322376    12.000000000000
         C           -0.730698035160     1.070205155720    -0.074917322376    12.000000000000
         C            0.120508964840    -1.226420844280    -0.105849322376    12.000000000000
         C           -2.018008035160     0.572305155720     0.150947677624    12.000000000000
         C           -1.177697035160    -1.684808844280     0.143517677624    12.000000000000
         C           -2.245134035160    -0.797914844280     0.271404677624    12.000000000000
         C           -0.500784035160     2.556731155720    -0.189953322376    12.000000000000
         C            1.247136964840    -2.205677844280    -0.299982322376    12.000000000000
         C            2.542204964840     0.627286155720     0.719103677624    12.000000000000
         H           -3.001227135160     1.398335255720     0.261586477624     1.007825032230
         H           -1.353871035160    -2.757308844280     0.212317677624     1.007825032230
         H            1.631541964840     1.564223155720    -0.844718322376     1.007825032230
         H           -3.249696035160    -1.172055844280     0.454351677624     1.007825032230
         H            0.275023964840     2.902688155720     0.501704677624     1.007825032230
         H           -0.198118035160     2.850665155720    -1.202479322376     1.007825032230
         H           -1.419636035160     3.100929155720     0.043201677624     1.007825032230
         H            1.981477964840    -1.799532844280    -1.000133322376     1.007825032230
         H            1.766364964840    -2.427686844280     0.639409677624     1.007825032230
         H            0.863665964840    -3.152187844280    -0.691705322376     1.007825032230
         H            2.133449964840     1.197502155720     1.566451677624     1.007825032230
         H            3.507510964840     1.055958155720     0.436533677624     1.007825032230
         H            2.713364964840    -0.397503844280     1.051321677624     1.007825032230

  Basis Set: AUG-CC-PVTZ
    Blend: AUG-CC-PVTZ
  Basis Set: (AUG-CC-PVTZ AUX)
    Blend: AUG-CC-PVTZ-JKFIT
	 Reference Energy          =    -402.9396676402967614 [Eh]
	 Singles Energy            =      -0.0000000000000000 [Eh]
	 Same-Spin Energy          =      -0.4485640641103475 [Eh]
	 Opposite-Spin Energy      =      -1.4681490570057933 [Eh]
	 Correlation Energy        =      -1.9167131211161408 [Eh]
	 Total Energy              =    -404.8563807614128791 [Eh]

	 ================> DF-SCS-MP2 Energies <==================
	-----------------------------------------------------------
	 SCS Same-Spin Scale       =       0.3333333333333333 [-]
	 SCS Opposite-Spin Scale   =       1.2000000000000000 [-]
	 SCS Same-Spin Energy      =      -0.1495213547034492 [Eh]
	 SCS Opposite-Spin Energy  =      -1.7617788684069520 [Eh]
	 SCS Correlation Energy    =      -1.9113002231104010 [Eh]
	 SCS Total Energy          =    -404.8509678634071633 [Eh]
	-----------------------------------------------------------

  Dipole Moment: [D]
     X:     0.6534      Y:     0.9855      Z:     0.5118     Total:     1.2885

*** Psi4 exiting successfully. Buy a developer a beer!
