                               Psi4 1.4a3.dev225

  ==> Input File <==

--------------------------------------------------------------------------
#psi4
#
memory 32 gb

molecule  {
0 1
  N        1.6268380     0.6089620    -0.4693990
  C        0.3031040     0.1485790    -0.2066970
  C       -0.7706010     1.0561020    -0.0842670
  C        0.0806060    -1.2405240    -0.1151990
  C       -2.0579110     0.5582020     0.1415980
  C       -1.2176000    -1.6989120     0.1341680
  C       -2.2850370    -0.8120180     0.2620550
  C       -0.5406870     2.5426280    -0.1993030
  C        1.2072340    -2.2197810    -0.3093320
  C        2.5023020     0.6131830     0.7097540
  H       -2.8885640     1.2560570     0.2350690
  H       -1.3937740    -2.7714120     0.2029680
  H        1.5916390     1.5501200    -0.8540680
  H       -3.2895990    -1.1861590     0.4450020
  H        0.2351210     2.8885850     0.4923550
  H       -0.2380210     2.8365620    -1.2118290
  H       -1.4595390     3.0868260     0.0338520
  H        1.9415750    -1.8136360    -1.0094830
  H        1.7264620    -2.4417900     0.6300600
  H        0.8237630    -3.1662910    -0.7010550
  H        2.0935470     1.1833990     1.5571020
  H        3.4676080     1.0418550     0.4271840
  H        2.7048443    -0.5995028     1.1028844
units angstrom
no_reorient  #important for SAPT in psi4, default
symmetry c1  #important for SAPT in psi4, default
}

set PROPERTIES_ORIGIN ["COM"]
properties('MP2/aug-cc-pvtz', properties = ['dipole'])
--------------------------------------------------------------------------

    Molecular point group: c1
  Charge       = 0
  Multiplicity = 1
  Basis Set: AUG-CC-PVTZ
    Blend: AUG-CC-PVTZ
  Basis Set: (AUG-CC-PVTZ AUX)
    Blend: AUG-CC-PVTZ-JKFIT

    Orbital Energies [Eh]
    ---------------------

    Doubly Occupied:

       1A    -15.557078     2A    -11.271895     3A    -11.258881
       4A    -11.236470     5A    -11.232336     6A    -11.229201
       7A    -11.225722     8A    -11.224523     9A    -11.223231
      10A    -11.213514    11A     -1.227795    12A     -1.131157
      13A     -1.054678    14A     -1.012129    15A     -0.942397
      16A     -0.921935    17A     -0.882127    18A     -0.793804
      19A     -0.781259    20A     -0.691876    21A     -0.661586
      22A     -0.630261    23A     -0.604707    24A     -0.587746
      25A     -0.578913    26A     -0.568104    27A     -0.562758
      28A     -0.556791    29A     -0.552258    30A     -0.522681
      31A     -0.508930    32A     -0.481110    33A     -0.475756
      34A     -0.469377    35A     -0.402104    36A     -0.317343
      37A     -0.303397

  @DF-RHF Final Energy:  -402.94080783138503

   => Energetics <=

    Nuclear Repulsion Energy =            520.6197339554991004
    One-Electron Energy =               -1577.3294177795546602
    Two-Electron Energy =                 653.7688759926703597
    Total Energy =                       -402.9408078313850865
  Basis Set: (AUG-CC-PVTZ AUX)
    Blend: AUG-CC-PVTZ-RI
    Molecular point group: c1

    Geometry (in Angstrom), charge = 0, multiplicity = 1:

       Center              X                  Y                   Z               Mass
    ------------   -----------------  -----------------  -----------------  -----------------
         N            1.665368787072     0.625422911820    -0.460375638711    14.003074004430
         C            0.341634787072     0.165039911820    -0.197673638711    12.000000000000
         C           -0.732070212928     1.072562911820    -0.075243638711    12.000000000000
         C            0.119136787072    -1.224063088180    -0.106175638711    12.000000000000
         C           -2.019380212928     0.574662911820     0.150621361289    12.000000000000
         C           -1.179069212928    -1.682451088180     0.143191361289    12.000000000000
         C           -2.246506212928    -0.795557088180     0.271078361289    12.000000000000
         C           -0.502156212928     2.559088911820    -0.190279638711    12.000000000000
         C            1.245764787072    -2.203320088180    -0.300308638711    12.000000000000
         C            2.540832787072     0.629643911820     0.718777361289    12.000000000000
         H           -2.850033212928     1.272517911820     0.244092361289     1.007825032230
         H           -1.355243212928    -2.754951088180     0.211991361289     1.007825032230
         H            1.630169787072     1.566580911820    -0.845044638711     1.007825032230
         H           -3.251068212928    -1.169698088180     0.454025361289     1.007825032230
         H            0.273651787072     2.905045911820     0.501378361289     1.007825032230
         H           -0.199490212928     2.853022911820    -1.202805638711     1.007825032230
         H           -1.421008212928     3.103286911820     0.042875361289     1.007825032230
         H            1.980105787072    -1.797175088180    -1.000459638711     1.007825032230
         H            1.764992787072    -2.425329088180     0.639083361289     1.007825032230
         H            0.862293787072    -3.149830088180    -0.692031638711     1.007825032230
         H            2.132077787072     1.199859911820     1.566125361289     1.007825032230
         H            3.506138787072     1.058315911820     0.436207361289     1.007825032230
         H            2.743375087072    -0.583041888180     1.111907761289     1.007825032230

  Basis Set: AUG-CC-PVTZ
    Blend: AUG-CC-PVTZ
  Basis Set: (AUG-CC-PVTZ AUX)
    Blend: AUG-CC-PVTZ-JKFIT
	 Reference Energy          =    -402.9408078313850297 [Eh]
	 Singles Energy            =      -0.0000000000000000 [Eh]
	 Same-Spin Energy          =      -0.4484007843560434 [Eh]
	 Opposite-Spin Energy      =      -1.4679234694095618 [Eh]
	 Correlation Energy        =      -1.9163242537656051 [Eh]
	 Total Energy              =    -404.8571320851506243 [Eh]

	 ================> DF-SCS-MP2 Energies <==================
	-----------------------------------------------------------
	 SCS Same-Spin Scale       =       0.3333333333333333 [-]
	 SCS Opposite-Spin Scale   =       1.2000000000000000 [-]
	 SCS Same-Spin Energy      =      -0.1494669281186811 [Eh]
	 SCS Opposite-Spin Energy  =      -1.7615081632914740 [Eh]
	 SCS Correlation Energy    =      -1.9109750914101551 [Eh]
	 SCS Total Energy          =    -404.8517829227951665 [Eh]
	-----------------------------------------------------------

  Dipole Moment: [D]
     X:     0.4629      Y:     1.1620      Z:     0.4500     Total:     1.3294

*** Psi4 exiting successfully. Buy a developer a beer!
