                               Psi4 1.4a3.dev225

  ==> Input File <==

--------------------------------------------------------------------------
#psi4
#
memory 32 gb

molecule  {
0 1
  N        1.6268380     0.6089620    -0.4693990
  C        0.3031040     0.1485790    -0.2066970
  C       -0.7706010     1.0561020    -0.0842670
  C        0.0806060    -1.2405240    -0.1151990
  C       -2.0579110     0.5582020     0.1415980
  C       -1.2176000    -1.6989120     0.1341680
  C       -2.2850370    -0.8120180     0.2620550
  C       -0.5406870     2.5426280    -0.1993030
  C        1.2072340    -2.2197810    -0.3093320
  C        2.5023020     0.6131830     0.7097540
  H       -2.8885640     1.2560570     0.2350690
  H       -1.3937740    -2.7714120     0.2029680
  H        1.5916390     1.5501200    -0.8540680
  H       -3.2895990    -1.1861590     0.4450020
  H        0.2351210     2.8885850     0.4923550
  H       -0.2380210     2.8365620    -1.2118290
  H       -1.4595390     3.0868260     0.0338520
  H        1.9415750    -1.8136360    -1.0094830
  H        1.7264620    -2.4417900     0.6300600
  H        0.8237630    -3.1662910    -0.7010550
  H        2.0935470     1.1833990     1.5571020
  H        3.2910308     0.9634408     0.4788727
  H        2.6734620    -0.4116070     1.0419720
units angstrom
no_reorient  #important for SAPT in psi4, default
symmetry c1  #important for SAPT in psi4, default
}

set PROPERTIES_ORIGIN ["COM"]
properties('MP2/aug-cc-pvtz', properties = ['dipole'])
--------------------------------------------------------------------------

    Molecular point group: c1
  Charge       = 0
  Multiplicity = 1
  Basis Set: AUG-CC-PVTZ
    Blend: AUG-CC-PVTZ
  Basis Set: (AUG-CC-PVTZ AUX)
    Blend: AUG-CC-PVTZ-JKFIT

    Orbital Energies [Eh]
    ---------------------

    Doubly Occupied:

       1A    -15.552526     2A    -11.257345     3A    -11.234922
       4A    -11.231064     5A    -11.227894     6A    -11.224855
       7A    -11.224640     8A    -11.223429     9A    -11.222267
      10A    -11.213516    11A     -1.226996    12A     -1.131188
      13A     -1.053684    14A     -1.015138    15A     -0.957064
      16A     -0.922167    17A     -0.904565    18A     -0.793879
      19A     -0.780988    20A     -0.696268    21A     -0.660434
      22A     -0.639804    23A     -0.608815    24A     -0.591039
      25A     -0.581174    26A     -0.568278    27A     -0.566683
      28A     -0.558490    29A     -0.552482    30A     -0.542472
      31A     -0.520418    32A     -0.484792    33A     -0.477856
      34A     -0.470243    35A     -0.402427    36A     -0.316379
      37A     -0.301744

  @DF-RHF Final Energy:  -402.92772558052593

   => Energetics <=

    Nuclear Repulsion Energy =            522.4206354117424098
    One-Electron Energy =               -1580.8208678754299399
    Two-Electron Energy =                 655.4725068831617136
    Total Energy =                       -402.9277255805259301
  Basis Set: (AUG-CC-PVTZ AUX)
    Blend: AUG-CC-PVTZ-RI
    Molecular point group: c1

    Geometry (in Angstrom), charge = 0, multiplicity = 1:

       Center              X                  Y                   Z               Mass
    ------------   -----------------  -----------------  -----------------  -----------------
         N            1.666920077557     0.624606225088    -0.460306833784    14.003074004430
         C            0.343186077557     0.164223225088    -0.197604833784    12.000000000000
         C           -0.730518922443     1.071746225088    -0.075174833784    12.000000000000
         C            0.120688077557    -1.224879774912    -0.106106833784    12.000000000000
         C           -2.017828922443     0.573846225088     0.150690166216    12.000000000000
         C           -1.177517922443    -1.683267774912     0.143260166216    12.000000000000
         C           -2.244954922443    -0.796373774912     0.271147166216    12.000000000000
         C           -0.500604922443     2.558272225088    -0.190210833784    12.000000000000
         C            1.247316077557    -2.204136774912    -0.300239833784    12.000000000000
         C            2.542384077557     0.628827225088     0.718846166216    12.000000000000
         H           -2.848481922443     1.271701225088     0.244161166216     1.007825032230
         H           -1.353691922443    -2.755767774912     0.212060166216     1.007825032230
         H            1.631721077557     1.565764225088    -0.844975833784     1.007825032230
         H           -3.249516922443    -1.170514774912     0.454094166216     1.007825032230
         H            0.275203077557     2.904229225088     0.501447166216     1.007825032230
         H           -0.197938922443     2.852206225088    -1.202736833784     1.007825032230
         H           -1.419456922443     3.102470225088     0.042944166216     1.007825032230
         H            1.981657077557    -1.797991774912    -1.000390833784     1.007825032230
         H            1.766544077557    -2.426145774912     0.639152166216     1.007825032230
         H            0.863845077557    -3.150646774912    -0.691962833784     1.007825032230
         H            2.133629077557     1.199043225088     1.566194166216     1.007825032230
         H            3.331112877557     0.979085025088     0.487964866216     1.007825032230
         H            2.713544077557    -0.395962774912     1.051064166216     1.007825032230

  Basis Set: AUG-CC-PVTZ
    Blend: AUG-CC-PVTZ
  Basis Set: (AUG-CC-PVTZ AUX)
    Blend: AUG-CC-PVTZ-JKFIT
	 Reference Energy          =    -402.9277255805259301 [Eh]
	 Singles Energy            =      -0.0000000000000000 [Eh]
	 Same-Spin Energy          =      -0.4480749159129748 [Eh]
	 Opposite-Spin Energy      =      -1.4652805909532216 [Eh]
	 Correlation Energy        =      -1.9133555068661963 [Eh]
	 Total Energy              =    -404.8410810873921264 [Eh]

	 ================> DF-SCS-MP2 Energies <==================
	-----------------------------------------------------------
	 SCS Same-Spin Scale       =       0.3333333333333333 [-]
	 SCS Opposite-Spin Scale   =       1.2000000000000000 [-]
	 SCS Same-Spin Energy      =      -0.1493583053043249 [Eh]
	 SCS Opposite-Spin Energy  =      -1.7583367091438660 [Eh]
	 SCS Correlation Energy    =      -1.9076950144481908 [Eh]
	 SCS Total Energy          =    -404.8354205949740958 [Eh]
	-----------------------------------------------------------

  Dipole Moment: [D]
     X:     0.6559      Y:     1.1126      Z:     0.5342     Total:     1.3976

*** Psi4 exiting successfully. Buy a developer a beer!
