                               Psi4 1.4a3.dev225

  ==> Input File <==

--------------------------------------------------------------------------
#psi4
#
memory 32 gb

molecule  {
0 1
  N        1.6268380     0.6089620    -0.4693990
  C        0.3031040     0.1485790    -0.2066970
  C       -0.7706010     1.0561020    -0.0842670
  C        0.0837625    -1.2208174    -0.1164970
  C       -2.0579110     0.5582020     0.1415980
  C       -1.2176000    -1.6989120     0.1341680
  C       -2.2850370    -0.8120180     0.2620550
  C       -0.5406870     2.5426280    -0.1993030
  C        1.2072340    -2.2197810    -0.3093320
  C        2.5023020     0.6131830     0.7097540
  H       -2.8885640     1.2560570     0.2350690
  H       -1.3937740    -2.7714120     0.2029680
  H        1.5916390     1.5501200    -0.8540680
  H       -3.2895990    -1.1861590     0.4450020
  H        0.2351210     2.8885850     0.4923550
  H       -0.2380210     2.8365620    -1.2118290
  H       -1.4595390     3.0868260     0.0338520
  H        1.9415750    -1.8136360    -1.0094830
  H        1.7264620    -2.4417900     0.6300600
  H        0.8237630    -3.1662910    -0.7010550
  H        2.0935470     1.1833990     1.5571020
  H        3.4676080     1.0418550     0.4271840
  H        2.6734620    -0.4116070     1.0419720
units angstrom
no_reorient  #important for SAPT in psi4, default
symmetry c1  #important for SAPT in psi4, default
}

set PROPERTIES_ORIGIN ["COM"]
properties('MP2/aug-cc-pvtz', properties = ['dipole'])
--------------------------------------------------------------------------

    Molecular point group: c1
  Charge       = 0
  Multiplicity = 1
  Basis Set: AUG-CC-PVTZ
    Blend: AUG-CC-PVTZ
  Basis Set: (AUG-CC-PVTZ AUX)
    Blend: AUG-CC-PVTZ-JKFIT

    Orbital Energies [Eh]
    ---------------------

    Doubly Occupied:

       1A    -15.553343     2A    -11.256052     3A    -11.249441
       4A    -11.236363     5A    -11.231228     6A    -11.228518
       7A    -11.225432     8A    -11.224647     9A    -11.223629
      10A    -11.214358    11A     -1.227139    12A     -1.130981
      13A     -1.053140    14A     -1.012829    15A     -0.945851
      16A     -0.921167    17A     -0.892620    18A     -0.795751
      19A     -0.781157    20A     -0.692991    21A     -0.660019
      22A     -0.629692    23A     -0.603453    24A     -0.591564
      25A     -0.579532    26A     -0.567995    27A     -0.565595
      28A     -0.556173    29A     -0.551241    30A     -0.530470
      31A     -0.521253    32A     -0.482767    33A     -0.478869
      34A     -0.471207    35A     -0.402423    36A     -0.316006
      37A     -0.305003

  @DF-RHF Final Energy:  -402.96161803562973

   => Energetics <=

    Nuclear Repulsion Energy =            521.5184779940641420
    One-Electron Energy =               -1579.1403983664456518
    Two-Electron Energy =                 654.6603023367517835
    Total Energy =                       -402.9616180356297264
  Basis Set: (AUG-CC-PVTZ AUX)
    Blend: AUG-CC-PVTZ-RI
    Molecular point group: c1

    Geometry (in Angstrom), charge = 0, multiplicity = 1:

       Center              X                  Y                   Z               Mass
    ------------   -----------------  -----------------  -----------------  -----------------
         N            1.665322525707     0.622270949103    -0.459805969522    14.003074004430
         C            0.341588525707     0.161887949103    -0.197103969522    12.000000000000
         C           -0.732116474293     1.069410949103    -0.074673969522    12.000000000000
         C            0.122247025707    -1.207508450897    -0.106903969522    12.000000000000
         C           -2.019426474293     0.571510949103     0.151191030478    12.000000000000
         C           -1.179115474293    -1.685603050897     0.143761030478    12.000000000000
         C           -2.246552474293    -0.798709050897     0.271648030478    12.000000000000
         C           -0.502202474293     2.555936949103    -0.189709969522    12.000000000000
         C            1.245718525707    -2.206472050897    -0.299738969522    12.000000000000
         C            2.540786525707     0.626491949103     0.719347030478    12.000000000000
         H           -2.850079474293     1.269365949103     0.244662030478     1.007825032230
         H           -1.355289474293    -2.758103050897     0.212561030478     1.007825032230
         H            1.630123525707     1.563428949103    -0.844474969522     1.007825032230
         H           -3.251114474293    -1.172850050897     0.454595030478     1.007825032230
         H            0.273605525707     2.901893949103     0.501948030478     1.007825032230
         H           -0.199536474293     2.849870949103    -1.202235969522     1.007825032230
         H           -1.421054474293     3.100134949103     0.043445030478     1.007825032230
         H            1.980059525707    -1.800327050897    -0.999889969522     1.007825032230
         H            1.764946525707    -2.428481050897     0.639653030478     1.007825032230
         H            0.862247525707    -3.152982050897    -0.691461969522     1.007825032230
         H            2.132031525707     1.196707949103     1.566695030478     1.007825032230
         H            3.506092525707     1.055163949103     0.436777030478     1.007825032230
         H            2.711946525707    -0.398298050897     1.051565030478     1.007825032230

  Basis Set: AUG-CC-PVTZ
    Blend: AUG-CC-PVTZ
  Basis Set: (AUG-CC-PVTZ AUX)
    Blend: AUG-CC-PVTZ-JKFIT
	 Reference Energy          =    -402.9616180356297264 [Eh]
	 Singles Energy            =      -0.0000000000000000 [Eh]
	 Same-Spin Energy          =      -0.4478505402239648 [Eh]
	 Opposite-Spin Energy      =      -1.4657860078928335 [Eh]
	 Correlation Energy        =      -1.9136365481167983 [Eh]
	 Total Energy              =    -404.8752545837465391 [Eh]

	 ================> DF-SCS-MP2 Energies <==================
	-----------------------------------------------------------
	 SCS Same-Spin Scale       =       0.3333333333333333 [-]
	 SCS Opposite-Spin Scale   =       1.2000000000000000 [-]
	 SCS Same-Spin Energy      =      -0.1492835134079883 [Eh]
	 SCS Opposite-Spin Energy  =      -1.7589432094714001 [Eh]
	 SCS Correlation Energy    =      -1.9082267228793883 [Eh]
	 SCS Total Energy          =    -404.8698447585090889 [Eh]
	-----------------------------------------------------------

  Dipole Moment: [D]
     X:     0.5116      Y:     1.0736      Z:     0.5240     Total:     1.2996

*** Psi4 exiting successfully. Buy a developer a beer!
