                               Psi4 1.4a3.dev225

  ==> Input File <==

--------------------------------------------------------------------------
#psi4
#
memory 32 gb

molecule  {
0 1
  N        1.6268380     0.6089620    -0.4693990
  C        0.3031040     0.1485790    -0.2066970
  C       -0.7706010     1.0561020    -0.0842670
  C        0.0806060    -1.2405240    -0.1151990
  C       -2.0579110     0.5582020     0.1415980
  C       -1.2176000    -1.6989120     0.1341680
  C       -2.2850370    -0.8120180     0.2620550
  C       -0.5406870     2.5426280    -0.1993030
  C        1.2072340    -2.2197810    -0.3093320
  C        2.5023020     0.6131830     0.7097540
  H       -2.8885640     1.2560570     0.2350690
  H       -1.3937740    -2.7714120     0.2029680
  H        1.5916390     1.5501200    -0.8540680
  H       -3.2895990    -1.1861590     0.4450020
  H        0.2351210     2.8885850     0.4923550
  H       -0.2380210     2.8365620    -1.2118290
  H       -1.4595390     3.0868260     0.0338520
  H        1.9278523    -1.8119183    -1.0226196
  H        1.7264620    -2.4417900     0.6300600
  H        0.8237630    -3.1662910    -0.7010550
  H        2.0935470     1.1833990     1.5571020
  H        3.4676080     1.0418550     0.4271840
  H        2.6734620    -0.4116070     1.0419720
units angstrom
no_reorient  #important for SAPT in psi4, default
symmetry c1  #important for SAPT in psi4, default
}

set PROPERTIES_ORIGIN ["COM"]
properties('MP2/aug-cc-pvtz', properties = ['dipole'])
--------------------------------------------------------------------------

    Molecular point group: c1
  Charge       = 0
  Multiplicity = 1
  Basis Set: AUG-CC-PVTZ
    Blend: AUG-CC-PVTZ
  Basis Set: (AUG-CC-PVTZ AUX)
    Blend: AUG-CC-PVTZ-JKFIT

    Orbital Energies [Eh]
    ---------------------

    Doubly Occupied:

       1A    -15.553790     2A    -11.258198     3A    -11.249591
       4A    -11.235877     5A    -11.231901     6A    -11.228371
       7A    -11.225355     8A    -11.224172     9A    -11.222941
      10A    -11.214097    11A     -1.226540    12A     -1.130810
      13A     -1.054414    14A     -1.012422    15A     -0.945322
      16A     -0.922094    17A     -0.892026    18A     -0.794611
      19A     -0.781133    20A     -0.692543    21A     -0.660545
      22A     -0.629541    23A     -0.603501    24A     -0.591476
      25A     -0.578716    26A     -0.569518    27A     -0.565487
      28A     -0.556748    29A     -0.552135    30A     -0.530739
      31A     -0.520578    32A     -0.485005    33A     -0.476971
      34A     -0.470950    35A     -0.402437    36A     -0.317107
      37A     -0.302740

  @DF-RHF Final Energy:  -402.96170908035418

   => Energetics <=

    Nuclear Repulsion Energy =            521.3236391016195057
    One-Electron Energy =               -1578.7498914468351359
    Two-Electron Energy =                 654.4645432648616179
    Total Energy =                       -402.9617090803541259
  Basis Set: (AUG-CC-PVTZ AUX)
    Blend: AUG-CC-PVTZ-RI
    Molecular point group: c1

    Geometry (in Angstrom), charge = 0, multiplicity = 1:

       Center              X                  Y                   Z               Mass
    ------------   -----------------  -----------------  -----------------  -----------------
         N            1.665705251419     0.624008474786    -0.459823264286    14.003074004430
         C            0.341971251419     0.163625474786    -0.197121264286    12.000000000000
         C           -0.731733748581     1.071148474786    -0.074691264286    12.000000000000
         C            0.119473251419    -1.225477525214    -0.105623264286    12.000000000000
         C           -2.019043748581     0.573248474786     0.151173735714    12.000000000000
         C           -1.178732748581    -1.683865525214     0.143743735714    12.000000000000
         C           -2.246169748581    -0.796971525214     0.271630735714    12.000000000000
         C           -0.501819748581     2.557674474786    -0.189727264286    12.000000000000
         C            1.246101251419    -2.204734525214    -0.299756264286    12.000000000000
         C            2.541169251419     0.628229474786     0.719329735714    12.000000000000
         H           -2.849696748581     1.271103474786     0.244644735714     1.007825032230
         H           -1.354906748581    -2.756365525214     0.212543735714     1.007825032230
         H            1.630506251419     1.565166474786    -0.844492264286     1.007825032230
         H           -3.250731748581    -1.171112525214     0.454577735714     1.007825032230
         H            0.273988251419     2.903631474786     0.501930735714     1.007825032230
         H           -0.199153748581     2.851608474786    -1.202253264286     1.007825032230
         H           -1.420671748581     3.101872474786     0.043427735714     1.007825032230
         H            1.966719551419    -1.796871825214    -1.013043864286     1.007825032230
         H            1.765329251419    -2.426743525214     0.639635735714     1.007825032230
         H            0.862630251419    -3.151244525214    -0.691479264286     1.007825032230
         H            2.132414251419     1.198445474786     1.566677735714     1.007825032230
         H            3.506475251419     1.056901474786     0.436759735714     1.007825032230
         H            2.712329251419    -0.396560525214     1.051547735714     1.007825032230

  Basis Set: AUG-CC-PVTZ
    Blend: AUG-CC-PVTZ
  Basis Set: (AUG-CC-PVTZ AUX)
    Blend: AUG-CC-PVTZ-JKFIT
	 Reference Energy          =    -402.9617090803541828 [Eh]
	 Singles Energy            =      -0.0000000000000000 [Eh]
	 Same-Spin Energy          =      -0.4479925306662468 [Eh]
	 Opposite-Spin Energy      =      -1.4659338723513091 [Eh]
	 Correlation Energy        =      -1.9139264030175558 [Eh]
	 Total Energy              =    -404.8756354833717523 [Eh]

	 ================> DF-SCS-MP2 Energies <==================
	-----------------------------------------------------------
	 SCS Same-Spin Scale       =       0.3333333333333333 [-]
	 SCS Opposite-Spin Scale   =       1.2000000000000000 [-]
	 SCS Same-Spin Energy      =      -0.1493308435554156 [Eh]
	 SCS Opposite-Spin Energy  =      -1.7591206468215710 [Eh]
	 SCS Correlation Energy    =      -1.9084514903769865 [Eh]
	 SCS Total Energy          =    -404.8701605707311728 [Eh]
	-----------------------------------------------------------

  Dipole Moment: [D]
     X:     0.5354      Y:     1.0711      Z:     0.5173     Total:     1.3044

*** Psi4 exiting successfully. Buy a developer a beer!
