                               Psi4 1.4a3.dev225

  ==> Input File <==

--------------------------------------------------------------------------
#psi4
#
memory 32 gb

molecule  {
0 1
  N        1.6268380     0.6089620    -0.4693990
  C        0.3031040     0.1485790    -0.2066970
  C       -0.7706010     1.0561020    -0.0842670
  C        0.0806060    -1.2405240    -0.1151990
  C       -2.0579110     0.5582020     0.1415980
  C       -1.2176000    -1.6989120     0.1341680
  C       -2.2850370    -0.8120180     0.2620550
  C       -0.5406870     2.5426280    -0.1993030
  C        1.0575456    -2.0896730    -0.2835387
  C        2.5023020     0.6131830     0.7097540
  H       -2.8885640     1.2560570     0.2350690
  H       -1.3937740    -2.7714120     0.2029680
  H        1.5916390     1.5501200    -0.8540680
  H       -3.2895990    -1.1861590     0.4450020
  H        0.2351210     2.8885850     0.4923550
  H       -0.2380210     2.8365620    -1.2118290
  H       -1.4595390     3.0868260     0.0338520
  H        1.9415750    -1.8136360    -1.0094830
  H        1.7264620    -2.4417900     0.6300600
  H        0.8237630    -3.1662910    -0.7010550
  H        2.0935470     1.1833990     1.5571020
  H        3.4676080     1.0418550     0.4271840
  H        2.6734620    -0.4116070     1.0419720
units angstrom
no_reorient  #important for SAPT in psi4, default
symmetry c1  #important for SAPT in psi4, default
}

set PROPERTIES_ORIGIN ["COM"]
properties('MP2/aug-cc-pvtz', properties = ['dipole'])
--------------------------------------------------------------------------

    Molecular point group: c1
  Charge       = 0
  Multiplicity = 1
  Basis Set: AUG-CC-PVTZ
    Blend: AUG-CC-PVTZ
  Basis Set: (AUG-CC-PVTZ AUX)
    Blend: AUG-CC-PVTZ-JKFIT

    Orbital Energies [Eh]
    ---------------------

    Doubly Occupied:

       1A    -15.554786     2A    -11.259583     3A    -11.249304
       4A    -11.236903     5A    -11.228990     6A    -11.226611
       7A    -11.225234     8A    -11.224070     9A    -11.223731
      10A    -11.219449    11A     -1.230054    12A     -1.139243
      13A     -1.077507    14A     -1.020090    15A     -0.946452
      16A     -0.921334    17A     -0.888395    18A     -0.799644
      19A     -0.776578    20A     -0.693726    21A     -0.669203
      22A     -0.641432    23A     -0.612820    24A     -0.592974
      25A     -0.591672    26A     -0.568553    27A     -0.563780
      28A     -0.556580    29A     -0.549051    30A     -0.530881
      31A     -0.502634    32A     -0.497815    33A     -0.459332
      34A     -0.457147    35A     -0.402596    36A     -0.313080
      37A     -0.300643

  @DF-RHF Final Energy:  -402.90919919103038

   => Energetics <=

    Nuclear Repulsion Energy =            525.1843393128334583
    One-Electron Energy =               -1586.2833273549783826
    Two-Electron Energy =                 658.1897888511143719
    Total Energy =                       -402.9091991910304387
  Basis Set: (AUG-CC-PVTZ AUX)
    Blend: AUG-CC-PVTZ-RI
    Molecular point group: c1

    Geometry (in Angstrom), charge = 0, multiplicity = 1:

       Center              X                  Y                   Z               Mass
    ------------   -----------------  -----------------  -----------------  -----------------
         N            1.678898200352     0.612465103524    -0.462212217126    14.003074004430
         C            0.355164200352     0.152082103524    -0.199510217126    12.000000000000
         C           -0.718540799648     1.059605103524    -0.077080217126    12.000000000000
         C            0.132666200352    -1.237020896476    -0.108012217126    12.000000000000
         C           -2.005850799648     0.561705103524     0.148784782874    12.000000000000
         C           -1.165539799648    -1.695408896476     0.141354782874    12.000000000000
         C           -2.232976799648    -0.808514896476     0.269241782874    12.000000000000
         C           -0.488626799648     2.546131103524    -0.192116217126    12.000000000000
         C            1.109605800352    -2.086169896476    -0.276351917126    12.000000000000
         C            2.554362200352     0.616686103524     0.716940782874    12.000000000000
         H           -2.836503799648     1.259560103524     0.242255782874     1.007825032230
         H           -1.341713799648    -2.767908896476     0.210154782874     1.007825032230
         H            1.643699200352     1.553623103524    -0.846881217126     1.007825032230
         H           -3.237538799648    -1.182655896476     0.452188782874     1.007825032230
         H            0.287181200352     2.892088103524     0.499541782874     1.007825032230
         H           -0.185960799648     2.840065103524    -1.204642217126     1.007825032230
         H           -1.407478799648     3.090329103524     0.041038782874     1.007825032230
         H            1.993635200352    -1.810132896476    -1.002296217126     1.007825032230
         H            1.778522200352    -2.438286896476     0.637246782874     1.007825032230
         H            0.875823200352    -3.162787896476    -0.693868217126     1.007825032230
         H            2.145607200352     1.186902103524     1.564288782874     1.007825032230
         H            3.519668200352     1.045358103524     0.434370782874     1.007825032230
         H            2.725522200352    -0.408103896476     1.049158782874     1.007825032230

  Basis Set: AUG-CC-PVTZ
    Blend: AUG-CC-PVTZ
  Basis Set: (AUG-CC-PVTZ AUX)
    Blend: AUG-CC-PVTZ-JKFIT
	 Reference Energy          =    -402.9091991910303818 [Eh]
	 Singles Energy            =      -0.0000000000000000 [Eh]
	 Same-Spin Energy          =      -0.4518840858650026 [Eh]
	 Opposite-Spin Energy      =      -1.4708360022299418 [Eh]
	 Correlation Energy        =      -1.9227200880949444 [Eh]
	 Total Energy              =    -404.8319192791253158 [Eh]

	 ================> DF-SCS-MP2 Energies <==================
	-----------------------------------------------------------
	 SCS Same-Spin Scale       =       0.3333333333333333 [-]
	 SCS Opposite-Spin Scale   =       1.2000000000000000 [-]
	 SCS Same-Spin Energy      =      -0.1506280286216675 [Eh]
	 SCS Opposite-Spin Energy  =      -1.7650032026759301 [Eh]
	 SCS Correlation Energy    =      -1.9156312312975976 [Eh]
	 SCS Total Energy          =    -404.8248304223279774 [Eh]
	-----------------------------------------------------------

  Dipole Moment: [D]
     X:     0.5377      Y:     1.1227      Z:     0.5123     Total:     1.3461

*** Psi4 exiting successfully. Buy a developer a beer!
