                               Psi4 1.4a3.dev225

  ==> Input File <==

--------------------------------------------------------------------------
#psi4
#
memory 32 gb

molecule  {
0 1
  N        1.6268380     0.6089620    -0.4693990
  C        0.3301513     0.1357291    -0.1117810
  C       -0.7706010     1.0561020    -0.0842670
  C        0.0806060    -1.2405240    -0.1151990
  C       -2.0579110     0.5582020     0.1415980
  C       -1.2176000    -1.6989120     0.1341680
  C       -2.2850370    -0.8120180     0.2620550
  C       -0.5406870     2.5426280    -0.1993030
  C        1.2072340    -2.2197810    -0.3093320
  C        2.5023020     0.6131830     0.7097540
  H       -2.8885640     1.2560570     0.2350690
  H       -1.3937740    -2.7714120     0.2029680
  H        1.5916390     1.5501200    -0.8540680
  H       -3.2895990    -1.1861590     0.4450020
  H        0.2351210     2.8885850     0.4923550
  H       -0.2380210     2.8365620    -1.2118290
  H       -1.4595390     3.0868260     0.0338520
  H        1.9415750    -1.8136360    -1.0094830
  H        1.7264620    -2.4417900     0.6300600
  H        0.8237630    -3.1662910    -0.7010550
  H        2.0935470     1.1833990     1.5571020
  H        3.4676080     1.0418550     0.4271840
  H        2.6734620    -0.4116070     1.0419720
units angstrom
no_reorient  #important for SAPT in psi4, default
symmetry c1  #important for SAPT in psi4, default
}

set PROPERTIES_ORIGIN ["COM"]
properties('MP2/aug-cc-pvtz', properties = ['dipole'])
--------------------------------------------------------------------------

    Molecular point group: c1
  Charge       = 0
  Multiplicity = 1
  Basis Set: AUG-CC-PVTZ
    Blend: AUG-CC-PVTZ
  Basis Set: (AUG-CC-PVTZ AUX)
    Blend: AUG-CC-PVTZ-JKFIT

    Orbital Energies [Eh]
    ---------------------

    Doubly Occupied:

       1A    -15.554634     2A    -11.258580     3A    -11.248149
       4A    -11.239003     5A    -11.231430     6A    -11.228929
       7A    -11.225443     8A    -11.224243     9A    -11.223089
      10A    -11.213706    11A     -1.227943    12A     -1.130585
      13A     -1.054217    14A     -1.012135    15A     -0.943611
      16A     -0.922116    17A     -0.891015    18A     -0.796868
      19A     -0.777992    20A     -0.694931    21A     -0.659854
      22A     -0.632029    23A     -0.600790    24A     -0.591037
      25A     -0.579424    26A     -0.569144    27A     -0.564537
      28A     -0.556494    29A     -0.551544    30A     -0.530445
      31A     -0.520520    32A     -0.484140    33A     -0.479295
      34A     -0.468325    35A     -0.402740    36A     -0.316549
      37A     -0.302889

  @DF-RHF Final Energy:  -402.95651109000477

   => Energetics <=

    Nuclear Repulsion Energy =            521.3516454932689612
    One-Electron Energy =               -1578.7995642366440734
    Two-Electron Energy =                 654.4914076533704019
    Total Energy =                       -402.9565110900047102
  Basis Set: (AUG-CC-PVTZ AUX)
    Blend: AUG-CC-PVTZ-RI
    Molecular point group: c1

    Geometry (in Angstrom), charge = 0, multiplicity = 1:

       Center              X                  Y                   Z               Mass
    ------------   -----------------  -----------------  -----------------  -----------------
         N            1.663200546316     0.625162615436    -0.468351691102    14.003074004430
         C            0.366513846316     0.151929715436    -0.110733691102    12.000000000000
         C           -0.734238453684     1.072302615436    -0.083219691102    12.000000000000
         C            0.116968546316    -1.224323384564    -0.114151691102    12.000000000000
         C           -2.021548453684     0.574402615436     0.142645308898    12.000000000000
         C           -1.181237453684    -1.682711384564     0.135215308898    12.000000000000
         C           -2.248674453684    -0.795817384564     0.263102308898    12.000000000000
         C           -0.504324453684     2.558828615436    -0.198255691102    12.000000000000
         C            1.243596546316    -2.203580384564    -0.308284691102    12.000000000000
         C            2.538664546316     0.629383615436     0.710801308898    12.000000000000
         H           -2.852201453684     1.272257615436     0.236116308898     1.007825032230
         H           -1.357411453684    -2.755211384564     0.204015308898     1.007825032230
         H            1.628001546316     1.566320615436    -0.853020691102     1.007825032230
         H           -3.253236453684    -1.169958384564     0.446049308898     1.007825032230
         H            0.271483546316     2.904785615436     0.493402308898     1.007825032230
         H           -0.201658453684     2.852762615436    -1.210781691102     1.007825032230
         H           -1.423176453684     3.103026615436     0.034899308898     1.007825032230
         H            1.977937546316    -1.797435384564    -1.008435691102     1.007825032230
         H            1.762824546316    -2.425589384564     0.631107308898     1.007825032230
         H            0.860125546316    -3.150090384564    -0.700007691102     1.007825032230
         H            2.129909546316     1.199599615436     1.558149308898     1.007825032230
         H            3.503970546316     1.058055615436     0.428231308898     1.007825032230
         H            2.709824546316    -0.395406384564     1.043019308898     1.007825032230

  Basis Set: AUG-CC-PVTZ
    Blend: AUG-CC-PVTZ
  Basis Set: (AUG-CC-PVTZ AUX)
    Blend: AUG-CC-PVTZ-JKFIT
	 Reference Energy          =    -402.9565110900047671 [Eh]
	 Singles Energy            =      -0.0000000000000000 [Eh]
	 Same-Spin Energy          =      -0.4483350829681555 [Eh]
	 Opposite-Spin Energy      =      -1.4667456732232438 [Eh]
	 Correlation Energy        =      -1.9150807561913994 [Eh]
	 Total Energy              =    -404.8715918461961678 [Eh]

	 ================> DF-SCS-MP2 Energies <==================
	-----------------------------------------------------------
	 SCS Same-Spin Scale       =       0.3333333333333333 [-]
	 SCS Opposite-Spin Scale   =       1.2000000000000000 [-]
	 SCS Same-Spin Energy      =      -0.1494450276560518 [Eh]
	 SCS Opposite-Spin Energy  =      -1.7600948078678924 [Eh]
	 SCS Correlation Energy    =      -1.9095398355239441 [Eh]
	 SCS Total Energy          =    -404.8660509255287252 [Eh]
	-----------------------------------------------------------

  Dipole Moment: [D]
     X:     0.5138      Y:     1.0856      Z:     0.5031     Total:     1.3022

*** Psi4 exiting successfully. Buy a developer a beer!
