                               Psi4 1.4a3.dev225

  ==> Input File <==

--------------------------------------------------------------------------
#psi4
#
memory 32 gb

molecule  {
0 1
  N        1.6268380     0.6089620    -0.4693990
  C        0.3031040     0.1485790    -0.2066970
  C       -0.7706010     1.0561020    -0.0842670
  C        0.0806060    -1.2405240    -0.1151990
  C       -2.1531931     0.5718005     0.1559306
  C       -1.2176000    -1.6989120     0.1341680
  C       -2.2850370    -0.8120180     0.2620550
  C       -0.5406870     2.5426280    -0.1993030
  C        1.2072340    -2.2197810    -0.3093320
  C        2.5023020     0.6131830     0.7097540
  H       -2.8885640     1.2560570     0.2350690
  H       -1.3937740    -2.7714120     0.2029680
  H        1.5916390     1.5501200    -0.8540680
  H       -3.2895990    -1.1861590     0.4450020
  H        0.2351210     2.8885850     0.4923550
  H       -0.2380210     2.8365620    -1.2118290
  H       -1.4595390     3.0868260     0.0338520
  H        1.9415750    -1.8136360    -1.0094830
  H        1.7264620    -2.4417900     0.6300600
  H        0.8237630    -3.1662910    -0.7010550
  H        2.0935470     1.1833990     1.5571020
  H        3.4676080     1.0418550     0.4271840
  H        2.6734620    -0.4116070     1.0419720
units angstrom
no_reorient  #important for SAPT in psi4, default
symmetry c1  #important for SAPT in psi4, default
}

set PROPERTIES_ORIGIN ["COM"]
properties('MP2/aug-cc-pvtz', properties = ['dipole'])
--------------------------------------------------------------------------

    Molecular point group: c1
  Charge       = 0
  Multiplicity = 1
  Basis Set: AUG-CC-PVTZ
    Blend: AUG-CC-PVTZ
  Basis Set: (AUG-CC-PVTZ AUX)
    Blend: AUG-CC-PVTZ-JKFIT

    Orbital Energies [Eh]
    ---------------------

    Doubly Occupied:

       1A    -15.553859     2A    -11.257698     3A    -11.249489
       4A    -11.244341     5A    -11.235175     6A    -11.227820
       7A    -11.227326     8A    -11.226078     9A    -11.222924
      10A    -11.215095    11A     -1.225779    12A     -1.124585
      13A     -1.050095    14A     -1.013530    15A     -0.945458
      16A     -0.922395    17A     -0.891406    18A     -0.789612
      19A     -0.787838    20A     -0.694740    21A     -0.661579
      22A     -0.625956    23A     -0.608621    24A     -0.591862
      25A     -0.585059    26A     -0.570211    27A     -0.565049
      28A     -0.556825    29A     -0.555306    30A     -0.529608
      31A     -0.518439    32A     -0.490997    33A     -0.468476
      34A     -0.465764    35A     -0.402987    36A     -0.309975
      37A     -0.304767

  @DF-RHF Final Energy:  -402.94871820845469

   => Energetics <=

    Nuclear Repulsion Energy =            519.5462316544983423
    One-Electron Energy =               -1575.1564440057086358
    Two-Electron Energy =                 652.6614941427556005
    Total Energy =                       -402.9487182084546930
  Basis Set: (AUG-CC-PVTZ AUX)
    Blend: AUG-CC-PVTZ-RI
    Molecular point group: c1

    Geometry (in Angstrom), charge = 0, multiplicity = 1:

       Center              X                  Y                   Z               Mass
    ------------   -----------------  -----------------  -----------------  -----------------
         N            1.674065836122     0.622813470170    -0.461194278455    14.003074004430
         C            0.350331836122     0.162430470170    -0.198492278455    12.000000000000
         C           -0.723373163878     1.069953470170    -0.076062278455    12.000000000000
         C            0.127833836122    -1.226672529830    -0.106994278455    12.000000000000
         C           -2.105965263878     0.585651970170     0.164135321545    12.000000000000
         C           -1.170372163878    -1.685060529830     0.142372721545    12.000000000000
         C           -2.237809163878    -0.798166529830     0.270259721545    12.000000000000
         C           -0.493459163878     2.556479470170    -0.191098278455    12.000000000000
         C            1.254461836122    -2.205929529830    -0.301127278455    12.000000000000
         C            2.549529836122     0.627034470170     0.717958721545    12.000000000000
         H           -2.841336163878     1.269908470170     0.243273721545     1.007825032230
         H           -1.346546163878    -2.757560529830     0.211172721545     1.007825032230
         H            1.638866836122     1.563971470170    -0.845863278455     1.007825032230
         H           -3.242371163878    -1.172307529830     0.453206721545     1.007825032230
         H            0.282348836122     2.902436470170     0.500559721545     1.007825032230
         H           -0.190793163878     2.850413470170    -1.203624278455     1.007825032230
         H           -1.412311163878     3.100677470170     0.042056721545     1.007825032230
         H            1.988802836122    -1.799784529830    -1.001278278455     1.007825032230
         H            1.773689836122    -2.427938529830     0.638264721545     1.007825032230
         H            0.870990836122    -3.152439529830    -0.692850278455     1.007825032230
         H            2.140774836122     1.197250470170     1.565306721545     1.007825032230
         H            3.514835836122     1.055706470170     0.435388721545     1.007825032230
         H            2.720689836122    -0.397755529830     1.050176721545     1.007825032230

  Basis Set: AUG-CC-PVTZ
    Blend: AUG-CC-PVTZ
  Basis Set: (AUG-CC-PVTZ AUX)
    Blend: AUG-CC-PVTZ-JKFIT
	 Reference Energy          =    -402.9487182084546930 [Eh]
	 Singles Energy            =      -0.0000000000000000 [Eh]
	 Same-Spin Energy          =      -0.4480126977376891 [Eh]
	 Opposite-Spin Energy      =      -1.4667708352704301 [Eh]
	 Correlation Energy        =      -1.9147835330081193 [Eh]
	 Total Energy              =    -404.8635017414628123 [Eh]

	 ================> DF-SCS-MP2 Energies <==================
	-----------------------------------------------------------
	 SCS Same-Spin Scale       =       0.3333333333333333 [-]
	 SCS Opposite-Spin Scale   =       1.2000000000000000 [-]
	 SCS Same-Spin Energy      =      -0.1493375659125630 [Eh]
	 SCS Opposite-Spin Energy  =      -1.7601250023245161 [Eh]
	 SCS Correlation Energy    =      -1.9094625682370792 [Eh]
	 SCS Total Energy          =    -404.8581807766917677 [Eh]
	-----------------------------------------------------------

  Dipole Moment: [D]
     X:     0.5482      Y:     1.0726      Z:     0.5208     Total:     1.3123

*** Psi4 exiting successfully. Buy a developer a beer!
