                               Psi4 1.4a3.dev225

  ==> Input File <==

--------------------------------------------------------------------------
#psi4
#
memory 32 gb

molecule  {
0 1
  N        1.6268380     0.6089620    -0.4693990
  C        0.3031040     0.1485790    -0.2066970
  C       -0.7706010     1.0561020    -0.0842670
  C        0.0806060    -1.2405240    -0.1151990
  C       -2.0579110     0.5582020     0.1415980
  C       -1.2176000    -1.6989120     0.1341680
  C       -2.2850370    -0.8120180     0.2620550
  C       -0.5406870     2.5426280    -0.1993030
  C        1.2072340    -2.2197810    -0.3093320
  C        2.5023020     0.6131830     0.7097540
  H       -2.8885640     1.2560570     0.2350690
  H       -1.3937740    -2.7714120     0.2029680
  H        1.5916390     1.5501200    -0.8540680
  H       -3.2895990    -1.1861590     0.4450020
  H        0.2351210     2.8885850     0.4923550
  H       -0.2380210     2.8365620    -1.2118290
  H       -1.4595390     3.0868260     0.0338520
  H        1.9415750    -1.8136360    -1.0094830
  H        1.7264620    -2.4417900     0.6300600
  H        0.8237630    -3.1662910    -0.7010550
  H        2.0935470     1.1833990     1.5571020
  H        3.4676080     1.0418550     0.4271840
  H        2.6577709    -0.3176591     1.0115158
units angstrom
no_reorient  #important for SAPT in psi4, default
symmetry c1  #important for SAPT in psi4, default
}

set PROPERTIES_ORIGIN ["COM"]
properties('MP2/aug-cc-pvtz', properties = ['dipole'])
--------------------------------------------------------------------------

    Molecular point group: c1
  Charge       = 0
  Multiplicity = 1
  Basis Set: AUG-CC-PVTZ
    Blend: AUG-CC-PVTZ
  Basis Set: (AUG-CC-PVTZ AUX)
    Blend: AUG-CC-PVTZ-JKFIT

    Orbital Energies [Eh]
    ---------------------

    Doubly Occupied:

       1A    -15.552646     2A    -11.258011     3A    -11.237460
       4A    -11.235730     5A    -11.231957     6A    -11.228111
       7A    -11.225296     8A    -11.224144     9A    -11.222956
      10A    -11.214322    11A     -1.226566    12A     -1.130997
      13A     -1.054339    14A     -1.013145    15A     -0.949324
      16A     -0.922483    17A     -0.899307    18A     -0.795364
      19A     -0.781406    20A     -0.693542    21A     -0.660469
      22A     -0.629713    23A     -0.604246    24A     -0.597241
      25A     -0.579022    26A     -0.570527    27A     -0.566093
      28A     -0.556950    29A     -0.552418    30A     -0.537379
      31A     -0.521392    32A     -0.486333    33A     -0.477066
      34A     -0.470892    35A     -0.402481    36A     -0.317018
      37A     -0.302567

  @DF-RHF Final Energy:  -402.95574888415473

   => Energetics <=

    Nuclear Repulsion Energy =            521.7315000059905969
    One-Electron Energy =               -1579.5166717428833181
    Two-Electron Energy =                 654.8294228527379346
    Total Energy =                       -402.9557488841546729
  Basis Set: (AUG-CC-PVTZ AUX)
    Blend: AUG-CC-PVTZ-RI
    Molecular point group: c1

    Geometry (in Angstrom), charge = 0, multiplicity = 1:

       Center              X                  Y                   Z               Mass
    ------------   -----------------  -----------------  -----------------  -----------------
         N            1.665719934856     0.623320476249    -0.459694067348    14.003074004430
         C            0.341985934856     0.162937476249    -0.196992067348    12.000000000000
         C           -0.731719065144     1.070460476249    -0.074562067348    12.000000000000
         C            0.119487934856    -1.226165523751    -0.105494067348    12.000000000000
         C           -2.019029065144     0.572560476249     0.151302932652    12.000000000000
         C           -1.178718065144    -1.684553523751     0.143872932652    12.000000000000
         C           -2.246155065144    -0.797659523751     0.271759932652    12.000000000000
         C           -0.501805065144     2.556986476249    -0.189598067348    12.000000000000
         C            1.246115934856    -2.205422523751    -0.299627067348    12.000000000000
         C            2.541183934856     0.627541476249     0.719458932652    12.000000000000
         H           -2.849682065144     1.270415476249     0.244773932652     1.007825032230
         H           -1.354892065144    -2.757053523751     0.212672932652     1.007825032230
         H            1.630520934856     1.564478476249    -0.844363067348     1.007825032230
         H           -3.250717065144    -1.171800523751     0.454706932652     1.007825032230
         H            0.274002934856     2.902943476249     0.502059932652     1.007825032230
         H           -0.199139065144     2.850920476249    -1.202124067348     1.007825032230
         H           -1.420657065144     3.101184476249     0.043556932652     1.007825032230
         H            1.980456934856    -1.799277523751    -0.999778067348     1.007825032230
         H            1.765343934856    -2.427431523751     0.639764932652     1.007825032230
         H            0.862644934856    -3.151932523751    -0.691350067348     1.007825032230
         H            2.132428934856     1.197757476249     1.566806932652     1.007825032230
         H            3.506489934856     1.056213476249     0.436888932652     1.007825032230
         H            2.696652834856    -0.303300623751     1.021220732652     1.007825032230

  Basis Set: AUG-CC-PVTZ
    Blend: AUG-CC-PVTZ
  Basis Set: (AUG-CC-PVTZ AUX)
    Blend: AUG-CC-PVTZ-JKFIT
	 Reference Energy          =    -402.9557488841547297 [Eh]
	 Singles Energy            =      -0.0000000000000000 [Eh]
	 Same-Spin Energy          =      -0.4478625474181287 [Eh]
	 Opposite-Spin Energy      =      -1.4653116020031649 [Eh]
	 Correlation Energy        =      -1.9131741494212937 [Eh]
	 Total Energy              =    -404.8689230335760385 [Eh]

	 ================> DF-SCS-MP2 Energies <==================
	-----------------------------------------------------------
	 SCS Same-Spin Scale       =       0.3333333333333333 [-]
	 SCS Opposite-Spin Scale   =       1.2000000000000000 [-]
	 SCS Same-Spin Energy      =      -0.1492875158060429 [Eh]
	 SCS Opposite-Spin Energy  =      -1.7583739224037978 [Eh]
	 SCS Correlation Energy    =      -1.9076614382098407 [Eh]
	 SCS Total Energy          =    -404.8634103223645866 [Eh]
	-----------------------------------------------------------

  Dipole Moment: [D]
     X:     0.5629      Y:     1.0435      Z:     0.5442     Total:     1.3046

*** Psi4 exiting successfully. Buy a developer a beer!
