                               Psi4 1.4a3.dev225

  ==> Input File <==

--------------------------------------------------------------------------
#psi4
#
memory 32 gb

molecule  {
0 1
  N        1.6268380     0.6089620    -0.4693990
  C        0.3092658     0.1451536    -0.1828298
  C       -0.7706010     1.0561020    -0.0842670
  C        0.0806060    -1.2405240    -0.1151990
  C       -2.0579110     0.5582020     0.1415980
  C       -1.2176000    -1.6989120     0.1341680
  C       -2.2850370    -0.8120180     0.2620550
  C       -0.5406870     2.5426280    -0.1993030
  C        1.2072340    -2.2197810    -0.3093320
  C        2.5023020     0.6131830     0.7097540
  H       -2.8885640     1.2560570     0.2350690
  H       -1.3937740    -2.7714120     0.2029680
  H        1.5916390     1.5501200    -0.8540680
  H       -3.2895990    -1.1861590     0.4450020
  H        0.2351210     2.8885850     0.4923550
  H       -0.2380210     2.8365620    -1.2118290
  H       -1.4595390     3.0868260     0.0338520
  H        1.9415750    -1.8136360    -1.0094830
  H        1.7264620    -2.4417900     0.6300600
  H        0.8237630    -3.1662910    -0.7010550
  H        2.0935470     1.1833990     1.5571020
  H        3.4676080     1.0418550     0.4271840
  H        2.6734620    -0.4116070     1.0419720
units angstrom
no_reorient  #important for SAPT in psi4, default
symmetry c1  #important for SAPT in psi4, default
}

set PROPERTIES_ORIGIN ["COM"]
properties('MP2/aug-cc-pvtz', properties = ['dipole'])
--------------------------------------------------------------------------

    Molecular point group: c1
  Charge       = 0
  Multiplicity = 1
  Basis Set: AUG-CC-PVTZ
    Blend: AUG-CC-PVTZ
  Basis Set: (AUG-CC-PVTZ AUX)
    Blend: AUG-CC-PVTZ-JKFIT

    Orbital Energies [Eh]
    ---------------------

    Doubly Occupied:

       1A    -15.554054     2A    -11.258179     3A    -11.249271
       4A    -11.236509     5A    -11.231697     6A    -11.228524
       7A    -11.225350     8A    -11.224218     9A    -11.223032
      10A    -11.214021    11A     -1.226940    12A     -1.130842
      13A     -1.054381    14A     -1.012368    15A     -0.944999
      16A     -0.922126    17A     -0.891874    18A     -0.795248
      19A     -0.780631    20A     -0.693209    21A     -0.660533
      22A     -0.630143    23A     -0.602827    24A     -0.591394
      25A     -0.579017    26A     -0.568898    27A     -0.565160
      28A     -0.556686    29A     -0.552073    30A     -0.530722
      31A     -0.520946    32A     -0.485012    33A     -0.477652
      34A     -0.470443    35A     -0.402608    36A     -0.316998
      37A     -0.302870

  @DF-RHF Final Energy:  -402.96131410429712

   => Energetics <=

    Nuclear Repulsion Energy =            521.3491917361335481
    One-Electron Energy =               -1578.7981004704961379
    Two-Electron Energy =                 654.4875946300655869
    Total Energy =                       -402.9613141042971165
  Basis Set: (AUG-CC-PVTZ AUX)
    Blend: AUG-CC-PVTZ-RI
    Molecular point group: c1

    Geometry (in Angstrom), charge = 0, multiplicity = 1:

       Center              X                  Y                   Z               Mass
    ------------   -----------------  -----------------  -----------------  -----------------
         N            1.665055595145     0.624325531924    -0.462041141043    14.003074004430
         C            0.347483395145     0.160517131924    -0.175471941043    12.000000000000
         C           -0.732383404855     1.071465531924    -0.076909141043    12.000000000000
         C            0.118823595145    -1.225160468076    -0.107841141043    12.000000000000
         C           -2.019693404855     0.573565531924     0.148955858957    12.000000000000
         C           -1.179382404855    -1.683548468076     0.141525858957    12.000000000000
         C           -2.246819404855    -0.796654468076     0.269412858957    12.000000000000
         C           -0.502469404855     2.557991531924    -0.191945141043    12.000000000000
         C            1.245451595145    -2.204417468076    -0.301974141043    12.000000000000
         C            2.540519595145     0.628546531924     0.717111858957    12.000000000000
         H           -2.850346404855     1.271420531924     0.242426858957     1.007825032230
         H           -1.355556404855    -2.756048468076     0.210325858957     1.007825032230
         H            1.629856595145     1.565483531924    -0.846710141043     1.007825032230
         H           -3.251381404855    -1.170795468076     0.452359858957     1.007825032230
         H            0.273338595145     2.903948531924     0.499712858957     1.007825032230
         H           -0.199803404855     2.851925531924    -1.204471141043     1.007825032230
         H           -1.421321404855     3.102189531924     0.041209858957     1.007825032230
         H            1.979792595145    -1.798272468076    -1.002125141043     1.007825032230
         H            1.764679595145    -2.426426468076     0.637417858957     1.007825032230
         H            0.861980595145    -3.150927468076    -0.693697141043     1.007825032230
         H            2.131764595145     1.198762531924     1.564459858957     1.007825032230
         H            3.505825595145     1.057218531924     0.434541858957     1.007825032230
         H            2.711679595145    -0.396243468076     1.049329858957     1.007825032230

  Basis Set: AUG-CC-PVTZ
    Blend: AUG-CC-PVTZ
  Basis Set: (AUG-CC-PVTZ AUX)
    Blend: AUG-CC-PVTZ-JKFIT
	 Reference Energy          =    -402.9613141042971165 [Eh]
	 Singles Energy            =      -0.0000000000000000 [Eh]
	 Same-Spin Energy          =      -0.4480381965661228 [Eh]
	 Opposite-Spin Energy      =      -1.4660303697959325 [Eh]
	 Correlation Energy        =      -1.9140685663620554 [Eh]
	 Total Energy              =    -404.8753826706591781 [Eh]

	 ================> DF-SCS-MP2 Energies <==================
	-----------------------------------------------------------
	 SCS Same-Spin Scale       =       0.3333333333333333 [-]
	 SCS Opposite-Spin Scale   =       1.2000000000000000 [-]
	 SCS Same-Spin Energy      =      -0.1493460655220409 [Eh]
	 SCS Opposite-Spin Energy  =      -1.7592364437551189 [Eh]
	 SCS Correlation Energy    =      -1.9085825092771598 [Eh]
	 SCS Total Energy          =    -404.8698966135742694 [Eh]
	-----------------------------------------------------------

  Dipole Moment: [D]
     X:     0.5351      Y:     1.0772      Z:     0.5159     Total:     1.3088

*** Psi4 exiting successfully. Buy a developer a beer!
