                               Psi4 1.4a3.dev225

  ==> Input File <==

--------------------------------------------------------------------------
#psi4
#
memory 32 gb

molecule  {
0 1
  N        1.6268380     0.6089620    -0.4693990
  C        0.3031040     0.1485790    -0.2066970
  C       -0.7706010     1.0561020    -0.0842670
  C        0.0806060    -1.2405240    -0.1151990
  C       -2.0579110     0.5582020     0.1415980
  C       -1.2176000    -1.6989120     0.1341680
  C       -2.2850370    -0.8120180     0.2620550
  C       -0.5406870     2.5426280    -0.1993030
  C        1.2222028    -2.2327918    -0.3119113
  C        2.5023020     0.6131830     0.7097540
  H       -2.8885640     1.2560570     0.2350690
  H       -1.3937740    -2.7714120     0.2029680
  H        1.5916390     1.5501200    -0.8540680
  H       -3.2895990    -1.1861590     0.4450020
  H        0.2351210     2.8885850     0.4923550
  H       -0.2380210     2.8365620    -1.2118290
  H       -1.4595390     3.0868260     0.0338520
  H        1.9415750    -1.8136360    -1.0094830
  H        1.7264620    -2.4417900     0.6300600
  H        0.8237630    -3.1662910    -0.7010550
  H        2.0935470     1.1833990     1.5571020
  H        3.4676080     1.0418550     0.4271840
  H        2.6734620    -0.4116070     1.0419720
units angstrom
no_reorient  #important for SAPT in psi4, default
symmetry c1  #important for SAPT in psi4, default
}

set PROPERTIES_ORIGIN ["COM"]
properties('MP2/aug-cc-pvtz', properties = ['dipole'])
--------------------------------------------------------------------------

    Molecular point group: c1
  Charge       = 0
  Multiplicity = 1
  Basis Set: AUG-CC-PVTZ
    Blend: AUG-CC-PVTZ
  Basis Set: (AUG-CC-PVTZ AUX)
    Blend: AUG-CC-PVTZ-JKFIT

    Orbital Energies [Eh]
    ---------------------

    Doubly Occupied:

       1A    -15.553743     2A    -11.258165     3A    -11.249678
       4A    -11.235822     5A    -11.232883     6A    -11.228338
       7A    -11.225312     8A    -11.224165     9A    -11.222979
      10A    -11.213675    11A     -1.226341    12A     -1.130417
      13A     -1.052918    14A     -1.011602    15A     -0.945389
      16A     -0.922377    17A     -0.892420    18A     -0.794285
      19A     -0.781426    20A     -0.692506    21A     -0.660266
      22A     -0.628919    23A     -0.603027    24A     -0.591449
      25A     -0.577853    26A     -0.570821    27A     -0.565456
      28A     -0.556504    29A     -0.551743    30A     -0.530793
      31A     -0.523264    32A     -0.483256    33A     -0.477250
      34A     -0.471216    35A     -0.402430    36A     -0.317347
      37A     -0.302758

  @DF-RHF Final Energy:  -402.96169061266676

   => Energetics <=

    Nuclear Repulsion Energy =            520.9563992157799248
    One-Electron Energy =               -1578.0185928629975933
    Two-Electron Energy =                 654.1005030345507976
    Total Energy =                       -402.9616906126667573
  Basis Set: (AUG-CC-PVTZ AUX)
    Blend: AUG-CC-PVTZ-RI
    Molecular point group: c1

    Geometry (in Angstrom), charge = 0, multiplicity = 1:

       Center              X                  Y                   Z               Mass
    ------------   -----------------  -----------------  -----------------  -----------------
         N            1.664273357945     0.625176906564    -0.459692164534    14.003074004430
         C            0.340539357945     0.164793906564    -0.196990164534    12.000000000000
         C           -0.733165642055     1.072316906564    -0.074560164534    12.000000000000
         C            0.118041357945    -1.224309093436    -0.105492164534    12.000000000000
         C           -2.020475642055     0.574416906564     0.151304835466    12.000000000000
         C           -1.180164642055    -1.682697093436     0.143874835466    12.000000000000
         C           -2.247601642055    -0.795803093436     0.271761835466    12.000000000000
         C           -0.503251642055     2.558842906564    -0.189596164534    12.000000000000
         C            1.259638157945    -2.216576893436    -0.302204464534    12.000000000000
         C            2.539737357945     0.629397906564     0.719460835466    12.000000000000
         H           -2.851128642055     1.272271906564     0.244775835466     1.007825032230
         H           -1.356338642055    -2.755197093436     0.212674835466     1.007825032230
         H            1.629074357945     1.566334906564    -0.844361164534     1.007825032230
         H           -3.252163642055    -1.169944093436     0.454708835466     1.007825032230
         H            0.272556357945     2.904799906564     0.502061835466     1.007825032230
         H           -0.200585642055     2.852776906564    -1.202122164534     1.007825032230
         H           -1.422103642055     3.103040906564     0.043558835466     1.007825032230
         H            1.979010357945    -1.797421093436    -0.999776164534     1.007825032230
         H            1.763897357945    -2.425575093436     0.639766835466     1.007825032230
         H            0.861198357945    -3.150076093436    -0.691348164534     1.007825032230
         H            2.130982357945     1.199613906564     1.566808835466     1.007825032230
         H            3.505043357945     1.058069906564     0.436890835466     1.007825032230
         H            2.710897357945    -0.395392093436     1.051678835466     1.007825032230

  Basis Set: AUG-CC-PVTZ
    Blend: AUG-CC-PVTZ
  Basis Set: (AUG-CC-PVTZ AUX)
    Blend: AUG-CC-PVTZ-JKFIT
	 Reference Energy          =    -402.9616906126667573 [Eh]
	 Singles Energy            =      -0.0000000000000000 [Eh]
	 Same-Spin Energy          =      -0.4478173008205149 [Eh]
	 Opposite-Spin Energy      =      -1.4657799634271791 [Eh]
	 Correlation Energy        =      -1.9135972642476939 [Eh]
	 Total Energy              =    -404.8752878769144559 [Eh]

	 ================> DF-SCS-MP2 Energies <==================
	-----------------------------------------------------------
	 SCS Same-Spin Scale       =       0.3333333333333333 [-]
	 SCS Opposite-Spin Scale   =       1.2000000000000000 [-]
	 SCS Same-Spin Energy      =      -0.1492724336068383 [Eh]
	 SCS Opposite-Spin Energy  =      -1.7589359561126148 [Eh]
	 SCS Correlation Energy    =      -1.9082083897194531 [Eh]
	 SCS Total Energy          =    -404.8698990023862052 [Eh]
	-----------------------------------------------------------

  Dipole Moment: [D]
     X:     0.5355      Y:     1.0727      Z:     0.5218     Total:     1.3076

*** Psi4 exiting successfully. Buy a developer a beer!
