                               Psi4 1.4a3.dev225

  ==> Input File <==

--------------------------------------------------------------------------
#psi4
#
memory 32 gb

molecule  {
0 1
  N        1.6268380     0.6089620    -0.4693990
  C        0.3031040     0.1485790    -0.2066970
  C       -0.7706010     1.0561020    -0.0842670
  C        0.0884972    -1.1912574    -0.1184441
  C       -2.0579110     0.5582020     0.1415980
  C       -1.2176000    -1.6989120     0.1341680
  C       -2.2850370    -0.8120180     0.2620550
  C       -0.5406870     2.5426280    -0.1993030
  C        1.2072340    -2.2197810    -0.3093320
  C        2.5023020     0.6131830     0.7097540
  H       -2.8885640     1.2560570     0.2350690
  H       -1.3937740    -2.7714120     0.2029680
  H        1.5916390     1.5501200    -0.8540680
  H       -3.2895990    -1.1861590     0.4450020
  H        0.2351210     2.8885850     0.4923550
  H       -0.2380210     2.8365620    -1.2118290
  H       -1.4595390     3.0868260     0.0338520
  H        1.9415750    -1.8136360    -1.0094830
  H        1.7264620    -2.4417900     0.6300600
  H        0.8237630    -3.1662910    -0.7010550
  H        2.0935470     1.1833990     1.5571020
  H        3.4676080     1.0418550     0.4271840
  H        2.6734620    -0.4116070     1.0419720
units angstrom
no_reorient  #important for SAPT in psi4, default
symmetry c1  #important for SAPT in psi4, default
}

set PROPERTIES_ORIGIN ["COM"]
properties('MP2/aug-cc-pvtz', properties = ['dipole'])
--------------------------------------------------------------------------

    Molecular point group: c1
  Charge       = 0
  Multiplicity = 1
  Basis Set: AUG-CC-PVTZ
    Blend: AUG-CC-PVTZ
  Basis Set: (AUG-CC-PVTZ AUX)
    Blend: AUG-CC-PVTZ-JKFIT

    Orbital Energies [Eh]
    ---------------------

    Doubly Occupied:

       1A    -15.552640     2A    -11.252545     3A    -11.249139
       4A    -11.237052     5A    -11.229896     6A    -11.228717
       7A    -11.226279     8A    -11.225127     9A    -11.223945
      10A    -11.214751    11A     -1.228120    12A     -1.131270
      13A     -1.051366    14A     -1.013726    15A     -0.946502
      16A     -0.919764    17A     -0.893434    18A     -0.798105
      19A     -0.780172    20A     -0.693626    21A     -0.658919
      22A     -0.630044    23A     -0.603389    24A     -0.591735
      25A     -0.580627    26A     -0.567124    27A     -0.565625
      28A     -0.555425    29A     -0.549750    30A     -0.530142
      31A     -0.521630    32A     -0.483727    33A     -0.477011
      34A     -0.470705    35A     -0.402329    36A     -0.314912
      37A     -0.308122

  @DF-RHF Final Energy:  -402.95949850230130

   => Energetics <=

    Nuclear Repulsion Energy =            521.8369184982207116
    One-Electron Energy =               -1579.7780565324742383
    Two-Electron Energy =                 654.9816395319522826
    Total Energy =                       -402.9594985023012441
  Basis Set: (AUG-CC-PVTZ AUX)
    Blend: AUG-CC-PVTZ-RI
    Molecular point group: c1

    Geometry (in Angstrom), charge = 0, multiplicity = 1:

       Center              X                  Y                   Z               Mass
    ------------   -----------------  -----------------  -----------------  -----------------
         N            1.664901989943     0.619645431715    -0.459633028219    14.003074004430
         C            0.341167989943     0.159262431715    -0.196931028219    12.000000000000
         C           -0.732537010057     1.066785431715    -0.074501028219    12.000000000000
         C            0.126561189943    -1.180573968285    -0.108678128219    12.000000000000
         C           -2.019847010057     0.568885431715     0.151363971781    12.000000000000
         C           -1.179536010057    -1.688228568285     0.143933971781    12.000000000000
         C           -2.246973010057    -0.801334568285     0.271820971781    12.000000000000
         C           -0.502623010057     2.553311431715    -0.189537028219    12.000000000000
         C            1.245297989943    -2.209097568285    -0.299566028219    12.000000000000
         C            2.540365989943     0.623866431715     0.719519971781    12.000000000000
         H           -2.850500010057     1.266740431715     0.244834971781     1.007825032230
         H           -1.355710010057    -2.760728568285     0.212733971781     1.007825032230
         H            1.629702989943     1.560803431715    -0.844302028219     1.007825032230
         H           -3.251535010057    -1.175475568285     0.454767971781     1.007825032230
         H            0.273184989943     2.899268431715     0.502120971781     1.007825032230
         H           -0.199957010057     2.847245431715    -1.202063028219     1.007825032230
         H           -1.421475010057     3.097509431715     0.043617971781     1.007825032230
         H            1.979638989943    -1.802952568285    -0.999717028219     1.007825032230
         H            1.764525989943    -2.431106568285     0.639825971781     1.007825032230
         H            0.861826989943    -3.155607568285    -0.691289028219     1.007825032230
         H            2.131610989943     1.194082431715     1.566867971781     1.007825032230
         H            3.505671989943     1.052538431715     0.436949971781     1.007825032230
         H            2.711525989943    -0.400923568285     1.051737971781     1.007825032230

  Basis Set: AUG-CC-PVTZ
    Blend: AUG-CC-PVTZ
  Basis Set: (AUG-CC-PVTZ AUX)
    Blend: AUG-CC-PVTZ-JKFIT
	 Reference Energy          =    -402.9594985023013010 [Eh]
	 Singles Energy            =      -0.0000000000000000 [Eh]
	 Same-Spin Energy          =      -0.4476163419303879 [Eh]
	 Opposite-Spin Energy      =      -1.4656590421774687 [Eh]
	 Correlation Energy        =      -1.9132753841078565 [Eh]
	 Total Energy              =    -404.8727738864091634 [Eh]

	 ================> DF-SCS-MP2 Energies <==================
	-----------------------------------------------------------
	 SCS Same-Spin Scale       =       0.3333333333333333 [-]
	 SCS Opposite-Spin Scale   =       1.2000000000000000 [-]
	 SCS Same-Spin Energy      =      -0.1492054473101293 [Eh]
	 SCS Opposite-Spin Energy  =      -1.7587908506129624 [Eh]
	 SCS Correlation Energy    =      -1.9079962979230916 [Eh]
	 SCS Total Energy          =    -404.8674948002243923 [Eh]
	-----------------------------------------------------------

  Dipole Moment: [D]
     X:     0.4697      Y:     1.0740      Z:     0.5294     Total:     1.2863

*** Psi4 exiting successfully. Buy a developer a beer!
