                               Psi4 1.4a3.dev225

  ==> Input File <==

--------------------------------------------------------------------------
#psi4
#
memory 32 gb

molecule  {
0 1
  N        1.6268380     0.6089620    -0.4693990
  C        0.3031040     0.1485790    -0.2066970
  C       -0.7706010     1.0561020    -0.0842670
  C        0.0806060    -1.2405240    -0.1151990
  C       -2.2011042     0.5760745     0.1632952
  C       -1.2176000    -1.6989120     0.1341680
  C       -2.2850370    -0.8120180     0.2620550
  C       -0.5406870     2.5426280    -0.1993030
  C        1.2072340    -2.2197810    -0.3093320
  C        2.5023020     0.6131830     0.7097540
  H       -2.8885640     1.2560570     0.2350690
  H       -1.3937740    -2.7714120     0.2029680
  H        1.5916390     1.5501200    -0.8540680
  H       -3.2895990    -1.1861590     0.4450020
  H        0.2351210     2.8885850     0.4923550
  H       -0.2380210     2.8365620    -1.2118290
  H       -1.4595390     3.0868260     0.0338520
  H        1.9415750    -1.8136360    -1.0094830
  H        1.7264620    -2.4417900     0.6300600
  H        0.8237630    -3.1662910    -0.7010550
  H        2.0935470     1.1833990     1.5571020
  H        3.4676080     1.0418550     0.4271840
  H        2.6734620    -0.4116070     1.0419720
units angstrom
no_reorient  #important for SAPT in psi4, default
symmetry c1  #important for SAPT in psi4, default
}

set PROPERTIES_ORIGIN ["COM"]
properties('MP2/aug-cc-pvtz', properties = ['dipole'])
--------------------------------------------------------------------------

    Molecular point group: c1
  Charge       = 0
  Multiplicity = 1
  Basis Set: AUG-CC-PVTZ
    Blend: AUG-CC-PVTZ
  Basis Set: (AUG-CC-PVTZ AUX)
    Blend: AUG-CC-PVTZ-JKFIT

    Orbital Energies [Eh]
    ---------------------

    Doubly Occupied:

       1A    -15.553935     2A    -11.257529     3A    -11.249468
       4A    -11.248049     5A    -11.236879     6A    -11.228709
       7A    -11.227623     8A    -11.227482     9A    -11.222944
      10A    -11.215677    11A     -1.225557    12A     -1.122245
      13A     -1.048289    14A     -1.014236    15A     -0.945685
      16A     -0.923567    17A     -0.890924    18A     -0.793734
      19A     -0.786052    20A     -0.697242    21A     -0.660913
      22A     -0.624962    23A     -0.613308    24A     -0.592596
      25A     -0.586408    26A     -0.570739    27A     -0.564902
      28A     -0.557995    29A     -0.554666    30A     -0.529580
      31A     -0.516868    32A     -0.493181    33A     -0.465951
      34A     -0.459340    35A     -0.403012    36A     -0.309717
      37A     -0.303193

  @DF-RHF Final Energy:  -402.93318444481298

   => Energetics <=

    Nuclear Repulsion Energy =            518.7084752254172599
    One-Electron Energy =               -1573.4369981841641675
    Two-Electron Energy =                 651.7953385139339844
    Total Energy =                       -402.9331844448129232
  Basis Set: (AUG-CC-PVTZ AUX)
    Blend: AUG-CC-PVTZ-RI
    Molecular point group: c1

    Geometry (in Angstrom), charge = 0, multiplicity = 1:

       Center              X                  Y                   Z               Mass
    ------------   -----------------  -----------------  -----------------  -----------------
         N            1.678321297086     0.622433853752    -0.461848401776    14.003074004430
         C            0.354587297086     0.162050853752    -0.199146401776    12.000000000000
         C           -0.719117702914     1.069573853752    -0.076716401776    12.000000000000
         C            0.132089297086    -1.227052146248    -0.107648401776    12.000000000000
         C           -2.149620902914     0.589546353752     0.170845798224    12.000000000000
         C           -1.166116702914    -1.685440146248     0.141718598224    12.000000000000
         C           -2.233553702914    -0.798546146248     0.269605598224    12.000000000000
         C           -0.489203702914     2.556099853752    -0.191752401776    12.000000000000
         C            1.258717297086    -2.206309146248    -0.301781401776    12.000000000000
         C            2.553785297086     0.626654853752     0.717304598224    12.000000000000
         H           -2.837080702914     1.269528853752     0.242619598224     1.007825032230
         H           -1.342290702914    -2.757940146248     0.210518598224     1.007825032230
         H            1.643122297086     1.563591853752    -0.846517401776     1.007825032230
         H           -3.238115702914    -1.172687146248     0.452552598224     1.007825032230
         H            0.286604297086     2.902056853752     0.499905598224     1.007825032230
         H           -0.186537702914     2.850033853752    -1.204278401776     1.007825032230
         H           -1.408055702914     3.100297853752     0.041402598224     1.007825032230
         H            1.993058297086    -1.800164146248    -1.001932401776     1.007825032230
         H            1.777945297086    -2.428318146248     0.637610598224     1.007825032230
         H            0.875246297086    -3.152819146248    -0.693504401776     1.007825032230
         H            2.145030297086     1.196870853752     1.564652598224     1.007825032230
         H            3.519091297086     1.055326853752     0.434734598224     1.007825032230
         H            2.724945297086    -0.398135146248     1.049522598224     1.007825032230

  Basis Set: AUG-CC-PVTZ
    Blend: AUG-CC-PVTZ
  Basis Set: (AUG-CC-PVTZ AUX)
    Blend: AUG-CC-PVTZ-JKFIT
	 Reference Energy          =    -402.9331844448129800 [Eh]
	 Singles Energy            =      -0.0000000000000000 [Eh]
	 Same-Spin Energy          =      -0.4481146109038974 [Eh]
	 Opposite-Spin Energy      =      -1.4677080975940808 [Eh]
	 Correlation Energy        =      -1.9158227084979782 [Eh]
	 Total Energy              =    -404.8490071533109358 [Eh]

	 ================> DF-SCS-MP2 Energies <==================
	-----------------------------------------------------------
	 SCS Same-Spin Scale       =       0.3333333333333333 [-]
	 SCS Opposite-Spin Scale   =       1.2000000000000000 [-]
	 SCS Same-Spin Energy      =      -0.1493715369679658 [Eh]
	 SCS Opposite-Spin Energy  =      -1.7612497171128969 [Eh]
	 SCS Correlation Energy    =      -1.9106212540808627 [Eh]
	 SCS Total Energy          =    -404.8438056988938456 [Eh]
	-----------------------------------------------------------

  Dipole Moment: [D]
     X:     0.5628      Y:     1.0631      Z:     0.5201     Total:     1.3105

*** Psi4 exiting successfully. Buy a developer a beer!
