                               Psi4 1.4a3.dev225

  ==> Input File <==

--------------------------------------------------------------------------
#psi4
#
memory 32 gb

molecule  {
0 1
  N        1.6268380     0.6089620    -0.4693990
  C        0.3031040     0.1485790    -0.2066970
  C       -0.7706010     1.0561020    -0.0842670
  C        0.0806060    -1.2405240    -0.1151990
  C       -2.0579110     0.5582020     0.1415980
  C       -1.2176000    -1.6989120     0.1341680
  C       -2.3003552    -0.7992907     0.2638902
  C       -0.5406870     2.5426280    -0.1993030
  C        1.2072340    -2.2197810    -0.3093320
  C        2.5023020     0.6131830     0.7097540
  H       -2.8885640     1.2560570     0.2350690
  H       -1.3937740    -2.7714120     0.2029680
  H        1.5916390     1.5501200    -0.8540680
  H       -3.2895990    -1.1861590     0.4450020
  H        0.2351210     2.8885850     0.4923550
  H       -0.2380210     2.8365620    -1.2118290
  H       -1.4595390     3.0868260     0.0338520
  H        1.9415750    -1.8136360    -1.0094830
  H        1.7264620    -2.4417900     0.6300600
  H        0.8237630    -3.1662910    -0.7010550
  H        2.0935470     1.1833990     1.5571020
  H        3.4676080     1.0418550     0.4271840
  H        2.6734620    -0.4116070     1.0419720
units angstrom
no_reorient  #important for SAPT in psi4, default
symmetry c1  #important for SAPT in psi4, default
}

set PROPERTIES_ORIGIN ["COM"]
properties('MP2/aug-cc-pvtz', properties = ['dipole'])
--------------------------------------------------------------------------

    Molecular point group: c1
  Charge       = 0
  Multiplicity = 1
  Basis Set: AUG-CC-PVTZ
    Blend: AUG-CC-PVTZ
  Basis Set: (AUG-CC-PVTZ AUX)
    Blend: AUG-CC-PVTZ-JKFIT

    Orbital Energies [Eh]
    ---------------------

    Doubly Occupied:

       1A    -15.553945     2A    -11.258585     3A    -11.249754
       4A    -11.235683     5A    -11.232144     6A    -11.228347
       7A    -11.225683     8A    -11.224759     9A    -11.223626
      10A    -11.214149    11A     -1.226635    12A     -1.130000
      13A     -1.054116    14A     -1.012305    15A     -0.945382
      16A     -0.921046    17A     -0.892570    18A     -0.795975
      19A     -0.780590    20A     -0.692365    21A     -0.659923
      22A     -0.631697    23A     -0.603657    24A     -0.591300
      25A     -0.578618    26A     -0.568668    27A     -0.565514
      28A     -0.556837    29A     -0.551271    30A     -0.531379
      31A     -0.521224    32A     -0.483873    33A     -0.478801
      34A     -0.470061    35A     -0.402306    36A     -0.316831
      37A     -0.302498

  @DF-RHF Final Energy:  -402.96115288741805

   => Energetics <=

    Nuclear Repulsion Energy =            521.1093897881189605
    One-Electron Energy =               -1578.3168560829694798
    Two-Electron Energy =                 654.2463134074324671
    Total Energy =                       -402.9611528874180522
  Basis Set: (AUG-CC-PVTZ AUX)
    Blend: AUG-CC-PVTZ-RI
    Molecular point group: c1

    Geometry (in Angstrom), charge = 0, multiplicity = 1:

       Center              X                  Y                   Z               Mass
    ------------   -----------------  -----------------  -----------------  -----------------
         N            1.666963447428     0.622890850101    -0.460084260154    14.003074004430
         C            0.343229447428     0.162507850101    -0.197382260154    12.000000000000
         C           -0.730475552572     1.070030850101    -0.074952260154    12.000000000000
         C            0.120731447428    -1.226595149899    -0.105884260154    12.000000000000
         C           -2.017785552572     0.572130850101     0.150912739846    12.000000000000
         C           -1.177474552572    -1.684983149899     0.143482739846    12.000000000000
         C           -2.260229752572    -0.785361849899     0.273204939846    12.000000000000
         C           -0.500561552572     2.556556850101    -0.189988260154    12.000000000000
         C            1.247359447428    -2.205852149899    -0.300017260154    12.000000000000
         C            2.542427447428     0.627111850101     0.719068739846    12.000000000000
         H           -2.848438552572     1.269985850101     0.244383739846     1.007825032230
         H           -1.353648552572    -2.757483149899     0.212282739846     1.007825032230
         H            1.631764447428     1.564048850101    -0.844753260154     1.007825032230
         H           -3.249473552572    -1.172230149899     0.454316739846     1.007825032230
         H            0.275246447428     2.902513850101     0.501669739846     1.007825032230
         H           -0.197895552572     2.850490850101    -1.202514260154     1.007825032230
         H           -1.419413552572     3.100754850101     0.043166739846     1.007825032230
         H            1.981700447428    -1.799707149899    -1.000168260154     1.007825032230
         H            1.766587447428    -2.427861149899     0.639374739846     1.007825032230
         H            0.863888447428    -3.152362149899    -0.691740260154     1.007825032230
         H            2.133672447428     1.197327850101     1.566416739846     1.007825032230
         H            3.507733447428     1.055783850101     0.436498739846     1.007825032230
         H            2.713587447428    -0.397678149899     1.051286739846     1.007825032230

  Basis Set: AUG-CC-PVTZ
    Blend: AUG-CC-PVTZ
  Basis Set: (AUG-CC-PVTZ AUX)
    Blend: AUG-CC-PVTZ-JKFIT
	 Reference Energy          =    -402.9611528874180522 [Eh]
	 Singles Energy            =      -0.0000000000000000 [Eh]
	 Same-Spin Energy          =      -0.4479866156147355 [Eh]
	 Opposite-Spin Energy      =      -1.4660236286731694 [Eh]
	 Correlation Energy        =      -1.9140102442879048 [Eh]
	 Total Energy              =    -404.8751631317059605 [Eh]

	 ================> DF-SCS-MP2 Energies <==================
	-----------------------------------------------------------
	 SCS Same-Spin Scale       =       0.3333333333333333 [-]
	 SCS Opposite-Spin Scale   =       1.2000000000000000 [-]
	 SCS Same-Spin Energy      =      -0.1493288718715785 [Eh]
	 SCS Opposite-Spin Energy  =      -1.7592283544078031 [Eh]
	 SCS Correlation Energy    =      -1.9085572262793815 [Eh]
	 SCS Total Energy          =    -404.8697101136974084 [Eh]
	-----------------------------------------------------------

  Dipole Moment: [D]
     X:     0.5414      Y:     1.0681      Z:     0.5209     Total:     1.3058

*** Psi4 exiting successfully. Buy a developer a beer!
