                               Psi4 1.4a3.dev225

  ==> Input File <==

--------------------------------------------------------------------------
#psi4
#
memory 32 gb

molecule  {
0 1
  N        1.6268380     0.6089620    -0.4693990
  C        0.3031040     0.1485790    -0.2066970
  C       -0.7706010     1.0561020    -0.0842670
  C        0.0173019    -1.3456277    -0.0163469
  C       -2.0579110     0.5582020     0.1415980
  C       -1.2176000    -1.6989120     0.1341680
  C       -2.2850370    -0.8120180     0.2620550
  C       -0.5406870     2.5426280    -0.1993030
  C        1.2072340    -2.2197810    -0.3093320
  C        2.5023020     0.6131830     0.7097540
  H       -2.8885640     1.2560570     0.2350690
  H       -1.3937740    -2.7714120     0.2029680
  H        1.5916390     1.5501200    -0.8540680
  H       -3.2895990    -1.1861590     0.4450020
  H        0.2351210     2.8885850     0.4923550
  H       -0.2380210     2.8365620    -1.2118290
  H       -1.4595390     3.0868260     0.0338520
  H        1.9415750    -1.8136360    -1.0094830
  H        1.7264620    -2.4417900     0.6300600
  H        0.8237630    -3.1662910    -0.7010550
  H        2.0935470     1.1833990     1.5571020
  H        3.4676080     1.0418550     0.4271840
  H        2.6734620    -0.4116070     1.0419720
units angstrom
no_reorient  #important for SAPT in psi4, default
symmetry c1  #important for SAPT in psi4, default
}

set PROPERTIES_ORIGIN ["COM"]
properties('MP2/aug-cc-pvtz', properties = ['dipole'])
--------------------------------------------------------------------------

    Molecular point group: c1
  Charge       = 0
  Multiplicity = 1
  Basis Set: AUG-CC-PVTZ
    Blend: AUG-CC-PVTZ
  Basis Set: (AUG-CC-PVTZ AUX)
    Blend: AUG-CC-PVTZ-JKFIT

    Orbital Energies [Eh]
    ---------------------

    Doubly Occupied:

       1A    -15.558222     2A    -11.269374     3A    -11.251341
       4A    -11.232055     5A    -11.231675     6A    -11.226897
       7A    -11.226227     8A    -11.222689     9A    -11.215333
      10A    -11.210966    11A     -1.224522    12A     -1.135835
      13A     -1.061465    14A     -1.007393    15A     -0.940830
      16A     -0.930418    17A     -0.889780    18A     -0.801261
      19A     -0.769954    20A     -0.691933    21A     -0.664871
      22A     -0.627301    23A     -0.603097    24A     -0.592962
      25A     -0.574281    26A     -0.571377    27A     -0.566434
      28A     -0.559223    29A     -0.553756    30A     -0.532716
      31A     -0.521066    32A     -0.496852    33A     -0.472850
      34A     -0.452823    35A     -0.403463    36A     -0.332468
      37A     -0.289100

  @DF-RHF Final Energy:  -402.93766336598503

   => Energetics <=

    Nuclear Repulsion Energy =            520.4527027246593889
    One-Electron Energy =               -1576.9551195144174471
    Two-Electron Energy =                 653.5647534237731406
    Total Energy =                       -402.9376633659850313
  Basis Set: (AUG-CC-PVTZ AUX)
    Blend: AUG-CC-PVTZ-RI
    Molecular point group: c1

    Geometry (in Angstrom), charge = 0, multiplicity = 1:

       Center              X                  Y                   Z               Mass
    ------------   -----------------  -----------------  -----------------  -----------------
         N            1.671225552123     0.633356592295    -0.468701295262    14.003074004430
         C            0.347491552123     0.172973592295    -0.205999295262    12.000000000000
         C           -0.726213447877     1.080496592295    -0.083569295262    12.000000000000
         C            0.061689452123    -1.321233107705    -0.015649195262    12.000000000000
         C           -2.013523447877     0.582596592295     0.142295704738    12.000000000000
         C           -1.173212447877    -1.674517407705     0.134865704738    12.000000000000
         C           -2.240649447877    -0.787623407705     0.262752704738    12.000000000000
         C           -0.496299447877     2.567022592295    -0.198605295262    12.000000000000
         C            1.251621552123    -2.195386407705    -0.308634295262    12.000000000000
         C            2.546689552123     0.637577592295     0.710451704738    12.000000000000
         H           -2.844176447877     1.280451592295     0.235766704738     1.007825032230
         H           -1.349386447877    -2.747017407705     0.203665704738     1.007825032230
         H            1.636026552123     1.574514592295    -0.853370295262     1.007825032230
         H           -3.245211447877    -1.161764407705     0.445699704738     1.007825032230
         H            0.279508552123     2.912979592295     0.493052704738     1.007825032230
         H           -0.193633447877     2.860956592295    -1.211131295262     1.007825032230
         H           -1.415151447877     3.111220592295     0.034549704738     1.007825032230
         H            1.985962552123    -1.789241407705    -1.008785295262     1.007825032230
         H            1.770849552123    -2.417395407705     0.630757704738     1.007825032230
         H            0.868150552123    -3.141896407705    -0.700357295262     1.007825032230
         H            2.137934552123     1.207793592295     1.557799704738     1.007825032230
         H            3.511995552123     1.066249592295     0.427881704738     1.007825032230
         H            2.717849552123    -0.387212407705     1.042669704738     1.007825032230

  Basis Set: AUG-CC-PVTZ
    Blend: AUG-CC-PVTZ
  Basis Set: (AUG-CC-PVTZ AUX)
    Blend: AUG-CC-PVTZ-JKFIT
	 Reference Energy          =    -402.9376633659850313 [Eh]
	 Singles Energy            =      -0.0000000000000000 [Eh]
	 Same-Spin Energy          =      -0.4478957104553927 [Eh]
	 Opposite-Spin Energy      =      -1.4671128450903939 [Eh]
	 Correlation Energy        =      -1.9150085555457865 [Eh]
	 Total Energy              =    -404.8526719215308276 [Eh]

	 ================> DF-SCS-MP2 Energies <==================
	-----------------------------------------------------------
	 SCS Same-Spin Scale       =       0.3333333333333333 [-]
	 SCS Opposite-Spin Scale   =       1.2000000000000000 [-]
	 SCS Same-Spin Energy      =      -0.1492985701517976 [Eh]
	 SCS Opposite-Spin Energy  =      -1.7605354141084726 [Eh]
	 SCS Correlation Energy    =      -1.9098339842602701 [Eh]
	 SCS Total Energy          =    -404.8474973502453054 [Eh]
	-----------------------------------------------------------

  Dipole Moment: [D]
     X:     0.6703      Y:     1.0995      Z:     0.4719     Total:     1.3714

*** Psi4 exiting successfully. Buy a developer a beer!
