                               Psi4 1.4a3.dev225

  ==> Input File <==

--------------------------------------------------------------------------
#psi4
#
memory 32 gb

molecule  {
0 1
  N        1.6268380     0.6089620    -0.4693990
  C        0.3031040     0.1485790    -0.2066970
  C       -0.7706010     1.0561020    -0.0842670
  C        0.0806060    -1.2405240    -0.1151990
  C       -2.0579110     0.5582020     0.1415980
  C       -1.2176000    -1.6989120     0.1341680
  C       -2.2850370    -0.8120180     0.2620550
  C       -0.5406870     2.5426280    -0.1993030
  C        1.2072340    -2.2197810    -0.3093320
  C        2.5023020     0.6131830     0.7097540
  H       -2.8885640     1.2560570     0.2350690
  H       -1.3937740    -2.7714120     0.2029680
  H        1.5985588     1.3650973    -0.7784457
  H       -3.2895990    -1.1861590     0.4450020
  H        0.2351210     2.8885850     0.4923550
  H       -0.2380210     2.8365620    -1.2118290
  H       -1.4595390     3.0868260     0.0338520
  H        1.9415750    -1.8136360    -1.0094830
  H        1.7264620    -2.4417900     0.6300600
  H        0.8237630    -3.1662910    -0.7010550
  H        2.0935470     1.1833990     1.5571020
  H        3.4676080     1.0418550     0.4271840
  H        2.6734620    -0.4116070     1.0419720
units angstrom
no_reorient  #important for SAPT in psi4, default
symmetry c1  #important for SAPT in psi4, default
}

set PROPERTIES_ORIGIN ["COM"]
properties('MP2/aug-cc-pvtz', properties = ['dipole'])
--------------------------------------------------------------------------

    Molecular point group: c1
  Charge       = 0
  Multiplicity = 1
  Basis Set: AUG-CC-PVTZ
    Blend: AUG-CC-PVTZ
  Basis Set: (AUG-CC-PVTZ AUX)
    Blend: AUG-CC-PVTZ-JKFIT

    Orbital Energies [Eh]
    ---------------------

    Doubly Occupied:

       1A    -15.530732     2A    -11.258042     3A    -11.249888
       4A    -11.236520     5A    -11.232055     6A    -11.228143
       7A    -11.225675     8A    -11.224502     9A    -11.223121
      10A    -11.214297    11A     -1.255927    12A     -1.136852
      13A     -1.054609    14A     -1.014789    15A     -0.946174
      16A     -0.924121    17A     -0.908270    18A     -0.808287
      19A     -0.781844    20A     -0.708795    21A     -0.661343
      22A     -0.633854    23A     -0.606655    24A     -0.594605
      25A     -0.579364    26A     -0.572329    27A     -0.565575
      28A     -0.556434    29A     -0.553209    30A     -0.536559
      31A     -0.520950    32A     -0.486765    33A     -0.478799
      34A     -0.471457    35A     -0.406557    36A     -0.317239
      37A     -0.303784

  @DF-RHF Final Energy:  -402.91936839333562

   => Energetics <=

    Nuclear Repulsion Energy =            522.6089858190298401
    One-Electron Energy =               -1581.0404638883076132
    Two-Electron Energy =                 655.5121096759421562
    Total Energy =                       -402.9193683933356169
  Basis Set: (AUG-CC-PVTZ AUX)
    Blend: AUG-CC-PVTZ-RI
    Molecular point group: c1

    Geometry (in Angstrom), charge = 0, multiplicity = 1:

       Center              X                  Y                   Z               Mass
    ------------   -----------------  -----------------  -----------------  -----------------
         N            1.665551267043     0.625401479701    -0.460485368383    14.003074004430
         C            0.341817267043     0.165018479701    -0.197783368383    12.000000000000
         C           -0.731887732957     1.072541479701    -0.075353368383    12.000000000000
         C            0.119319267043    -1.224084520299    -0.106285368383    12.000000000000
         C           -2.019197732957     0.574641479701     0.150511631617    12.000000000000
         C           -1.178886732957    -1.682472520299     0.143081631617    12.000000000000
         C           -2.246323732957    -0.795578520299     0.270968631617    12.000000000000
         C           -0.501973732957     2.559067479701    -0.190389368383    12.000000000000
         C            1.245947267043    -2.203341520299    -0.300418368383    12.000000000000
         C            2.541015267043     0.629622479701     0.718667631617    12.000000000000
         H           -2.849850732957     1.272496479701     0.243982631617     1.007825032230
         H           -1.355060732957    -2.754972520299     0.211881631617     1.007825032230
         H            1.637272067043     1.381536779701    -0.769532068383     1.007825032230
         H           -3.250885732957    -1.169719520299     0.453915631617     1.007825032230
         H            0.273834267043     2.905024479701     0.501268631617     1.007825032230
         H           -0.199307732957     2.853001479701    -1.202915368383     1.007825032230
         H           -1.420825732957     3.103265479701     0.042765631617     1.007825032230
         H            1.980288267043    -1.797196520299    -1.000569368383     1.007825032230
         H            1.765175267043    -2.425350520299     0.638973631617     1.007825032230
         H            0.862476267043    -3.149851520299    -0.692141368383     1.007825032230
         H            2.132260267043     1.199838479701     1.566015631617     1.007825032230
         H            3.506321267043     1.058294479701     0.436097631617     1.007825032230
         H            2.712175267043    -0.395167520299     1.050885631617     1.007825032230

  Basis Set: AUG-CC-PVTZ
    Blend: AUG-CC-PVTZ
  Basis Set: (AUG-CC-PVTZ AUX)
    Blend: AUG-CC-PVTZ-JKFIT
	 Reference Energy          =    -402.9193683933356169 [Eh]
	 Singles Energy            =      -0.0000000000000000 [Eh]
	 Same-Spin Energy          =      -0.4465505150992790 [Eh]
	 Opposite-Spin Energy      =      -1.4626065588823711 [Eh]
	 Correlation Energy        =      -1.9091570739816501 [Eh]
	 Total Energy              =    -404.8285254673172631 [Eh]

	 ================> DF-SCS-MP2 Energies <==================
	-----------------------------------------------------------
	 SCS Same-Spin Scale       =       0.3333333333333333 [-]
	 SCS Opposite-Spin Scale   =       1.2000000000000000 [-]
	 SCS Same-Spin Energy      =      -0.1488501716997596 [Eh]
	 SCS Opposite-Spin Energy  =      -1.7551278706588453 [Eh]
	 SCS Correlation Energy    =      -1.9039780423586050 [Eh]
	 SCS Total Energy          =    -404.8233464356942477 [Eh]
	-----------------------------------------------------------

  Dipole Moment: [D]
     X:     0.5355      Y:     0.9972      Z:     0.5639     Total:     1.2646

*** Psi4 exiting successfully. Buy a developer a beer!
