                               Psi4 1.4a3.dev225

  ==> Input File <==

--------------------------------------------------------------------------
#psi4
#
memory 32 gb

molecule  {
0 1
  N        1.6268380     0.6089620    -0.4693990
  C        0.3031040     0.1485790    -0.2066970
  C       -0.7706010     1.0561020    -0.0842670
  C        0.0806060    -1.2405240    -0.1151990
  C       -2.0579110     0.5582020     0.1415980
  C       -1.2176000    -1.6989120     0.1341680
  C       -2.1881261    -0.7046422     0.2430922
  C       -0.5406870     2.5426280    -0.1993030
  C        1.2072340    -2.2197810    -0.3093320
  C        2.5023020     0.6131830     0.7097540
  H       -2.8885640     1.2560570     0.2350690
  H       -1.3937740    -2.7714120     0.2029680
  H        1.5916390     1.5501200    -0.8540680
  H       -3.2895990    -1.1861590     0.4450020
  H        0.2351210     2.8885850     0.4923550
  H       -0.2380210     2.8365620    -1.2118290
  H       -1.4595390     3.0868260     0.0338520
  H        1.9415750    -1.8136360    -1.0094830
  H        1.7264620    -2.4417900     0.6300600
  H        0.8237630    -3.1662910    -0.7010550
  H        2.0935470     1.1833990     1.5571020
  H        3.4676080     1.0418550     0.4271840
  H        2.6734620    -0.4116070     1.0419720
units angstrom
no_reorient  #important for SAPT in psi4, default
symmetry c1  #important for SAPT in psi4, default
}

set PROPERTIES_ORIGIN ["COM"]
properties('MP2/aug-cc-pvtz', properties = ['dipole'])
--------------------------------------------------------------------------

    Molecular point group: c1
  Charge       = 0
  Multiplicity = 1
  Basis Set: AUG-CC-PVTZ
    Blend: AUG-CC-PVTZ
  Basis Set: (AUG-CC-PVTZ AUX)
    Blend: AUG-CC-PVTZ-JKFIT

    Orbital Energies [Eh]
    ---------------------

    Doubly Occupied:

       1A    -15.552975     2A    -11.255655     3A    -11.249088
       4A    -11.236011     5A    -11.233337     6A    -11.228306
       7A    -11.222987     8A    -11.221608     9A    -11.214172
      10A    -11.210411    11A     -1.226815    12A     -1.145466
      13A     -1.057821    14A     -1.018842    15A     -0.945356
      16A     -0.930057    17A     -0.890794    18A     -0.794666
      19A     -0.774496    20A     -0.697775    21A     -0.666045
      22A     -0.624460    23A     -0.596753    24A     -0.593867
      25A     -0.581188    26A     -0.571763    27A     -0.565088
      28A     -0.561391    29A     -0.552591    30A     -0.525185
      31A     -0.522487    32A     -0.488747    33A     -0.483220
      34A     -0.451295    35A     -0.404039    36A     -0.323164
      37A     -0.304404

  @DF-RHF Final Energy:  -402.93378410223738

   => Energetics <=

    Nuclear Repulsion Energy =            524.0506136061158031
    One-Electron Energy =               -1584.1241388649643795
    Two-Electron Energy =                 657.1397411566111941
    Total Energy =                       -402.9337841022373823
  Basis Set: (AUG-CC-PVTZ AUX)
    Blend: AUG-CC-PVTZ-RI
    Molecular point group: c1

    Geometry (in Angstrom), charge = 0, multiplicity = 1:

       Center              X                  Y                   Z               Mass
    ------------   -----------------  -----------------  -----------------  -----------------
         N            1.656995265648     0.614484176135    -0.458236983069    14.003074004430
         C            0.333261265648     0.154101176135    -0.195534983069    12.000000000000
         C           -0.740443734352     1.061624176135    -0.073104983069    12.000000000000
         C            0.110763265648    -1.235001823865    -0.104036983069    12.000000000000
         C           -2.027753734352     0.563724176135     0.152760016931    12.000000000000
         C           -1.187442734352    -1.693389823865     0.145330016931    12.000000000000
         C           -2.157968834352    -0.699120023865     0.254254216931    12.000000000000
         C           -0.510529734352     2.548150176135    -0.188140983069    12.000000000000
         C            1.237391265648    -2.214258823865    -0.298169983069    12.000000000000
         C            2.532459265648     0.618705176135     0.720916016931    12.000000000000
         H           -2.858406734352     1.261579176135     0.246231016931     1.007825032230
         H           -1.363616734352    -2.765889823865     0.214130016931     1.007825032230
         H            1.621796265648     1.555642176135    -0.842905983069     1.007825032230
         H           -3.259441734352    -1.180636823865     0.456164016931     1.007825032230
         H            0.265278265648     2.894107176135     0.503517016931     1.007825032230
         H           -0.207863734352     2.842084176135    -1.200666983069     1.007825032230
         H           -1.429381734352     3.092348176135     0.045014016931     1.007825032230
         H            1.971732265648    -1.808113823865    -0.998320983069     1.007825032230
         H            1.756619265648    -2.436267823865     0.641222016931     1.007825032230
         H            0.853920265648    -3.160768823865    -0.689892983069     1.007825032230
         H            2.123704265648     1.188921176135     1.568264016931     1.007825032230
         H            3.497765265648     1.047377176135     0.438346016931     1.007825032230
         H            2.703619265648    -0.406084823865     1.053134016931     1.007825032230

  Basis Set: AUG-CC-PVTZ
    Blend: AUG-CC-PVTZ
  Basis Set: (AUG-CC-PVTZ AUX)
    Blend: AUG-CC-PVTZ-JKFIT
	 Reference Energy          =    -402.9337841022373823 [Eh]
	 Singles Energy            =      -0.0000000000000000 [Eh]
	 Same-Spin Energy          =      -0.4483790098590847 [Eh]
	 Opposite-Spin Energy      =      -1.4664893754163095 [Eh]
	 Correlation Energy        =      -1.9148683852753943 [Eh]
	 Total Energy              =    -404.8486524875127657 [Eh]

	 ================> DF-SCS-MP2 Energies <==================
	-----------------------------------------------------------
	 SCS Same-Spin Scale       =       0.3333333333333333 [-]
	 SCS Opposite-Spin Scale   =       1.2000000000000000 [-]
	 SCS Same-Spin Energy      =      -0.1494596699530282 [Eh]
	 SCS Opposite-Spin Energy  =      -1.7597872504995713 [Eh]
	 SCS Correlation Energy    =      -1.9092469204525995 [Eh]
	 SCS Total Energy          =    -404.8430310226899564 [Eh]
	-----------------------------------------------------------

  Dipole Moment: [D]
     X:     0.6161      Y:     1.0807      Z:     0.5022     Total:     1.3415

*** Psi4 exiting successfully. Buy a developer a beer!
