                               Psi4 1.4a3.dev225

  ==> Input File <==

--------------------------------------------------------------------------
#psi4
#
memory 32 gb

molecule  {
0 1
  N        1.6268380     0.6089620    -0.4693990
  C        0.3460533     0.1301652    -0.0649477
  C       -0.7706010     1.0561020    -0.0842670
  C        0.0806060    -1.2405240    -0.1151990
  C       -2.0579110     0.5582020     0.1415980
  C       -1.2176000    -1.6989120     0.1341680
  C       -2.2850370    -0.8120180     0.2620550
  C       -0.5406870     2.5426280    -0.1993030
  C        1.2072340    -2.2197810    -0.3093320
  C        2.5023020     0.6131830     0.7097540
  H       -2.8885640     1.2560570     0.2350690
  H       -1.3937740    -2.7714120     0.2029680
  H        1.5916390     1.5501200    -0.8540680
  H       -3.2895990    -1.1861590     0.4450020
  H        0.2351210     2.8885850     0.4923550
  H       -0.2380210     2.8365620    -1.2118290
  H       -1.4595390     3.0868260     0.0338520
  H        1.9415750    -1.8136360    -1.0094830
  H        1.7264620    -2.4417900     0.6300600
  H        0.8237630    -3.1662910    -0.7010550
  H        2.0935470     1.1833990     1.5571020
  H        3.4676080     1.0418550     0.4271840
  H        2.6734620    -0.4116070     1.0419720
units angstrom
no_reorient  #important for SAPT in psi4, default
symmetry c1  #important for SAPT in psi4, default
}

set PROPERTIES_ORIGIN ["COM"]
properties('MP2/aug-cc-pvtz', properties = ['dipole'])
--------------------------------------------------------------------------

    Molecular point group: c1
  Charge       = 0
  Multiplicity = 1
  Basis Set: AUG-CC-PVTZ
    Blend: AUG-CC-PVTZ
  Basis Set: (AUG-CC-PVTZ AUX)
    Blend: AUG-CC-PVTZ-JKFIT

    Orbital Energies [Eh]
    ---------------------

    Doubly Occupied:

       1A    -15.554837     2A    -11.259259     3A    -11.247387
       4A    -11.241148     5A    -11.231903     6A    -11.229174
       7A    -11.225929     8A    -11.224128     9A    -11.223063
      10A    -11.213503    11A     -1.228481    12A     -1.130205
      13A     -1.054034    14A     -1.011908    15A     -0.942419
      16A     -0.922161    17A     -0.890217    18A     -0.797814
      19A     -0.775686    20A     -0.695903    21A     -0.659335
      22A     -0.633306    23A     -0.599415    24A     -0.590832
      25A     -0.579536    26A     -0.569361    27A     -0.563995
      28A     -0.556380    29A     -0.551094    30A     -0.530020
      31A     -0.520126    32A     -0.484005    33A     -0.479597
      34A     -0.466407    35A     -0.402546    36A     -0.316128
      37A     -0.302615

  @DF-RHF Final Energy:  -402.95039969446992

   => Energetics <=

    Nuclear Repulsion Energy =            521.2687045051754922
    One-Electron Energy =               -1578.6305010456546825
    Two-Electron Energy =                 654.4113968460093247
    Total Energy =                       -402.9503996944698656
  Basis Set: (AUG-CC-PVTZ AUX)
    Blend: AUG-CC-PVTZ-RI
    Molecular point group: c1

    Geometry (in Angstrom), charge = 0, multiplicity = 1:

       Center              X                  Y                   Z               Mass
    ------------   -----------------  -----------------  -----------------  -----------------
         N            1.661788131651     0.625656800693    -0.472511421936    14.003074004430
         C            0.381003431651     0.146860000693    -0.068060121936    12.000000000000
         C           -0.735650868349     1.072796800693    -0.087379421936    12.000000000000
         C            0.115556131651    -1.223829199307    -0.118311421936    12.000000000000
         C           -2.022960868349     0.574896800693     0.138485578064    12.000000000000
         C           -1.182649868349    -1.682217199307     0.131055578064    12.000000000000
         C           -2.250086868349    -0.795323199307     0.258942578064    12.000000000000
         C           -0.505736868349     2.559322800693    -0.202415421936    12.000000000000
         C            1.242184131651    -2.203086199307    -0.312444421936    12.000000000000
         C            2.537252131651     0.629877800693     0.706641578064    12.000000000000
         H           -2.853613868349     1.272751800693     0.231956578064     1.007825032230
         H           -1.358823868349    -2.754717199307     0.199855578064     1.007825032230
         H            1.626589131651     1.566814800693    -0.857180421936     1.007825032230
         H           -3.254648868349    -1.169464199307     0.441889578064     1.007825032230
         H            0.270071131651     2.905279800693     0.489242578064     1.007825032230
         H           -0.203070868349     2.853256800693    -1.214941421936     1.007825032230
         H           -1.424588868349     3.103520800693     0.030739578064     1.007825032230
         H            1.976525131651    -1.796941199307    -1.012595421936     1.007825032230
         H            1.761412131651    -2.425095199307     0.626947578064     1.007825032230
         H            0.858713131651    -3.149596199307    -0.704167421936     1.007825032230
         H            2.128497131651     1.200093800693     1.553989578064     1.007825032230
         H            3.502558131651     1.058549800693     0.424071578064     1.007825032230
         H            2.708412131651    -0.394912199307     1.038859578064     1.007825032230

  Basis Set: AUG-CC-PVTZ
    Blend: AUG-CC-PVTZ
  Basis Set: (AUG-CC-PVTZ AUX)
    Blend: AUG-CC-PVTZ-JKFIT
	 Reference Energy          =    -402.9503996944699225 [Eh]
	 Singles Energy            =      -0.0000000000000000 [Eh]
	 Same-Spin Energy          =      -0.4486653891685808 [Eh]
	 Opposite-Spin Energy      =      -1.4675791706812662 [Eh]
	 Correlation Energy        =      -1.9162445598498470 [Eh]
	 Total Energy              =    -404.8666442543197945 [Eh]

	 ================> DF-SCS-MP2 Energies <==================
	-----------------------------------------------------------
	 SCS Same-Spin Scale       =       0.3333333333333333 [-]
	 SCS Opposite-Spin Scale   =       1.2000000000000000 [-]
	 SCS Same-Spin Energy      =      -0.1495551297228603 [Eh]
	 SCS Opposite-Spin Energy  =      -1.7610950048175193 [Eh]
	 SCS Correlation Energy    =      -1.9106501345403797 [Eh]
	 SCS Total Energy          =    -404.8610498290103124 [Eh]
	-----------------------------------------------------------

  Dipole Moment: [D]
     X:     0.4912      Y:     1.0865      Z:     0.4956     Total:     1.2912

*** Psi4 exiting successfully. Buy a developer a beer!
