                               Psi4 1.4a3.dev225

  ==> Input File <==

--------------------------------------------------------------------------
#psi4
#
memory 32 gb

molecule  {
0 1
  N        1.6268380     0.6089620    -0.4693990
  C        0.3031040     0.1485790    -0.2066970
  C       -0.7706010     1.0561020    -0.0842670
  C        0.0806060    -1.2405240    -0.1151990
  C       -2.0579110     0.5582020     0.1415980
  C       -1.2176000    -1.6989120     0.1341680
  C       -2.2850370    -0.8120180     0.2620550
  C       -0.5406870     2.5426280    -0.1993030
  C        1.2072340    -2.2197810    -0.3093320
  C        2.5023020     0.6131830     0.7097540
  H       -2.8885640     1.2560570     0.2350690
  H       -1.4099509    -2.8698924     0.2092854
  H        1.5916390     1.5501200    -0.8540680
  H       -3.2895990    -1.1861590     0.4450020
  H        0.2351210     2.8885850     0.4923550
  H       -0.2380210     2.8365620    -1.2118290
  H       -1.4595390     3.0868260     0.0338520
  H        1.9415750    -1.8136360    -1.0094830
  H        1.7264620    -2.4417900     0.6300600
  H        0.8237630    -3.1662910    -0.7010550
  H        2.0935470     1.1833990     1.5571020
  H        3.4676080     1.0418550     0.4271840
  H        2.6734620    -0.4116070     1.0419720
units angstrom
no_reorient  #important for SAPT in psi4, default
symmetry c1  #important for SAPT in psi4, default
}

set PROPERTIES_ORIGIN ["COM"]
properties('MP2/aug-cc-pvtz', properties = ['dipole'])
--------------------------------------------------------------------------

    Molecular point group: c1
  Charge       = 0
  Multiplicity = 1
  Basis Set: AUG-CC-PVTZ
    Blend: AUG-CC-PVTZ
  Basis Set: (AUG-CC-PVTZ AUX)
    Blend: AUG-CC-PVTZ-JKFIT

    Orbital Energies [Eh]
    ---------------------

    Doubly Occupied:

       1A    -15.554285     2A    -11.259135     3A    -11.249922
       4A    -11.236433     5A    -11.235155     6A    -11.233020
       7A    -11.228772     8A    -11.226271     9A    -11.224968
      10A    -11.214065    11A     -1.227070    12A     -1.130998
      13A     -1.053935    14A     -1.012704    15A     -0.945449
      16A     -0.919665    17A     -0.892510    18A     -0.792078
      19A     -0.781214    20A     -0.686673    21A     -0.659837
      22A     -0.629961    23A     -0.602943    24A     -0.591814
      25A     -0.575809    26A     -0.568672    27A     -0.565603
      28A     -0.554259    29A     -0.548179    30A     -0.531131
      31A     -0.519688    32A     -0.485837    33A     -0.473779
      34A     -0.471243    35A     -0.402893    36A     -0.317792
      37A     -0.303428

  @DF-RHF Final Energy:  -402.95440314802869

   => Energetics <=

    Nuclear Repulsion Energy =            520.8173158038300699
    One-Electron Energy =               -1577.7290559807711361
    Two-Electron Energy =                 653.9573370289123204
    Total Energy =                       -402.9544031480287458
  Basis Set: (AUG-CC-PVTZ AUX)
    Blend: AUG-CC-PVTZ-RI
    Molecular point group: c1

    Geometry (in Angstrom), charge = 0, multiplicity = 1:

       Center              X                  Y                   Z               Mass
    ------------   -----------------  -----------------  -----------------  -----------------
         N            1.665723558719     0.624755910508    -0.459968382952    14.003074004430
         C            0.341989558719     0.164372910508    -0.197266382952    12.000000000000
         C           -0.731715441281     1.071895910508    -0.074836382952    12.000000000000
         C            0.119491558719    -1.224730089492    -0.105768382952    12.000000000000
         C           -2.019025441281     0.573995910508     0.151028617048    12.000000000000
         C           -1.178714441281    -1.683118089492     0.143598617048    12.000000000000
         C           -2.246151441281    -0.796224089492     0.271485617048    12.000000000000
         C           -0.501801441281     2.558421910508    -0.189872382952    12.000000000000
         C            1.246119558719    -2.203987089492    -0.299901382952    12.000000000000
         C            2.541187558719     0.628976910508     0.719184617048    12.000000000000
         H           -2.849678441281     1.271850910508     0.244499617048     1.007825032230
         H           -1.371065341281    -2.854098489492     0.218716017048     1.007825032230
         H            1.630524558719     1.565913910508    -0.844637382952     1.007825032230
         H           -3.250713441281    -1.170365089492     0.454432617048     1.007825032230
         H            0.274006558719     2.904378910508     0.501785617048     1.007825032230
         H           -0.199135441281     2.852355910508    -1.202398382952     1.007825032230
         H           -1.420653441281     3.102619910508     0.043282617048     1.007825032230
         H            1.980460558719    -1.797842089492    -1.000052382952     1.007825032230
         H            1.765347558719    -2.425996089492     0.639490617048     1.007825032230
         H            0.862648558719    -3.150497089492    -0.691624382952     1.007825032230
         H            2.132432558719     1.199192910508     1.566532617048     1.007825032230
         H            3.506493558719     1.057648910508     0.436614617048     1.007825032230
         H            2.712347558719    -0.395813089492     1.051402617048     1.007825032230

  Basis Set: AUG-CC-PVTZ
    Blend: AUG-CC-PVTZ
  Basis Set: (AUG-CC-PVTZ AUX)
    Blend: AUG-CC-PVTZ-JKFIT
	 Reference Energy          =    -402.9544031480286890 [Eh]
	 Singles Energy            =      -0.0000000000000000 [Eh]
	 Same-Spin Energy          =      -0.4482412086086900 [Eh]
	 Opposite-Spin Energy      =      -1.4668680631337168 [Eh]
	 Correlation Energy        =      -1.9151092717424067 [Eh]
	 Total Energy              =    -404.8695124197710697 [Eh]

	 ================> DF-SCS-MP2 Energies <==================
	-----------------------------------------------------------
	 SCS Same-Spin Scale       =       0.3333333333333333 [-]
	 SCS Opposite-Spin Scale   =       1.2000000000000000 [-]
	 SCS Same-Spin Energy      =      -0.1494137362028967 [Eh]
	 SCS Opposite-Spin Energy  =      -1.7602416757604600 [Eh]
	 SCS Correlation Energy    =      -1.9096554119633566 [Eh]
	 SCS Total Energy          =    -404.8640585599920314 [Eh]
	-----------------------------------------------------------

  Dipole Moment: [D]
     X:     0.5515      Y:     1.1311      Z:     0.5175     Total:     1.3606

*** Psi4 exiting successfully. Buy a developer a beer!
