                               Psi4 1.4a3.dev225

  ==> Input File <==

--------------------------------------------------------------------------
#psi4
#
memory 32 gb

molecule  {
0 1
  N        1.6268380     0.6089620    -0.4693990
  C        0.3031040     0.1485790    -0.2066970
  C       -0.7706010     1.0561020    -0.0842670
  C        0.0806060    -1.2405240    -0.1151990
  C       -2.0579110     0.5582020     0.1415980
  C       -1.2176000    -1.6989120     0.1341680
  C       -2.2696702    -0.7934141     0.2589864
  C       -0.5406870     2.5426280    -0.1993030
  C        1.2072340    -2.2197810    -0.3093320
  C        2.5023020     0.6131830     0.7097540
  H       -2.8885640     1.2560570     0.2350690
  H       -1.3937740    -2.7714120     0.2029680
  H        1.5916390     1.5501200    -0.8540680
  H       -3.2895990    -1.1861590     0.4450020
  H        0.2351210     2.8885850     0.4923550
  H       -0.2380210     2.8365620    -1.2118290
  H       -1.4595390     3.0868260     0.0338520
  H        1.9415750    -1.8136360    -1.0094830
  H        1.7264620    -2.4417900     0.6300600
  H        0.8237630    -3.1662910    -0.7010550
  H        2.0935470     1.1833990     1.5571020
  H        3.4676080     1.0418550     0.4271840
  H        2.6734620    -0.4116070     1.0419720
units angstrom
no_reorient  #important for SAPT in psi4, default
symmetry c1  #important for SAPT in psi4, default
}

set PROPERTIES_ORIGIN ["COM"]
properties('MP2/aug-cc-pvtz', properties = ['dipole'])
--------------------------------------------------------------------------

    Molecular point group: c1
  Charge       = 0
  Multiplicity = 1
  Basis Set: AUG-CC-PVTZ
    Blend: AUG-CC-PVTZ
  Basis Set: (AUG-CC-PVTZ AUX)
    Blend: AUG-CC-PVTZ-JKFIT

    Orbital Energies [Eh]
    ---------------------

    Doubly Occupied:

       1A    -15.553592     2A    -11.257707     3A    -11.249499
       4A    -11.235799     5A    -11.232169     6A    -11.228311
       7A    -11.224295     8A    -11.222870     9A    -11.222176
      10A    -11.214096    11A     -1.226478    12A     -1.132834
      13A     -1.054721    14A     -1.013396    15A     -0.945294
      16A     -0.923292    17A     -0.891842    18A     -0.793927
      19A     -0.780562    20A     -0.693407    21A     -0.661156
      22A     -0.627848    23A     -0.602105    24A     -0.592014
      25A     -0.579208    26A     -0.569055    27A     -0.565056
      28A     -0.557252    29A     -0.552613    30A     -0.529420
      31A     -0.521908    32A     -0.484102    33A     -0.476491
      34A     -0.472384    35A     -0.402711    36A     -0.317353
      37A     -0.303516

  @DF-RHF Final Energy:  -402.96114514633712

   => Energetics <=

    Nuclear Repulsion Energy =            521.7461186229247687
    One-Electron Energy =               -1579.5936096793441266
    Two-Electron Energy =                 654.8863459100822411
    Total Energy =                       -402.9611451463371168
  Basis Set: (AUG-CC-PVTZ AUX)
    Blend: AUG-CC-PVTZ-RI
    Molecular point group: c1

    Geometry (in Angstrom), charge = 0, multiplicity = 1:

       Center              X                  Y                   Z               Mass
    ------------   -----------------  -----------------  -----------------  -----------------
         N            1.664238007609     0.622368890849    -0.459648704938    14.003074004430
         C            0.340504007609     0.161985890849    -0.196946704938    12.000000000000
         C           -0.733200992391     1.069508890849    -0.074516704938    12.000000000000
         C            0.118006007609    -1.227117109151    -0.105448704938    12.000000000000
         C           -2.020510992391     0.571608890849     0.151348295062    12.000000000000
         C           -1.180199992391    -1.685505109151     0.143918295062    12.000000000000
         C           -2.232270192391    -0.780007209151     0.268736695062    12.000000000000
         C           -0.503286992391     2.556034890849    -0.189552704938    12.000000000000
         C            1.244634007609    -2.206374109151    -0.299581704938    12.000000000000
         C            2.539702007609     0.626589890849     0.719504295062    12.000000000000
         H           -2.851163992391     1.269463890849     0.244819295062     1.007825032230
         H           -1.356373992391    -2.758005109151     0.212718295062     1.007825032230
         H            1.629039007609     1.563526890849    -0.844317704938     1.007825032230
         H           -3.252198992391    -1.172752109151     0.454752295062     1.007825032230
         H            0.272521007609     2.901991890849     0.502105295062     1.007825032230
         H           -0.200620992391     2.849968890849    -1.202078704938     1.007825032230
         H           -1.422138992391     3.100232890849     0.043602295062     1.007825032230
         H            1.978975007609    -1.800229109151    -0.999732704938     1.007825032230
         H            1.763862007609    -2.428383109151     0.639810295062     1.007825032230
         H            0.861163007609    -3.152884109151    -0.691304704938     1.007825032230
         H            2.130947007609     1.196805890849     1.566852295062     1.007825032230
         H            3.505008007609     1.055261890849     0.436934295062     1.007825032230
         H            2.710862007609    -0.398200109151     1.051722295062     1.007825032230

  Basis Set: AUG-CC-PVTZ
    Blend: AUG-CC-PVTZ
  Basis Set: (AUG-CC-PVTZ AUX)
    Blend: AUG-CC-PVTZ-JKFIT
	 Reference Energy          =    -402.9611451463371168 [Eh]
	 Singles Energy            =      -0.0000000000000000 [Eh]
	 Same-Spin Energy          =      -0.4480178596350295 [Eh]
	 Opposite-Spin Energy      =      -1.4658198063283399 [Eh]
	 Correlation Energy        =      -1.9138376659633693 [Eh]
	 Total Energy              =    -404.8749828123004590 [Eh]

	 ================> DF-SCS-MP2 Energies <==================
	-----------------------------------------------------------
	 SCS Same-Spin Scale       =       0.3333333333333333 [-]
	 SCS Opposite-Spin Scale   =       1.2000000000000000 [-]
	 SCS Same-Spin Energy      =      -0.1493392865450098 [Eh]
	 SCS Opposite-Spin Energy  =      -1.7589837675940079 [Eh]
	 SCS Correlation Energy    =      -1.9083230541390177 [Eh]
	 SCS Total Energy          =    -404.8694682004761489 [Eh]
	-----------------------------------------------------------

  Dipole Moment: [D]
     X:     0.5425      Y:     1.0700      Z:     0.5191     Total:     1.3072

*** Psi4 exiting successfully. Buy a developer a beer!
