                               Psi4 1.4a3.dev225

  ==> Input File <==

--------------------------------------------------------------------------
#psi4
#
memory 32 gb

molecule  {
0 1
  N        1.6268380     0.6089620    -0.4693990
  C        0.3031040     0.1485790    -0.2066970
  C       -0.7706010     1.0561020    -0.0842670
  C        0.0806060    -1.2405240    -0.1151990
  C       -2.0579110     0.5582020     0.1415980
  C       -1.2176000    -1.6989120     0.1341680
  C       -2.2850370    -0.8120180     0.2620550
  C       -0.5406870     2.5426280    -0.1993030
  C        1.2072340    -2.2197810    -0.3093320
  C        2.5023020     0.6131830     0.7097540
  H       -2.8885640     1.2560570     0.2350690
  H       -1.3937740    -2.7714120     0.2029680
  H        1.5916390     1.5501200    -0.8540680
  H       -3.2895990    -1.1861590     0.4450020
  H        0.1642984     2.8570030     0.4292144
  H       -0.2380210     2.8365620    -1.2118290
  H       -1.4595390     3.0868260     0.0338520
  H        1.9415750    -1.8136360    -1.0094830
  H        1.7264620    -2.4417900     0.6300600
  H        0.8237630    -3.1662910    -0.7010550
  H        2.0935470     1.1833990     1.5571020
  H        3.4676080     1.0418550     0.4271840
  H        2.6734620    -0.4116070     1.0419720
units angstrom
no_reorient  #important for SAPT in psi4, default
symmetry c1  #important for SAPT in psi4, default
}

set PROPERTIES_ORIGIN ["COM"]
properties('MP2/aug-cc-pvtz', properties = ['dipole'])
--------------------------------------------------------------------------

    Molecular point group: c1
  Charge       = 0
  Multiplicity = 1
  Basis Set: AUG-CC-PVTZ
    Blend: AUG-CC-PVTZ
  Basis Set: (AUG-CC-PVTZ AUX)
    Blend: AUG-CC-PVTZ-JKFIT

    Orbital Energies [Eh]
    ---------------------

    Doubly Occupied:

       1A    -15.554028     2A    -11.257939     3A    -11.249827
       4A    -11.235170     5A    -11.231836     6A    -11.224876
       7A    -11.223788     8A    -11.222654     9A    -11.215994
      10A    -11.214025    11A     -1.226720    12A     -1.130699
      13A     -1.056229    14A     -1.013632    15A     -0.949351
      16A     -0.925085    17A     -0.892372    18A     -0.796454
      19A     -0.781258    20A     -0.693287    21A     -0.660536
      22A     -0.631829    23A     -0.604327    24A     -0.592594
      25A     -0.586131    26A     -0.569922    27A     -0.568754
      28A     -0.556799    29A     -0.551731    30A     -0.530826
      31A     -0.522823    32A     -0.485497    33A     -0.476941
      34A     -0.471258    35A     -0.402587    36A     -0.316973
      37A     -0.302637

  @DF-RHF Final Energy:  -402.95589280715831

   => Energetics <=

    Nuclear Repulsion Energy =            521.7521084611709057
    One-Electron Energy =               -1579.5612339913061533
    Two-Electron Energy =                 654.8532327229768271
    Total Energy =                       -402.9558928071583068
  Basis Set: (AUG-CC-PVTZ AUX)
    Blend: AUG-CC-PVTZ-RI
    Molecular point group: c1

    Geometry (in Angstrom), charge = 0, multiplicity = 1:

       Center              X                  Y                   Z               Mass
    ------------   -----------------  -----------------  -----------------  -----------------
         N            1.666131192679     0.624256876555    -0.459450255458    14.003074004430
         C            0.342397192679     0.163873876555    -0.196748255458    12.000000000000
         C           -0.731307807321     1.071396876555    -0.074318255458    12.000000000000
         C            0.119899192679    -1.225229123445    -0.105250255458    12.000000000000
         C           -2.018617807321     0.573496876555     0.151546744542    12.000000000000
         C           -1.178306807321    -1.683617123445     0.144116744542    12.000000000000
         C           -2.245743807321    -0.796723123445     0.272003744542    12.000000000000
         C           -0.501393807321     2.557922876555    -0.189354255458    12.000000000000
         C            1.246527192679    -2.204486123445    -0.299383255458    12.000000000000
         C            2.541595192679     0.628477876555     0.719702744542    12.000000000000
         H           -2.849270807321     1.271351876555     0.245017744542     1.007825032230
         H           -1.354480807321    -2.756117123445     0.212916744542     1.007825032230
         H            1.630932192679     1.565414876555    -0.844119255458     1.007825032230
         H           -3.250305807321    -1.170864123445     0.454950744542     1.007825032230
         H            0.203591592679     2.872297876555     0.439163144542     1.007825032230
         H           -0.198727807321     2.851856876555    -1.201880255458     1.007825032230
         H           -1.420245807321     3.102120876555     0.043800744542     1.007825032230
         H            1.980868192679    -1.798341123445    -0.999534255458     1.007825032230
         H            1.765755192679    -2.426495123445     0.640008744542     1.007825032230
         H            0.863056192679    -3.150996123445    -0.691106255458     1.007825032230
         H            2.132840192679     1.198693876555     1.567050744542     1.007825032230
         H            3.506901192679     1.057149876555     0.437132744542     1.007825032230
         H            2.712755192679    -0.396312123445     1.051920744542     1.007825032230

  Basis Set: AUG-CC-PVTZ
    Blend: AUG-CC-PVTZ
  Basis Set: (AUG-CC-PVTZ AUX)
    Blend: AUG-CC-PVTZ-JKFIT
	 Reference Energy          =    -402.9558928071583068 [Eh]
	 Singles Energy            =      -0.0000000000000000 [Eh]
	 Same-Spin Energy          =      -0.4479415250643956 [Eh]
	 Opposite-Spin Energy      =      -1.4653961248139784 [Eh]
	 Correlation Energy        =      -1.9133376498783741 [Eh]
	 Total Energy              =    -404.8692304570366787 [Eh]

	 ================> DF-SCS-MP2 Energies <==================
	-----------------------------------------------------------
	 SCS Same-Spin Scale       =       0.3333333333333333 [-]
	 SCS Opposite-Spin Scale   =       1.2000000000000000 [-]
	 SCS Same-Spin Energy      =      -0.1493138416881319 [Eh]
	 SCS Opposite-Spin Energy  =      -1.7584753497767740 [Eh]
	 SCS Correlation Energy    =      -1.9077891914649059 [Eh]
	 SCS Total Energy          =    -404.8636819986232354 [Eh]
	-----------------------------------------------------------

  Dipole Moment: [D]
     X:     0.5669      Y:     1.1075      Z:     0.5408     Total:     1.3566

*** Psi4 exiting successfully. Buy a developer a beer!
