                               Psi4 1.4a3.dev225

  ==> Input File <==

--------------------------------------------------------------------------
#psi4
#
memory 32 gb

molecule  {
0 1
  N        1.6268380     0.6089620    -0.4693990
  C        0.3031040     0.1485790    -0.2066970
  C       -0.7706010     1.0561020    -0.0842670
  C        0.0806060    -1.2405240    -0.1151990
  C       -2.0342453     0.5537560     0.1381039
  C       -1.2176000    -1.6989120     0.1341680
  C       -2.2850370    -0.8120180     0.2620550
  C       -0.5406870     2.5426280    -0.1993030
  C        1.2072340    -2.2197810    -0.3093320
  C        2.5023020     0.6131830     0.7097540
  H       -2.8885640     1.2560570     0.2350690
  H       -1.3937740    -2.7714120     0.2029680
  H        1.5916390     1.5501200    -0.8540680
  H       -3.2895990    -1.1861590     0.4450020
  H        0.2351210     2.8885850     0.4923550
  H       -0.2380210     2.8365620    -1.2118290
  H       -1.4595390     3.0868260     0.0338520
  H        1.9415750    -1.8136360    -1.0094830
  H        1.7264620    -2.4417900     0.6300600
  H        0.8237630    -3.1662910    -0.7010550
  H        2.0935470     1.1833990     1.5571020
  H        3.4676080     1.0418550     0.4271840
  H        2.6734620    -0.4116070     1.0419720
units angstrom
no_reorient  #important for SAPT in psi4, default
symmetry c1  #important for SAPT in psi4, default
}

set PROPERTIES_ORIGIN ["COM"]
properties('MP2/aug-cc-pvtz', properties = ['dipole'])
--------------------------------------------------------------------------

    Molecular point group: c1
  Charge       = 0
  Multiplicity = 1
  Basis Set: AUG-CC-PVTZ
    Blend: AUG-CC-PVTZ
  Basis Set: (AUG-CC-PVTZ AUX)
    Blend: AUG-CC-PVTZ-JKFIT

    Orbital Energies [Eh]
    ---------------------

    Doubly Occupied:

       1A    -15.553816     2A    -11.258418     3A    -11.249710
       4A    -11.233658     5A    -11.231320     6A    -11.228566
       7A    -11.225041     8A    -11.224036     9A    -11.222995
      10A    -11.213932    11A     -1.226844    12A     -1.132765
      13A     -1.055617    14A     -1.012210    15A     -0.945441
      16A     -0.922567    17A     -0.892120    18A     -0.796346
      19A     -0.779690    20A     -0.692637    21A     -0.660130
      22A     -0.630595    23A     -0.603057    24A     -0.591672
      25A     -0.577569    26A     -0.568538    27A     -0.565393
      28A     -0.557072    29A     -0.550428    30A     -0.531197
      31A     -0.521317    32A     -0.484595    33A     -0.477564
      34A     -0.471693    35A     -0.402252    36A     -0.319331
      37A     -0.302076

  @DF-RHF Final Energy:  -402.96115016472589

   => Energetics <=

    Nuclear Repulsion Energy =            521.7740414303647185
    One-Electron Energy =               -1579.6459749610958170
    Two-Electron Energy =                 654.9107833660051483
    Total Energy =                       -402.9611501647258365
  Basis Set: (AUG-CC-PVTZ AUX)
    Blend: AUG-CC-PVTZ-RI
    Molecular point group: c1

    Geometry (in Angstrom), charge = 0, multiplicity = 1:

       Center              X                  Y                   Z               Mass
    ------------   -----------------  -----------------  -----------------  -----------------
         N            1.663500899820     0.624416181553    -0.459610912054    14.003074004430
         C            0.339766899820     0.164033181553    -0.196908912054    12.000000000000
         C           -0.733938100180     1.071556181553    -0.074478912054    12.000000000000
         C            0.117268899820    -1.225069818447    -0.105410912054    12.000000000000
         C           -1.997582400180     0.569210181553     0.147891987946    12.000000000000
         C           -1.180937100180    -1.683457818447     0.143956087946    12.000000000000
         C           -2.248374100180    -0.796563818447     0.271843087946    12.000000000000
         C           -0.504024100180     2.558082181553    -0.189514912054    12.000000000000
         C            1.243896899820    -2.204326818447    -0.299543912054    12.000000000000
         C            2.538964899820     0.628637181553     0.719542087946    12.000000000000
         H           -2.851901100180     1.271511181553     0.244857087946     1.007825032230
         H           -1.357111100180    -2.755957818447     0.212756087946     1.007825032230
         H            1.628301899820     1.565574181553    -0.844279912054     1.007825032230
         H           -3.252936100180    -1.170704818447     0.454790087946     1.007825032230
         H            0.271783899820     2.904039181553     0.502143087946     1.007825032230
         H           -0.201358100180     2.852016181553    -1.202040912054     1.007825032230
         H           -1.422876100180     3.102280181553     0.043640087946     1.007825032230
         H            1.978237899820    -1.798181818447    -0.999694912054     1.007825032230
         H            1.763124899820    -2.426335818447     0.639848087946     1.007825032230
         H            0.860425899820    -3.150836818447    -0.691266912054     1.007825032230
         H            2.130209899820     1.198853181553     1.566890087946     1.007825032230
         H            3.504270899820     1.057309181553     0.436972087946     1.007825032230
         H            2.710124899820    -0.396152818447     1.051760087946     1.007825032230

  Basis Set: AUG-CC-PVTZ
    Blend: AUG-CC-PVTZ
  Basis Set: (AUG-CC-PVTZ AUX)
    Blend: AUG-CC-PVTZ-JKFIT
	 Reference Energy          =    -402.9611501647258933 [Eh]
	 Singles Energy            =      -0.0000000000000000 [Eh]
	 Same-Spin Energy          =      -0.4480228785888881 [Eh]
	 Opposite-Spin Energy      =      -1.4659150069453117 [Eh]
	 Correlation Energy        =      -1.9139378855341997 [Eh]
	 Total Energy              =    -404.8750880502601035 [Eh]

	 ================> DF-SCS-MP2 Energies <==================
	-----------------------------------------------------------
	 SCS Same-Spin Scale       =       0.3333333333333333 [-]
	 SCS Opposite-Spin Scale   =       1.2000000000000000 [-]
	 SCS Same-Spin Energy      =      -0.1493409595296293 [Eh]
	 SCS Opposite-Spin Energy  =      -1.7590980083343741 [Eh]
	 SCS Correlation Energy    =      -1.9084389678640035 [Eh]
	 SCS Total Energy          =    -404.8695891325899083 [Eh]
	-----------------------------------------------------------

  Dipole Moment: [D]
     X:     0.5423      Y:     1.0680      Z:     0.5199     Total:     1.3058

*** Psi4 exiting successfully. Buy a developer a beer!
