                               Psi4 1.4a3.dev225

  ==> Input File <==

--------------------------------------------------------------------------
#psi4
#
memory 32 gb

molecule  {
0 1
  N        1.6268380     0.6089620    -0.4693990
  C        0.3031040     0.1485790    -0.2066970
  C       -0.7706010     1.0561020    -0.0842670
  C        0.0806060    -1.2405240    -0.1151990
  C       -2.0579110     0.5582020     0.1415980
  C       -1.2176000    -1.6989120     0.1341680
  C       -2.2850370    -0.8120180     0.2620550
  C       -0.5406870     2.5426280    -0.1993030
  C        1.2072340    -2.2197810    -0.3093320
  C        2.6215243     0.6137578     0.8703333
  H       -2.8885640     1.2560570     0.2350690
  H       -1.3937740    -2.7714120     0.2029680
  H        1.5916390     1.5501200    -0.8540680
  H       -3.2895990    -1.1861590     0.4450020
  H        0.2351210     2.8885850     0.4923550
  H       -0.2380210     2.8365620    -1.2118290
  H       -1.4595390     3.0868260     0.0338520
  H        1.9415750    -1.8136360    -1.0094830
  H        1.7264620    -2.4417900     0.6300600
  H        0.8237630    -3.1662910    -0.7010550
  H        2.0935470     1.1833990     1.5571020
  H        3.4676080     1.0418550     0.4271840
  H        2.6734620    -0.4116070     1.0419720
units angstrom
no_reorient  #important for SAPT in psi4, default
symmetry c1  #important for SAPT in psi4, default
}

set PROPERTIES_ORIGIN ["COM"]
properties('MP2/aug-cc-pvtz', properties = ['dipole'])
--------------------------------------------------------------------------

    Molecular point group: c1
  Charge       = 0
  Multiplicity = 1
  Basis Set: AUG-CC-PVTZ
    Blend: AUG-CC-PVTZ
  Basis Set: (AUG-CC-PVTZ AUX)
    Blend: AUG-CC-PVTZ-JKFIT

    Orbital Energies [Eh]
    ---------------------

    Doubly Occupied:

       1A    -15.550228     2A    -11.254645     3A    -11.253915
       4A    -11.231867     5A    -11.228306     6A    -11.226174
       7A    -11.222782     8A    -11.221476     9A    -11.220284
      10A    -11.212747    11A     -1.199131    12A     -1.118499
      13A     -1.051582    14A     -1.006026    15A     -0.950179
      16A     -0.920364    17A     -0.903102    18A     -0.789263
      19A     -0.777919    20A     -0.683965    21A     -0.655291
      22A     -0.629186    23A     -0.612371    24A     -0.592940
      25A     -0.580513    26A     -0.567726    27A     -0.558532
      28A     -0.552936    29A     -0.552341    30A     -0.524903
      31A     -0.518604    32A     -0.484547    33A     -0.475909
      34A     -0.463311    35A     -0.404882    36A     -0.314769
      37A     -0.294061

  @DF-RHF Final Energy:  -402.93450233704471

   => Energetics <=

    Nuclear Repulsion Energy =            517.9276755851334428
    One-Electron Energy =               -1572.1138018791668856
    Two-Electron Energy =                 651.2516239569886238
    Total Energy =                       -402.9345023370447052
  Basis Set: (AUG-CC-PVTZ AUX)
    Blend: AUG-CC-PVTZ-RI
    Molecular point group: c1

    Geometry (in Angstrom), charge = 0, multiplicity = 1:

       Center              X                  Y                   Z               Mass
    ------------   -----------------  -----------------  -----------------  -----------------
         N            1.655013568468     0.623970234405    -0.474183901381    14.003074004430
         C            0.331279568468     0.163587234405    -0.211481901381    12.000000000000
         C           -0.742425431532     1.071110234405    -0.089051901381    12.000000000000
         C            0.108781568468    -1.225515765595    -0.119983901381    12.000000000000
         C           -2.029735431532     0.573210234405     0.136813098619    12.000000000000
         C           -1.189424431532    -1.683903765595     0.129383098619    12.000000000000
         C           -2.256861431532    -0.797009765595     0.257270098619    12.000000000000
         C           -0.512511431532     2.557636234405    -0.204087901381    12.000000000000
         C            1.235409568468    -2.204772765595    -0.314116901381    12.000000000000
         C            2.649699868468     0.628766034405     0.865548398619    12.000000000000
         H           -2.860388431532     1.271065234405     0.230284098619     1.007825032230
         H           -1.365598431532    -2.756403765595     0.198183098619     1.007825032230
         H            1.619814568468     1.565128234405    -0.858852901381     1.007825032230
         H           -3.261423431532    -1.171150765595     0.440217098619     1.007825032230
         H            0.263296568468     2.903593234405     0.487570098619     1.007825032230
         H           -0.209845431532     2.851570234405    -1.216613901381     1.007825032230
         H           -1.431363431532     3.101834234405     0.029067098619     1.007825032230
         H            1.969750568468    -1.798627765595    -1.014267901381     1.007825032230
         H            1.754637568468    -2.426781765595     0.625275098619     1.007825032230
         H            0.851938568468    -3.151282765595    -0.705839901381     1.007825032230
         H            2.121722568468     1.198407234405     1.552317098619     1.007825032230
         H            3.495783568468     1.056863234405     0.422399098619     1.007825032230
         H            2.701637568468    -0.396598765595     1.037187098619     1.007825032230

  Basis Set: AUG-CC-PVTZ
    Blend: AUG-CC-PVTZ
  Basis Set: (AUG-CC-PVTZ AUX)
    Blend: AUG-CC-PVTZ-JKFIT
	 Reference Energy          =    -402.9345023370447052 [Eh]
	 Singles Energy            =      -0.0000000000000000 [Eh]
	 Same-Spin Energy          =      -0.4483816442335968 [Eh]
	 Opposite-Spin Energy      =      -1.4683882036290914 [Eh]
	 Correlation Energy        =      -1.9167698478626882 [Eh]
	 Total Energy              =    -404.8512721849073728 [Eh]

	 ================> DF-SCS-MP2 Energies <==================
	-----------------------------------------------------------
	 SCS Same-Spin Scale       =       0.3333333333333333 [-]
	 SCS Opposite-Spin Scale   =       1.2000000000000000 [-]
	 SCS Same-Spin Energy      =      -0.1494605480778656 [Eh]
	 SCS Opposite-Spin Energy  =      -1.7620658443549095 [Eh]
	 SCS Correlation Energy    =      -1.9115263924327752 [Eh]
	 SCS Total Energy          =    -404.8460287294774957 [Eh]
	-----------------------------------------------------------

  Dipole Moment: [D]
     X:     0.8433      Y:     1.1432      Z:     0.7979     Total:     1.6293

*** Psi4 exiting successfully. Buy a developer a beer!
