                               Psi4 1.4a3.dev225

  ==> Input File <==

--------------------------------------------------------------------------
#psi4
#
memory 32 gb

molecule  {
0 1
  N        1.6268380     0.6089620    -0.4693990
  C        0.3031040     0.1485790    -0.2066970
  C       -0.7706010     1.0561020    -0.0842670
  C        0.0806060    -1.2405240    -0.1151990
  C       -2.0579110     0.5582020     0.1415980
  C       -1.2176000    -1.6989120     0.1341680
  C       -2.3233325    -0.7801997     0.2666431
  C       -0.5406870     2.5426280    -0.1993030
  C        1.2072340    -2.2197810    -0.3093320
  C        2.5023020     0.6131830     0.7097540
  H       -2.8885640     1.2560570     0.2350690
  H       -1.3937740    -2.7714120     0.2029680
  H        1.5916390     1.5501200    -0.8540680
  H       -3.2895990    -1.1861590     0.4450020
  H        0.2351210     2.8885850     0.4923550
  H       -0.2380210     2.8365620    -1.2118290
  H       -1.4595390     3.0868260     0.0338520
  H        1.9415750    -1.8136360    -1.0094830
  H        1.7264620    -2.4417900     0.6300600
  H        0.8237630    -3.1662910    -0.7010550
  H        2.0935470     1.1833990     1.5571020
  H        3.4676080     1.0418550     0.4271840
  H        2.6734620    -0.4116070     1.0419720
units angstrom
no_reorient  #important for SAPT in psi4, default
symmetry c1  #important for SAPT in psi4, default
}

set PROPERTIES_ORIGIN ["COM"]
properties('MP2/aug-cc-pvtz', properties = ['dipole'])
--------------------------------------------------------------------------

    Molecular point group: c1
  Charge       = 0
  Multiplicity = 1
  Basis Set: AUG-CC-PVTZ
    Blend: AUG-CC-PVTZ
  Basis Set: (AUG-CC-PVTZ AUX)
    Blend: AUG-CC-PVTZ-JKFIT

    Orbital Energies [Eh]
    ---------------------

    Doubly Occupied:

       1A    -15.554179     2A    -11.259150     3A    -11.249934
       4A    -11.235370     5A    -11.232315     6A    -11.228291
       7A    -11.228157     8A    -11.224917     9A    -11.222886
      10A    -11.214182    11A     -1.226776    12A     -1.128933
      13A     -1.053797    14A     -1.012345    15A     -0.945422
      16A     -0.919354    17A     -0.893281    18A     -0.797888
      19A     -0.779668    20A     -0.692093    21A     -0.658683
      22A     -0.635352    23A     -0.603894    24A     -0.590970
      25A     -0.578299    26A     -0.568435    27A     -0.565891
      28A     -0.556946    29A     -0.549856    30A     -0.532527
      31A     -0.521246    32A     -0.483612    33A     -0.478645
      34A     -0.468893    35A     -0.402106    36A     -0.317403
      37A     -0.301396

  @DF-RHF Final Energy:  -402.95850103114327

   => Energetics <=

    Nuclear Repulsion Energy =            520.8118279335500347
    One-Electron Energy =               -1577.7144699939308339
    Two-Electron Energy =                 653.9441410292376986
    Total Energy =                       -402.9585010311432143
  Basis Set: (AUG-CC-PVTZ AUX)
    Blend: AUG-CC-PVTZ-RI
    Molecular point group: c1

    Geometry (in Angstrom), charge = 0, multiplicity = 1:

       Center              X                  Y                   Z               Mass
    ------------   -----------------  -----------------  -----------------  -----------------
         N            1.669004289805     0.621195188651    -0.460328772563    14.003074004430
         C            0.345270289805     0.160812188651    -0.197626772563    12.000000000000
         C           -0.728434710195     1.068335188651    -0.075196772563    12.000000000000
         C            0.122772289805    -1.228290811349    -0.106128772563    12.000000000000
         C           -2.015744710195     0.570435188651     0.150668227437    12.000000000000
         C           -1.175433710195    -1.686678811349     0.143238227437    12.000000000000
         C           -2.281166210195    -0.767966511349     0.275713327437    12.000000000000
         C           -0.498520710195     2.554861188651    -0.190232772563    12.000000000000
         C            1.249400289805    -2.207547811349    -0.300261772563    12.000000000000
         C            2.544468289805     0.625416188651     0.718824227437    12.000000000000
         H           -2.846397710195     1.268290188651     0.244139227437     1.007825032230
         H           -1.351607710195    -2.759178811349     0.212038227437     1.007825032230
         H            1.633805289805     1.562353188651    -0.844997772563     1.007825032230
         H           -3.247432710195    -1.173925811349     0.454072227437     1.007825032230
         H            0.277287289805     2.900818188651     0.501425227437     1.007825032230
         H           -0.195854710195     2.848795188651    -1.202758772563     1.007825032230
         H           -1.417372710195     3.099059188651     0.042922227437     1.007825032230
         H            1.983741289805    -1.801402811349    -1.000412772563     1.007825032230
         H            1.768628289805    -2.429556811349     0.639130227437     1.007825032230
         H            0.865929289805    -3.154057811349    -0.691984772563     1.007825032230
         H            2.135713289805     1.195632188651     1.566172227437     1.007825032230
         H            3.509774289805     1.054088188651     0.436254227437     1.007825032230
         H            2.715628289805    -0.399373811349     1.051042227437     1.007825032230

  Basis Set: AUG-CC-PVTZ
    Blend: AUG-CC-PVTZ
  Basis Set: (AUG-CC-PVTZ AUX)
    Blend: AUG-CC-PVTZ-JKFIT
	 Reference Energy          =    -402.9585010311432711 [Eh]
	 Singles Energy            =      -0.0000000000000000 [Eh]
	 Same-Spin Energy          =      -0.4479575866212260 [Eh]
	 Opposite-Spin Energy      =      -1.4662599118953608 [Eh]
	 Correlation Energy        =      -1.9142174985165867 [Eh]
	 Total Energy              =    -404.8727185296598350 [Eh]

	 ================> DF-SCS-MP2 Energies <==================
	-----------------------------------------------------------
	 SCS Same-Spin Scale       =       0.3333333333333333 [-]
	 SCS Opposite-Spin Scale   =       1.2000000000000000 [-]
	 SCS Same-Spin Energy      =      -0.1493191955404087 [Eh]
	 SCS Opposite-Spin Energy  =      -1.7595118942744328 [Eh]
	 SCS Correlation Energy    =      -1.9088310898148415 [Eh]
	 SCS Total Energy          =    -404.8673321209581104 [Eh]
	-----------------------------------------------------------

  Dipole Moment: [D]
     X:     0.5456      Y:     1.0618      Z:     0.5213     Total:     1.3026

*** Psi4 exiting successfully. Buy a developer a beer!
