                               Psi4 1.4a3.dev225

  ==> Input File <==

--------------------------------------------------------------------------
#psi4
#
memory 32 gb

molecule  {
0 1
  N        1.6268380     0.6089620    -0.4693990
  C        0.3031040     0.1485790    -0.2066970
  C       -0.7706010     1.0561020    -0.0842670
  C        0.0806060    -1.2405240    -0.1151990
  C       -2.0579110     0.5582020     0.1415980
  C       -1.2176000    -1.6989120     0.1341680
  C       -2.2850370    -0.8120180     0.2620550
  C       -0.5406870     2.5426280    -0.1993030
  C        1.2072340    -2.2197810    -0.3093320
  C        2.5023020     0.6131830     0.7097540
  H       -2.8885640     1.2560570     0.2350690
  H       -1.3937740    -2.7714120     0.2029680
  H        1.5916390     1.5501200    -0.8540680
  H       -3.2895990    -1.1861590     0.4450020
  H        0.2351210     2.8885850     0.4923550
  H       -0.2380210     2.8365620    -1.2118290
  H       -1.4595390     3.0868260     0.0338520
  H        1.9415750    -1.8136360    -1.0094830
  H        1.7264620    -2.4417900     0.6300600
  H        0.8307748    -3.1489840    -0.6938923
  H        2.0935470     1.1833990     1.5571020
  H        3.4676080     1.0418550     0.4271840
  H        2.6734620    -0.4116070     1.0419720
units angstrom
no_reorient  #important for SAPT in psi4, default
symmetry c1  #important for SAPT in psi4, default
}

set PROPERTIES_ORIGIN ["COM"]
properties('MP2/aug-cc-pvtz', properties = ['dipole'])
--------------------------------------------------------------------------

    Molecular point group: c1
  Charge       = 0
  Multiplicity = 1
  Basis Set: AUG-CC-PVTZ
    Blend: AUG-CC-PVTZ
  Basis Set: (AUG-CC-PVTZ AUX)
    Blend: AUG-CC-PVTZ-JKFIT

    Orbital Energies [Eh]
    ---------------------

    Doubly Occupied:

       1A    -15.553680     2A    -11.258080     3A    -11.249525
       4A    -11.235821     5A    -11.231878     6A    -11.228318
       7A    -11.225331     8A    -11.224180     9A    -11.222982
      10A    -11.211672    11A     -1.226436    12A     -1.130800
      13A     -1.054625    14A     -1.012562    15A     -0.945855
      16A     -0.922531    17A     -0.892354    18A     -0.794652
      19A     -0.781648    20A     -0.692545    21A     -0.660674
      22A     -0.629653    23A     -0.603404    24A     -0.591428
      25A     -0.578776    26A     -0.570190    27A     -0.565237
      28A     -0.557567    29A     -0.552103    30A     -0.530602
      31A     -0.522380    32A     -0.485198    33A     -0.477161
      34A     -0.470915    35A     -0.402364    36A     -0.317072
      37A     -0.302657

  @DF-RHF Final Energy:  -402.96180371804047

   => Energetics <=

    Nuclear Repulsion Energy =            521.4082751555916957
    One-Electron Energy =               -1578.9144374958848402
    Two-Electron Energy =                 654.5443586222526164
    Total Energy =                       -402.9618037180404144
  Basis Set: (AUG-CC-PVTZ AUX)
    Blend: AUG-CC-PVTZ-RI
    Molecular point group: c1

    Geometry (in Angstrom), charge = 0, multiplicity = 1:

       Center              X                  Y                   Z               Mass
    ------------   -----------------  -----------------  -----------------  -----------------
         N            1.665550580761     0.623892185159    -0.459974688534    14.003074004430
         C            0.341816580761     0.163509185159    -0.197272688534    12.000000000000
         C           -0.731888419239     1.071032185159    -0.074842688534    12.000000000000
         C            0.119318580761    -1.225593814841    -0.105774688534    12.000000000000
         C           -2.019198419239     0.573132185159     0.151022311466    12.000000000000
         C           -1.178887419239    -1.683981814841     0.143592311466    12.000000000000
         C           -2.246324419239    -0.797087814841     0.271479311466    12.000000000000
         C           -0.501974419239     2.557558185159    -0.189878688534    12.000000000000
         C            1.245946580761    -2.204850814841    -0.299907688534    12.000000000000
         C            2.541014580761     0.628113185159     0.719178311466    12.000000000000
         H           -2.849851419239     1.270987185159     0.244493311466     1.007825032230
         H           -1.355061419239    -2.756481814841     0.212392311466     1.007825032230
         H            1.630351580761     1.565050185159    -0.844643688534     1.007825032230
         H           -3.250886419239    -1.171228814841     0.454426311466     1.007825032230
         H            0.273833580761     2.903515185159     0.501779311466     1.007825032230
         H           -0.199308419239     2.851492185159    -1.202404688534     1.007825032230
         H           -1.420826419239     3.101756185159     0.043276311466     1.007825032230
         H            1.980287580761    -1.798705814841    -1.000058688534     1.007825032230
         H            1.765174580761    -2.426859814841     0.639484311466     1.007825032230
         H            0.869487380761    -3.134053814841    -0.684467988534     1.007825032230
         H            2.132259580761     1.198329185159     1.566526311466     1.007825032230
         H            3.506320580761     1.056785185159     0.436608311466     1.007825032230
         H            2.712174580761    -0.396676814841     1.051396311466     1.007825032230

  Basis Set: AUG-CC-PVTZ
    Blend: AUG-CC-PVTZ
  Basis Set: (AUG-CC-PVTZ AUX)
    Blend: AUG-CC-PVTZ-JKFIT
	 Reference Energy          =    -402.9618037180404713 [Eh]
	 Singles Energy            =      -0.0000000000000000 [Eh]
	 Same-Spin Energy          =      -0.4479878151482257 [Eh]
	 Opposite-Spin Energy      =      -1.4657904729627811 [Eh]
	 Correlation Energy        =      -1.9137782881110068 [Eh]
	 Total Energy              =    -404.8755820061514896 [Eh]

	 ================> DF-SCS-MP2 Energies <==================
	-----------------------------------------------------------
	 SCS Same-Spin Scale       =       0.3333333333333333 [-]
	 SCS Opposite-Spin Scale   =       1.2000000000000000 [-]
	 SCS Same-Spin Energy      =      -0.1493292717160752 [Eh]
	 SCS Opposite-Spin Energy  =      -1.7589485675553374 [Eh]
	 SCS Correlation Energy    =      -1.9082778392714126 [Eh]
	 SCS Total Energy          =    -404.8700815573118916 [Eh]
	-----------------------------------------------------------

  Dipole Moment: [D]
     X:     0.5396      Y:     1.0599      Z:     0.5167     Total:     1.2968

*** Psi4 exiting successfully. Buy a developer a beer!
