                               Psi4 1.4a3.dev225

  ==> Input File <==

--------------------------------------------------------------------------
#psi4
#
memory 32 gb

molecule  {
0 1
  N        1.6268380     0.6089620    -0.4693990
  C        0.3031040     0.1485790    -0.2066970
  C       -0.7706010     1.0561020    -0.0842670
  C        0.0806060    -1.2405240    -0.1151990
  C       -2.0579110     0.5582020     0.1415980
  C       -1.2176000    -1.6989120     0.1341680
  C       -2.2850370    -0.8120180     0.2620550
  C       -0.5406870     2.5426280    -0.1993030
  C        1.2072340    -2.2197810    -0.3093320
  C        2.5023020     0.6131830     0.7097540
  H       -2.9038206     1.2688745     0.2367858
  H       -1.3937740    -2.7714120     0.2029680
  H        1.5916390     1.5501200    -0.8540680
  H       -3.2895990    -1.1861590     0.4450020
  H        0.2351210     2.8885850     0.4923550
  H       -0.2380210     2.8365620    -1.2118290
  H       -1.4595390     3.0868260     0.0338520
  H        1.9415750    -1.8136360    -1.0094830
  H        1.7264620    -2.4417900     0.6300600
  H        0.8237630    -3.1662910    -0.7010550
  H        2.0935470     1.1833990     1.5571020
  H        3.4676080     1.0418550     0.4271840
  H        2.6734620    -0.4116070     1.0419720
units angstrom
no_reorient  #important for SAPT in psi4, default
symmetry c1  #important for SAPT in psi4, default
}

set PROPERTIES_ORIGIN ["COM"]
properties('MP2/aug-cc-pvtz', properties = ['dipole'])
--------------------------------------------------------------------------

    Molecular point group: c1
  Charge       = 0
  Multiplicity = 1
  Basis Set: AUG-CC-PVTZ
    Blend: AUG-CC-PVTZ
  Basis Set: (AUG-CC-PVTZ AUX)
    Blend: AUG-CC-PVTZ-JKFIT

    Orbital Energies [Eh]
    ---------------------

    Doubly Occupied:

       1A    -15.553891     2A    -11.258390     3A    -11.249698
       4A    -11.236117     5A    -11.232127     6A    -11.228356
       7A    -11.227484     8A    -11.224661     9A    -11.223205
      10A    -11.214193    11A     -1.226647    12A     -1.130825
      13A     -1.054290    14A     -1.012388    15A     -0.945392
      16A     -0.921614    17A     -0.892078    18A     -0.794729
      19A     -0.780215    20A     -0.692168    21A     -0.659830
      22A     -0.629631    23A     -0.603245    24A     -0.591561
      25A     -0.578262    26A     -0.568759    27A     -0.565292
      28A     -0.556744    29A     -0.550840    30A     -0.530798
      31A     -0.521013    32A     -0.484922    33A     -0.477107
      34A     -0.470927    35A     -0.402518    36A     -0.317212
      37A     -0.302866

  @DF-RHF Final Energy:  -402.96109681562695

   => Energetics <=

    Nuclear Repulsion Energy =            521.2101009921678951
    One-Electron Energy =               -1578.5224010998101676
    Two-Electron Energy =                 654.3512032920154979
    Total Energy =                       -402.9610968156268882
  Basis Set: (AUG-CC-PVTZ AUX)
    Blend: AUG-CC-PVTZ-RI
    Molecular point group: c1

    Geometry (in Angstrom), charge = 0, multiplicity = 1:

       Center              X                  Y                   Z               Mass
    ------------   -----------------  -----------------  -----------------  -----------------
         N            1.665716693668     0.623925674942    -0.459934064409    14.003074004430
         C            0.341982693668     0.163542674942    -0.197232064409    12.000000000000
         C           -0.731722306332     1.071065674942    -0.074802064409    12.000000000000
         C            0.119484693668    -1.225560325058    -0.105734064409    12.000000000000
         C           -2.019032306332     0.573165674942     0.151062935591    12.000000000000
         C           -1.178721306332    -1.683948325058     0.143632935591    12.000000000000
         C           -2.246158306332    -0.797054325058     0.271519935591    12.000000000000
         C           -0.501808306332     2.557591674942    -0.189838064409    12.000000000000
         C            1.246112693668    -2.204817325058    -0.299867064409    12.000000000000
         C            2.541180693668     0.628146674942     0.719218935591    12.000000000000
         H           -2.864941906332     1.283838174942     0.246250735591     1.007825032230
         H           -1.354895306332    -2.756448325058     0.212432935591     1.007825032230
         H            1.630517693668     1.565083674942    -0.844603064409     1.007825032230
         H           -3.250720306332    -1.171195325058     0.454466935591     1.007825032230
         H            0.273999693668     2.903548674942     0.501819935591     1.007825032230
         H           -0.199142306332     2.851525674942    -1.202364064409     1.007825032230
         H           -1.420660306332     3.101789674942     0.043316935591     1.007825032230
         H            1.980453693668    -1.798672325058    -1.000018064409     1.007825032230
         H            1.765340693668    -2.426826325058     0.639524935591     1.007825032230
         H            0.862641693668    -3.151327325058    -0.691590064409     1.007825032230
         H            2.132425693668     1.198362674942     1.566566935591     1.007825032230
         H            3.506486693668     1.056818674942     0.436648935591     1.007825032230
         H            2.712340693668    -0.396643325058     1.051436935591     1.007825032230

  Basis Set: AUG-CC-PVTZ
    Blend: AUG-CC-PVTZ
  Basis Set: (AUG-CC-PVTZ AUX)
    Blend: AUG-CC-PVTZ-JKFIT
	 Reference Energy          =    -402.9610968156269450 [Eh]
	 Singles Energy            =      -0.0000000000000000 [Eh]
	 Same-Spin Energy          =      -0.4480392850410290 [Eh]
	 Opposite-Spin Energy      =      -1.4660851637287222 [Eh]
	 Correlation Energy        =      -1.9141244487697513 [Eh]
	 Total Energy              =    -404.8752212643967141 [Eh]

	 ================> DF-SCS-MP2 Energies <==================
	-----------------------------------------------------------
	 SCS Same-Spin Scale       =       0.3333333333333333 [-]
	 SCS Opposite-Spin Scale   =       1.2000000000000000 [-]
	 SCS Same-Spin Energy      =      -0.1493464283470097 [Eh]
	 SCS Opposite-Spin Energy  =      -1.7593021964744666 [Eh]
	 SCS Correlation Energy    =      -1.9086486248214762 [Eh]
	 SCS Total Energy          =    -404.8697454404484120 [Eh]
	-----------------------------------------------------------

  Dipole Moment: [D]
     X:     0.5476      Y:     1.0658      Z:     0.5199     Total:     1.3061

*** Psi4 exiting successfully. Buy a developer a beer!
