                               Psi4 1.4a3.dev225

  ==> Input File <==

--------------------------------------------------------------------------
#psi4
#
memory 32 gb

molecule  {
0 1
  N        1.6268380     0.6089620    -0.4693990
  C        0.3031040     0.1485790    -0.2066970
  C       -0.7706010     1.0561020    -0.0842670
  C        0.1562536    -1.1461493    -0.2161780
  C       -2.0579110     0.5582020     0.1415980
  C       -1.2176000    -1.6989120     0.1341680
  C       -2.2850370    -0.8120180     0.2620550
  C       -0.5406870     2.5426280    -0.1993030
  C        1.2072340    -2.2197810    -0.3093320
  C        2.5023020     0.6131830     0.7097540
  H       -2.8885640     1.2560570     0.2350690
  H       -1.3937740    -2.7714120     0.2029680
  H        1.5916390     1.5501200    -0.8540680
  H       -3.2895990    -1.1861590     0.4450020
  H        0.2351210     2.8885850     0.4923550
  H       -0.2380210     2.8365620    -1.2118290
  H       -1.4595390     3.0868260     0.0338520
  H        1.9415750    -1.8136360    -1.0094830
  H        1.7264620    -2.4417900     0.6300600
  H        0.8237630    -3.1662910    -0.7010550
  H        2.0935470     1.1833990     1.5571020
  H        3.4676080     1.0418550     0.4271840
  H        2.6734620    -0.4116070     1.0419720
units angstrom
no_reorient  #important for SAPT in psi4, default
symmetry c1  #important for SAPT in psi4, default
}

set PROPERTIES_ORIGIN ["COM"]
properties('MP2/aug-cc-pvtz', properties = ['dipole'])
--------------------------------------------------------------------------

    Molecular point group: c1
  Charge       = 0
  Multiplicity = 1
  Basis Set: AUG-CC-PVTZ
    Blend: AUG-CC-PVTZ
  Basis Set: (AUG-CC-PVTZ AUX)
    Blend: AUG-CC-PVTZ-JKFIT

    Orbital Energies [Eh]
    ---------------------

    Doubly Occupied:

       1A    -15.548719     2A    -11.247813     3A    -11.244872
       4A    -11.238992     5A    -11.233731     6A    -11.230058
       7A    -11.229576     8A    -11.225925     9A    -11.224507
      10A    -11.214997    11A     -1.230358    12A     -1.127118
      13A     -1.050646    14A     -1.017890    15A     -0.951083
      16A     -0.915907    17A     -0.893069    18A     -0.804823
      19A     -0.772289    20A     -0.692442    21A     -0.656005
      22A     -0.630320    23A     -0.604467    24A     -0.590900
      25A     -0.586733    26A     -0.568856    27A     -0.567213
      28A     -0.554909    29A     -0.545303    30A     -0.529313
      31A     -0.523803    32A     -0.494671    33A     -0.472028
      34A     -0.453589    35A     -0.401315    36A     -0.319814
      37A     -0.304520

  @DF-RHF Final Energy:  -402.93769790344646

   => Energetics <=

    Nuclear Repulsion Energy =            522.0726287445934304
    One-Electron Energy =               -1580.2235003787502592
    Two-Electron Energy =                 655.2131737307104231
    Total Energy =                       -402.9376979034464057
  Basis Set: (AUG-CC-PVTZ AUX)
    Blend: AUG-CC-PVTZ-RI
    Molecular point group: c1

    Geometry (in Angstrom), charge = 0, multiplicity = 1:

       Center              X                  Y                   Z               Mass
    ------------   -----------------  -----------------  -----------------  -----------------
         N            1.658883870650     0.615638933039    -0.450952309214    14.003074004430
         C            0.335149870650     0.155255933039    -0.188250309214    12.000000000000
         C           -0.738555129350     1.062778933039    -0.065820309214    12.000000000000
         C            0.188299470650    -1.139472366961    -0.197731309214    12.000000000000
         C           -2.025865129350     0.564878933039     0.160044690786    12.000000000000
         C           -1.185554129350    -1.692235066961     0.152614690786    12.000000000000
         C           -2.252991129350    -0.805341066961     0.280501690786    12.000000000000
         C           -0.508641129350     2.549304933039    -0.180856309214    12.000000000000
         C            1.239279870650    -2.213104066961    -0.290885309214    12.000000000000
         C            2.534347870650     0.619859933039     0.728200690786    12.000000000000
         H           -2.856518129350     1.262733933039     0.253515690786     1.007825032230
         H           -1.361728129350    -2.764735066961     0.221414690786     1.007825032230
         H            1.623684870650     1.556796933039    -0.835621309214     1.007825032230
         H           -3.257553129350    -1.179482066961     0.463448690786     1.007825032230
         H            0.267166870650     2.895261933039     0.510801690786     1.007825032230
         H           -0.205975129350     2.843238933039    -1.193382309214     1.007825032230
         H           -1.427493129350     3.093502933039     0.052298690786     1.007825032230
         H            1.973620870650    -1.806959066961    -0.991036309214     1.007825032230
         H            1.758507870650    -2.435113066961     0.648506690786     1.007825032230
         H            0.855808870650    -3.159614066961    -0.682608309214     1.007825032230
         H            2.125592870650     1.190075933039     1.575548690786     1.007825032230
         H            3.499653870650     1.048531933039     0.445630690786     1.007825032230
         H            2.705507870650    -0.404930066961     1.060418690786     1.007825032230

  Basis Set: AUG-CC-PVTZ
    Blend: AUG-CC-PVTZ
  Basis Set: (AUG-CC-PVTZ AUX)
    Blend: AUG-CC-PVTZ-JKFIT
	 Reference Energy          =    -402.9376979034464625 [Eh]
	 Singles Energy            =      -0.0000000000000000 [Eh]
	 Same-Spin Energy          =      -0.4473794507802697 [Eh]
	 Opposite-Spin Energy      =      -1.4669551766543922 [Eh]
	 Correlation Energy        =      -1.9143346274346620 [Eh]
	 Total Energy              =    -404.8520325308811039 [Eh]

	 ================> DF-SCS-MP2 Energies <==================
	-----------------------------------------------------------
	 SCS Same-Spin Scale       =       0.3333333333333333 [-]
	 SCS Opposite-Spin Scale   =       1.2000000000000000 [-]
	 SCS Same-Spin Energy      =      -0.1491264835934232 [Eh]
	 SCS Opposite-Spin Energy  =      -1.7603462119852706 [Eh]
	 SCS Correlation Energy    =      -1.9094726955786938 [Eh]
	 SCS Total Energy          =    -404.8471705990251621 [Eh]
	-----------------------------------------------------------

  Dipole Moment: [D]
     X:     0.3900      Y:     1.0405      Z:     0.5689     Total:     1.2484

*** Psi4 exiting successfully. Buy a developer a beer!
