                               Psi4 1.4a3.dev225

  ==> Input File <==

--------------------------------------------------------------------------
#psi4
#
memory 32 gb

molecule  {
0 1
  N        1.6268380     0.6089620    -0.4693990
  C        0.3031040     0.1485790    -0.2066970
  C       -0.7706010     1.0561020    -0.0842670
  C        0.0806060    -1.2405240    -0.1151990
  C       -2.0579110     0.5582020     0.1415980
  C       -1.2176000    -1.6989120     0.1341680
  C       -2.3432074    -0.8890774     0.2739306
  C       -0.5406870     2.5426280    -0.1993030
  C        1.2072340    -2.2197810    -0.3093320
  C        2.5023020     0.6131830     0.7097540
  H       -2.8885640     1.2560570     0.2350690
  H       -1.3937740    -2.7714120     0.2029680
  H        1.5916390     1.5501200    -0.8540680
  H       -3.2895990    -1.1861590     0.4450020
  H        0.2351210     2.8885850     0.4923550
  H       -0.2380210     2.8365620    -1.2118290
  H       -1.4595390     3.0868260     0.0338520
  H        1.9415750    -1.8136360    -1.0094830
  H        1.7264620    -2.4417900     0.6300600
  H        0.8237630    -3.1662910    -0.7010550
  H        2.0935470     1.1833990     1.5571020
  H        3.4676080     1.0418550     0.4271840
  H        2.6734620    -0.4116070     1.0419720
units angstrom
no_reorient  #important for SAPT in psi4, default
symmetry c1  #important for SAPT in psi4, default
}

set PROPERTIES_ORIGIN ["COM"]
properties('MP2/aug-cc-pvtz', properties = ['dipole'])
--------------------------------------------------------------------------

    Molecular point group: c1
  Charge       = 0
  Multiplicity = 1
  Basis Set: AUG-CC-PVTZ
    Blend: AUG-CC-PVTZ
  Basis Set: (AUG-CC-PVTZ AUX)
    Blend: AUG-CC-PVTZ-JKFIT

    Orbital Energies [Eh]
    ---------------------

    Doubly Occupied:

       1A    -15.554826     2A    -11.260542     3A    -11.250350
       4A    -11.236593     5A    -11.233943     6A    -11.231772
       7A    -11.228779     8A    -11.226923     9A    -11.225355
      10A    -11.214353    11A     -1.227177    12A     -1.124381
      13A     -1.053823    14A     -1.009242    15A     -0.945835
      16A     -0.918492    17A     -0.892987    18A     -0.801346
      19A     -0.781727    20A     -0.689898    21A     -0.663006
      22A     -0.637177    23A     -0.607448    24A     -0.590145
      25A     -0.577420    26A     -0.568998    27A     -0.566026
      28A     -0.557002    29A     -0.549948    30A     -0.534776
      31A     -0.516824    32A     -0.494616    33A     -0.468990
      34A     -0.464416    35A     -0.401688    36A     -0.318534
      37A     -0.298182

  @DF-RHF Final Energy:  -402.94846372693848

   => Energetics <=

    Nuclear Repulsion Energy =            519.6825696008663726
    One-Electron Energy =               -1575.4149820548473144
    Two-Electron Energy =                 652.7839487270424570
    Total Energy =                       -402.9484637269384848
  Basis Set: (AUG-CC-PVTZ AUX)
    Blend: AUG-CC-PVTZ-RI
    Molecular point group: c1

    Geometry (in Angstrom), charge = 0, multiplicity = 1:

       Center              X                  Y                   Z               Mass
    ------------   -----------------  -----------------  -----------------  -----------------
         N            1.670769577204     0.630865699289    -0.460976047866    14.003074004430
         C            0.347035577204     0.170482699289    -0.198274047866    12.000000000000
         C           -0.726669422796     1.078005699289    -0.075844047866    12.000000000000
         C            0.124537577204    -1.218620300711    -0.106776047866    12.000000000000
         C           -2.013979422796     0.580105699289     0.150020952134    12.000000000000
         C           -1.173668422796    -1.677008300711     0.142590952134    12.000000000000
         C           -2.299275822796    -0.867173700711     0.282353552134    12.000000000000
         C           -0.496755422796     2.564531699289    -0.190880047866    12.000000000000
         C            1.251165577204    -2.197877300711    -0.300909047866    12.000000000000
         C            2.546233577204     0.635086699289     0.718176952134    12.000000000000
         H           -2.844632422796     1.277960699289     0.243491952134     1.007825032230
         H           -1.349842422796    -2.749508300711     0.211390952134     1.007825032230
         H            1.635570577204     1.572023699289    -0.845645047866     1.007825032230
         H           -3.245667422796    -1.164255300711     0.453424952134     1.007825032230
         H            0.279052577204     2.910488699289     0.500777952134     1.007825032230
         H           -0.194089422796     2.858465699289    -1.203406047866     1.007825032230
         H           -1.415607422796     3.108729699289     0.042274952134     1.007825032230
         H            1.985506577204    -1.791732300711    -1.001060047866     1.007825032230
         H            1.770393577204    -2.419886300711     0.638482952134     1.007825032230
         H            0.867694577204    -3.144387300711    -0.692632047866     1.007825032230
         H            2.137478577204     1.205302699289     1.565524952134     1.007825032230
         H            3.511539577204     1.063758699289     0.435606952134     1.007825032230
         H            2.717393577204    -0.389703300711     1.050394952134     1.007825032230

  Basis Set: AUG-CC-PVTZ
    Blend: AUG-CC-PVTZ
  Basis Set: (AUG-CC-PVTZ AUX)
    Blend: AUG-CC-PVTZ-JKFIT
	 Reference Energy          =    -402.9484637269384848 [Eh]
	 Singles Energy            =      -0.0000000000000000 [Eh]
	 Same-Spin Energy          =      -0.4480316999448022 [Eh]
	 Opposite-Spin Energy      =      -1.4671585486809877 [Eh]
	 Correlation Energy        =      -1.9151902486257899 [Eh]
	 Total Energy              =    -404.8636539755642616 [Eh]

	 ================> DF-SCS-MP2 Energies <==================
	-----------------------------------------------------------
	 SCS Same-Spin Scale       =       0.3333333333333333 [-]
	 SCS Opposite-Spin Scale   =       1.2000000000000000 [-]
	 SCS Same-Spin Energy      =      -0.1493438999816007 [Eh]
	 SCS Opposite-Spin Energy  =      -1.7605902584171853 [Eh]
	 SCS Correlation Energy    =      -1.9099341583987861 [Eh]
	 SCS Total Energy          =    -404.8583978853372969 [Eh]
	-----------------------------------------------------------

  Dipole Moment: [D]
     X:     0.5524      Y:     1.0917      Z:     0.5214     Total:     1.3300

*** Psi4 exiting successfully. Buy a developer a beer!
