                               Psi4 1.4a3.dev225

  ==> Input File <==

--------------------------------------------------------------------------
#psi4
#
memory 32 gb

molecule  {
0 1
  N        1.6268380     0.6089620    -0.4693990
  C        0.3031040     0.1485790    -0.2066970
  C       -0.7706010     1.0561020    -0.0842670
  C        0.0806060    -1.2405240    -0.1151990
  C       -2.0579110     0.5582020     0.1415980
  C       -1.2176000    -1.6989120     0.1341680
  C       -2.2850370    -0.8120180     0.2620550
  C       -0.5406870     2.5426280    -0.1993030
  C        1.2446561    -2.2523080    -0.3157803
  C        2.5023020     0.6131830     0.7097540
  H       -2.8885640     1.2560570     0.2350690
  H       -1.3937740    -2.7714120     0.2029680
  H        1.5916390     1.5501200    -0.8540680
  H       -3.2895990    -1.1861590     0.4450020
  H        0.2351210     2.8885850     0.4923550
  H       -0.2380210     2.8365620    -1.2118290
  H       -1.4595390     3.0868260     0.0338520
  H        1.9415750    -1.8136360    -1.0094830
  H        1.7264620    -2.4417900     0.6300600
  H        0.8237630    -3.1662910    -0.7010550
  H        2.0935470     1.1833990     1.5571020
  H        3.4676080     1.0418550     0.4271840
  H        2.6734620    -0.4116070     1.0419720
units angstrom
no_reorient  #important for SAPT in psi4, default
symmetry c1  #important for SAPT in psi4, default
}

set PROPERTIES_ORIGIN ["COM"]
properties('MP2/aug-cc-pvtz', properties = ['dipole'])
--------------------------------------------------------------------------

    Molecular point group: c1
  Charge       = 0
  Multiplicity = 1
  Basis Set: AUG-CC-PVTZ
    Blend: AUG-CC-PVTZ
  Basis Set: (AUG-CC-PVTZ AUX)
    Blend: AUG-CC-PVTZ-JKFIT

    Orbital Energies [Eh]
    ---------------------

    Doubly Occupied:

       1A    -15.553670     2A    -11.258095     3A    -11.249734
       4A    -11.235722     5A    -11.234039     6A    -11.228277
       7A    -11.225210     8A    -11.224088     9A    -11.222938
      10A    -11.213222    11A     -1.226052    12A     -1.129857
      13A     -1.050931    14A     -1.010397    15A     -0.945467
      16A     -0.922750    17A     -0.892926    18A     -0.793781
      19A     -0.781600    20A     -0.692414    21A     -0.659651
      22A     -0.628148    23A     -0.602467    24A     -0.591350
      25A     -0.576680    26A     -0.574045    27A     -0.565935
      28A     -0.557283    29A     -0.549920    30A     -0.531025
      31A     -0.526073    32A     -0.481039    33A     -0.476783
      34A     -0.470730    35A     -0.402347    36A     -0.317680
      37A     -0.302756

  @DF-RHF Final Energy:  -402.96026315043036

   => Energetics <=

    Nuclear Repulsion Energy =            520.4281356610925968
    One-Electron Energy =               -1576.9666301905376713
    Two-Electron Energy =                 653.5782313790145963
    Total Energy =                       -402.9602631504303645
  Basis Set: (AUG-CC-PVTZ AUX)
    Blend: AUG-CC-PVTZ-RI
    Molecular point group: c1

    Geometry (in Angstrom), charge = 0, multiplicity = 1:

       Center              X                  Y                   Z               Mass
    ------------   -----------------  -----------------  -----------------  -----------------
         N            1.662279057216     0.626910334252    -0.459348520192    14.003074004430
         C            0.338545057216     0.166527334252    -0.196646520192    12.000000000000
         C           -0.735159942784     1.074050334252    -0.074216520192    12.000000000000
         C            0.116047057216    -1.222575665748    -0.105148520192    12.000000000000
         C           -2.022469942784     0.576150334252     0.151648479808    12.000000000000
         C           -1.182158942784    -1.680963665748     0.144218479808    12.000000000000
         C           -2.249595942784    -0.794069665748     0.272105479808    12.000000000000
         C           -0.505245942784     2.560576334252    -0.189252520192    12.000000000000
         C            1.280097157216    -2.234359665748    -0.305729820192    12.000000000000
         C            2.537743057216     0.631131334252     0.719804479808    12.000000000000
         H           -2.853122942784     1.274005334252     0.245119479808     1.007825032230
         H           -1.358332942784    -2.753463665748     0.213018479808     1.007825032230
         H            1.627080057216     1.568068334252    -0.844017520192     1.007825032230
         H           -3.254157942784    -1.168210665748     0.455052479808     1.007825032230
         H            0.270562057216     2.906533334252     0.502405479808     1.007825032230
         H           -0.202579942784     2.854510334252    -1.201778520192     1.007825032230
         H           -1.424097942784     3.104774334252     0.043902479808     1.007825032230
         H            1.977016057216    -1.795687665748    -0.999432520192     1.007825032230
         H            1.761903057216    -2.423841665748     0.640110479808     1.007825032230
         H            0.859204057216    -3.148342665748    -0.691004520192     1.007825032230
         H            2.128988057216     1.201347334252     1.567152479808     1.007825032230
         H            3.503049057216     1.059803334252     0.437234479808     1.007825032230
         H            2.708903057216    -0.393658665748     1.052022479808     1.007825032230

  Basis Set: AUG-CC-PVTZ
    Blend: AUG-CC-PVTZ
  Basis Set: (AUG-CC-PVTZ AUX)
    Blend: AUG-CC-PVTZ-JKFIT
	 Reference Energy          =    -402.9602631504303645 [Eh]
	 Singles Energy            =      -0.0000000000000000 [Eh]
	 Same-Spin Energy          =      -0.4476193393848987 [Eh]
	 Opposite-Spin Energy      =      -1.4656707314483082 [Eh]
	 Correlation Energy        =      -1.9132900708332068 [Eh]
	 Total Energy              =    -404.8735532212635917 [Eh]

	 ================> DF-SCS-MP2 Energies <==================
	-----------------------------------------------------------
	 SCS Same-Spin Scale       =       0.3333333333333333 [-]
	 SCS Opposite-Spin Scale   =       1.2000000000000000 [-]
	 SCS Same-Spin Energy      =      -0.1492064464616329 [Eh]
	 SCS Opposite-Spin Energy  =      -1.7588048777379697 [Eh]
	 SCS Correlation Energy    =      -1.9080113241996026 [Eh]
	 SCS Total Energy          =    -404.8682744746299704 [Eh]
	-----------------------------------------------------------

  Dipole Moment: [D]
     X:     0.5293      Y:     1.0742      Z:     0.5239     Total:     1.3071

*** Psi4 exiting successfully. Buy a developer a beer!
