                               Psi4 1.4a3.dev225

  ==> Input File <==

--------------------------------------------------------------------------
#psi4
#
memory 32 gb

molecule  {
0 1
  N        1.6268380     0.6089620    -0.4693990
  C        0.3031040     0.1485790    -0.2066970
  C       -0.7706010     1.0561020    -0.0842670
  C        0.0806060    -1.2405240    -0.1151990
  C       -2.0579110     0.5582020     0.1415980
  C       -1.2176000    -1.6989120     0.1341680
  C       -2.2850370    -0.8120180     0.2620550
  C       -0.5406870     2.5426280    -0.1993030
  C        1.2072340    -2.2197810    -0.3093320
  C        2.4724964     0.6130393     0.6696092
  H       -2.8885640     1.2560570     0.2350690
  H       -1.3937740    -2.7714120     0.2029680
  H        1.5916390     1.5501200    -0.8540680
  H       -3.2895990    -1.1861590     0.4450020
  H        0.2351210     2.8885850     0.4923550
  H       -0.2380210     2.8365620    -1.2118290
  H       -1.4595390     3.0868260     0.0338520
  H        1.9415750    -1.8136360    -1.0094830
  H        1.7264620    -2.4417900     0.6300600
  H        0.8237630    -3.1662910    -0.7010550
  H        2.0935470     1.1833990     1.5571020
  H        3.4676080     1.0418550     0.4271840
  H        2.6734620    -0.4116070     1.0419720
units angstrom
no_reorient  #important for SAPT in psi4, default
symmetry c1  #important for SAPT in psi4, default
}

set PROPERTIES_ORIGIN ["COM"]
properties('MP2/aug-cc-pvtz', properties = ['dipole'])
--------------------------------------------------------------------------

    Molecular point group: c1
  Charge       = 0
  Multiplicity = 1
  Basis Set: AUG-CC-PVTZ
    Blend: AUG-CC-PVTZ
  Basis Set: (AUG-CC-PVTZ AUX)
    Blend: AUG-CC-PVTZ-JKFIT

    Orbital Energies [Eh]
    ---------------------

    Doubly Occupied:

       1A    -15.554400     2A    -11.259397     3A    -11.250784
       4A    -11.237094     5A    -11.233157     6A    -11.229008
       7A    -11.226188     8A    -11.225049     9A    -11.223762
      10A    -11.214559    11A     -1.237525    12A     -1.134192
      13A     -1.055243    14A     -1.014466    15A     -0.945339
      16A     -0.922713    17A     -0.887905    18A     -0.796364
      19A     -0.782234    20A     -0.695725    21A     -0.663654
      22A     -0.631081    23A     -0.612616    24A     -0.589955
      25A     -0.579609    26A     -0.569432    27A     -0.566611
      28A     -0.557093    29A     -0.553719    30A     -0.522802
      31A     -0.520685    32A     -0.484509    33A     -0.476374
      34A     -0.471911    35A     -0.399467    36A     -0.317788
      37A     -0.304657

  @DF-RHF Final Energy:  -402.95924750472290

   => Energetics <=

    Nuclear Repulsion Energy =            522.2228985269983923
    One-Electron Energy =               -1580.4701536791199032
    Two-Electron Energy =                 655.2880076473985582
    Total Energy =                       -402.9592475047228390
  Basis Set: (AUG-CC-PVTZ AUX)
    Blend: AUG-CC-PVTZ-RI
    Molecular point group: c1

    Geometry (in Angstrom), charge = 0, multiplicity = 1:

       Center              X                  Y                   Z               Mass
    ------------   -----------------  -----------------  -----------------  -----------------
         N            1.668250217407     0.624034051531    -0.456355599128    14.003074004430
         C            0.344516217407     0.163651051531    -0.193653599128    12.000000000000
         C           -0.729188782593     1.071174051531    -0.071223599128    12.000000000000
         C            0.122018217407    -1.225451948469    -0.102155599128    12.000000000000
         C           -2.016498782593     0.573274051531     0.154641400872    12.000000000000
         C           -1.176187782593    -1.683839948469     0.147211400872    12.000000000000
         C           -2.243624782593    -0.796945948469     0.275098400872    12.000000000000
         C           -0.499274782593     2.557700051531    -0.186259599128    12.000000000000
         C            1.248646217407    -2.204708948469    -0.296288599128    12.000000000000
         C            2.513908617407     0.628111351531     0.682652600872    12.000000000000
         H           -2.847151782593     1.271129051531     0.248112400872     1.007825032230
         H           -1.352361782593    -2.756339948469     0.216011400872     1.007825032230
         H            1.633051217407     1.565192051531    -0.841024599128     1.007825032230
         H           -3.248186782593    -1.171086948469     0.458045400872     1.007825032230
         H            0.276533217407     2.903657051531     0.505398400872     1.007825032230
         H           -0.196608782593     2.851634051531    -1.198785599128     1.007825032230
         H           -1.418126782593     3.101898051531     0.046895400872     1.007825032230
         H            1.982987217407    -1.798563948469    -0.996439599128     1.007825032230
         H            1.767874217407    -2.426717948469     0.643103400872     1.007825032230
         H            0.865175217407    -3.151218948469    -0.688011599128     1.007825032230
         H            2.134959217407     1.198471051531     1.570145400872     1.007825032230
         H            3.509020217407     1.056927051531     0.440227400872     1.007825032230
         H            2.714874217407    -0.396534948469     1.055015400872     1.007825032230

  Basis Set: AUG-CC-PVTZ
    Blend: AUG-CC-PVTZ
  Basis Set: (AUG-CC-PVTZ AUX)
    Blend: AUG-CC-PVTZ-JKFIT
	 Reference Energy          =    -402.9592475047228959 [Eh]
	 Singles Energy            =      -0.0000000000000000 [Eh]
	 Same-Spin Energy          =      -0.4482922164224598 [Eh]
	 Opposite-Spin Energy      =      -1.4659683092035949 [Eh]
	 Correlation Energy        =      -1.9142605256260548 [Eh]
	 Total Energy              =    -404.8735080303489440 [Eh]

	 ================> DF-SCS-MP2 Energies <==================
	-----------------------------------------------------------
	 SCS Same-Spin Scale       =       0.3333333333333333 [-]
	 SCS Opposite-Spin Scale   =       1.2000000000000000 [-]
	 SCS Same-Spin Energy      =      -0.1494307388074866 [Eh]
	 SCS Opposite-Spin Energy  =      -1.7591619710443138 [Eh]
	 SCS Correlation Energy    =      -1.9085927098518005 [Eh]
	 SCS Total Energy          =    -404.8678402145746986 [Eh]
	-----------------------------------------------------------

  Dipole Moment: [D]
     X:     0.4284      Y:     1.0442      Z:     0.4186     Total:     1.2038

*** Psi4 exiting successfully. Buy a developer a beer!
