                               Psi4 1.4a3.dev225

  ==> Input File <==

--------------------------------------------------------------------------
#psi4
#
memory 32 gb

molecule  {
0 1
  N        1.6268380     0.6089620    -0.4693990
  C        0.3031040     0.1485790    -0.2066970
  C       -0.7706010     1.0561020    -0.0842670
  C        0.0806060    -1.2405240    -0.1151990
  C       -2.0579110     0.5582020     0.1415980
  C       -1.2176000    -1.6989120     0.1341680
  C       -2.2850370    -0.8120180     0.2620550
  C       -0.5406870     2.5426280    -0.1993030
  C        1.2072340    -2.2197810    -0.3093320
  C        2.5023020     0.6131830     0.7097540
  H       -2.8885640     1.2560570     0.2350690
  H       -1.3937740    -2.7714120     0.2029680
  H        1.5916390     1.5501200    -0.8540680
  H       -3.2895990    -1.1861590     0.4450020
  H        0.2351210     2.8885850     0.4923550
  H       -0.2380210     2.8365620    -1.2118290
  H       -1.4595390     3.0868260     0.0338520
  H        1.9415750    -1.8136360    -1.0094830
  H        1.7264620    -2.4417900     0.6300600
  H        0.8237630    -3.1662910    -0.7010550
  H        2.0935470     1.1833990     1.5571020
  H        3.5558966     1.0810621     0.4013397
  H        2.6734620    -0.4116070     1.0419720
units angstrom
no_reorient  #important for SAPT in psi4, default
symmetry c1  #important for SAPT in psi4, default
}

set PROPERTIES_ORIGIN ["COM"]
properties('MP2/aug-cc-pvtz', properties = ['dipole'])
--------------------------------------------------------------------------

    Molecular point group: c1
  Charge       = 0
  Multiplicity = 1
  Basis Set: AUG-CC-PVTZ
    Blend: AUG-CC-PVTZ
  Basis Set: (AUG-CC-PVTZ AUX)
    Blend: AUG-CC-PVTZ-JKFIT

    Orbital Energies [Eh]
    ---------------------

    Doubly Occupied:

       1A    -15.554851     2A    -11.261551     3A    -11.258967
       4A    -11.236608     5A    -11.232751     6A    -11.228768
       7A    -11.225954     8A    -11.224809     9A    -11.223565
      10A    -11.214602    11A     -1.227050    12A     -1.131175
      13A     -1.054963    14A     -1.012251    15A     -0.943176
      16A     -0.922485    17A     -0.887122    18A     -0.795257
      19A     -0.781698    20A     -0.691875    21A     -0.661341
      22A     -0.627347    23A     -0.602065    24A     -0.592206
      25A     -0.578236    26A     -0.569531    27A     -0.565175
      28A     -0.556573    29A     -0.552331    30A     -0.521597
      31A     -0.519796    32A     -0.485781    33A     -0.475973
      34A     -0.471130    35A     -0.402598    36A     -0.317631
      37A     -0.303493

  @DF-RHF Final Energy:  -402.95519983692412

   => Energetics <=

    Nuclear Repulsion Energy =            520.8540713592374232
    One-Electron Energy =               -1577.7939793398866186
    Two-Electron Energy =                 653.9847081437250154
    Total Energy =                       -402.9551998369241801
  Basis Set: (AUG-CC-PVTZ AUX)
    Blend: AUG-CC-PVTZ-RI
    Molecular point group: c1

    Geometry (in Angstrom), charge = 0, multiplicity = 1:

       Center              X                  Y                   Z               Mass
    ------------   -----------------  -----------------  -----------------  -----------------
         N            1.664944289986     0.623728819615    -0.459728470184    14.003074004430
         C            0.341210289986     0.163345819615    -0.197026470184    12.000000000000
         C           -0.732494710014     1.070868819615    -0.074596470184    12.000000000000
         C            0.118712289986    -1.225757180385    -0.105528470184    12.000000000000
         C           -2.019804710014     0.572968819615     0.151268529816    12.000000000000
         C           -1.179493710014    -1.684145180385     0.143838529816    12.000000000000
         C           -2.246930710014    -0.797251180385     0.271725529816    12.000000000000
         C           -0.502580710014     2.557394819615    -0.189632470184    12.000000000000
         C            1.245340289986    -2.205014180385    -0.299661470184    12.000000000000
         C            2.540408289986     0.627949819615     0.719424529816    12.000000000000
         H           -2.850457710014     1.270823819615     0.244739529816     1.007825032230
         H           -1.355667710014    -2.756645180385     0.212638529816     1.007825032230
         H            1.629745289986     1.564886819615    -0.844397470184     1.007825032230
         H           -3.251492710014    -1.171392180385     0.454672529816     1.007825032230
         H            0.273227289986     2.903351819615     0.502025529816     1.007825032230
         H           -0.199914710014     2.851328819615    -1.202158470184     1.007825032230
         H           -1.421432710014     3.101592819615     0.043522529816     1.007825032230
         H            1.979681289986    -1.798869180385    -0.999812470184     1.007825032230
         H            1.764568289986    -2.427023180385     0.639730529816     1.007825032230
         H            0.861869289986    -3.151524180385    -0.691384470184     1.007825032230
         H            2.131653289986     1.198165819615     1.566772529816     1.007825032230
         H            3.594002889986     1.095828919615     0.411010229816     1.007825032230
         H            2.711568289986    -0.396840180385     1.051642529816     1.007825032230

  Basis Set: AUG-CC-PVTZ
    Blend: AUG-CC-PVTZ
  Basis Set: (AUG-CC-PVTZ AUX)
    Blend: AUG-CC-PVTZ-JKFIT
	 Reference Energy          =    -402.9551998369241232 [Eh]
	 Singles Energy            =      -0.0000000000000000 [Eh]
	 Same-Spin Energy          =      -0.4480099775455624 [Eh]
	 Opposite-Spin Energy      =      -1.4666504023119793 [Eh]
	 Correlation Energy        =      -1.9146603798575417 [Eh]
	 Total Energy              =    -404.8698602167816603 [Eh]

	 ================> DF-SCS-MP2 Energies <==================
	-----------------------------------------------------------
	 SCS Same-Spin Scale       =       0.3333333333333333 [-]
	 SCS Opposite-Spin Scale   =       1.2000000000000000 [-]
	 SCS Same-Spin Energy      =      -0.1493366591818541 [Eh]
	 SCS Opposite-Spin Energy  =      -1.7599804827743750 [Eh]
	 SCS Correlation Energy    =      -1.9093171419562291 [Eh]
	 SCS Total Energy          =    -404.8645169788803742 [Eh]
	-----------------------------------------------------------

  Dipole Moment: [D]
     X:     0.4489      Y:     1.0413      Z:     0.5155     Total:     1.2456

*** Psi4 exiting successfully. Buy a developer a beer!
