                               Psi4 1.4a3.dev225

  ==> Input File <==

--------------------------------------------------------------------------
#psi4
#
memory 32 gb

molecule  {
0 1
  N        1.6268380     0.6089620    -0.4693990
  C        0.3031040     0.1485790    -0.2066970
  C       -0.7706010     1.0561020    -0.0842670
  C        0.0806060    -1.2405240    -0.1151990
  C       -1.9637355     0.5379279     0.1278523
  C       -1.2176000    -1.6989120     0.1341680
  C       -2.2850370    -0.8120180     0.2620550
  C       -0.5406870     2.5426280    -0.1993030
  C        1.2072340    -2.2197810    -0.3093320
  C        2.5023020     0.6131830     0.7097540
  H       -2.8885640     1.2560570     0.2350690
  H       -1.3937740    -2.7714120     0.2029680
  H        1.5916390     1.5501200    -0.8540680
  H       -3.2895990    -1.1861590     0.4450020
  H        0.2351210     2.8885850     0.4923550
  H       -0.2380210     2.8365620    -1.2118290
  H       -1.4595390     3.0868260     0.0338520
  H        1.9415750    -1.8136360    -1.0094830
  H        1.7264620    -2.4417900     0.6300600
  H        0.8237630    -3.1662910    -0.7010550
  H        2.0935470     1.1833990     1.5571020
  H        3.4676080     1.0418550     0.4271840
  H        2.6734620    -0.4116070     1.0419720
units angstrom
no_reorient  #important for SAPT in psi4, default
symmetry c1  #important for SAPT in psi4, default
}

set PROPERTIES_ORIGIN ["COM"]
properties('MP2/aug-cc-pvtz', properties = ['dipole'])
--------------------------------------------------------------------------

    Molecular point group: c1
  Charge       = 0
  Multiplicity = 1
  Basis Set: AUG-CC-PVTZ
    Blend: AUG-CC-PVTZ
  Basis Set: (AUG-CC-PVTZ AUX)
    Blend: AUG-CC-PVTZ-JKFIT

    Orbital Energies [Eh]
    ---------------------

    Doubly Occupied:

       1A    -15.553999     2A    -11.259248     3A    -11.250024
       4A    -11.229394     5A    -11.229372     6A    -11.226972
       7A    -11.224652     8A    -11.223832     9A    -11.222815
      10A    -11.213499    11A     -1.228056    12A     -1.139485
      13A     -1.059572    14A     -1.011825    15A     -0.946006
      16A     -0.924911    17A     -0.891992    18A     -0.801648
      19A     -0.775563    20A     -0.693949    21A     -0.657843
      22A     -0.634082    23A     -0.602837    24A     -0.592440
      25A     -0.575892    26A     -0.568472    27A     -0.566074
      28A     -0.557716    29A     -0.545316    30A     -0.531917
      31A     -0.521103    32A     -0.486919    33A     -0.478626
      34A     -0.466721    35A     -0.401249    36A     -0.326548
      37A     -0.300284

  @DF-RHF Final Energy:  -402.94990867507539

   => Energetics <=

    Nuclear Repulsion Energy =            523.1965781920226846
    One-Electron Energy =               -1582.4512649545142722
    Two-Electron Energy =                 656.3047780874161390
    Total Energy =                       -402.9499086750753349
  Basis Set: (AUG-CC-PVTZ AUX)
    Blend: AUG-CC-PVTZ-RI
    Molecular point group: c1

    Geometry (in Angstrom), charge = 0, multiplicity = 1:

       Center              X                  Y                   Z               Mass
    ------------   -----------------  -----------------  -----------------  -----------------
         N            1.657238223708     0.625822032425    -0.458700365571    14.003074004430
         C            0.333504223708     0.165439032425    -0.195998365571    12.000000000000
         C           -0.740200776292     1.072962032425    -0.073568365571    12.000000000000
         C            0.111006223708    -1.223663967575    -0.104500365571    12.000000000000
         C           -1.933335276292     0.554787932425     0.138550934429    12.000000000000
         C           -1.187199776292    -1.682051967575     0.144866634429    12.000000000000
         C           -2.254636776292    -0.795157967575     0.272753634429    12.000000000000
         C           -0.510286776292     2.559488032425    -0.188604365571    12.000000000000
         C            1.237634223708    -2.202920967575    -0.298633365571    12.000000000000
         C            2.532702223708     0.630043032425     0.720452634429    12.000000000000
         H           -2.858163776292     1.272917032425     0.245767634429     1.007825032230
         H           -1.363373776292    -2.754551967575     0.213666634429     1.007825032230
         H            1.622039223708     1.566980032425    -0.843369365571     1.007825032230
         H           -3.259198776292    -1.169298967575     0.455700634429     1.007825032230
         H            0.265521223708     2.905445032425     0.503053634429     1.007825032230
         H           -0.207620776292     2.853422032425    -1.201130365571     1.007825032230
         H           -1.429138776292     3.103686032425     0.044550634429     1.007825032230
         H            1.971975223708    -1.796775967575    -0.998784365571     1.007825032230
         H            1.756862223708    -2.424929967575     0.640758634429     1.007825032230
         H            0.854163223708    -3.149430967575    -0.690356365571     1.007825032230
         H            2.123947223708     1.200259032425     1.567800634429     1.007825032230
         H            3.498008223708     1.058715032425     0.437882634429     1.007825032230
         H            2.703862223708    -0.394746967575     1.052670634429     1.007825032230

  Basis Set: AUG-CC-PVTZ
    Blend: AUG-CC-PVTZ
  Basis Set: (AUG-CC-PVTZ AUX)
    Blend: AUG-CC-PVTZ-JKFIT
	 Reference Energy          =    -402.9499086750753918 [Eh]
	 Singles Energy            =      -0.0000000000000000 [Eh]
	 Same-Spin Energy          =      -0.4482096445597129 [Eh]
	 Opposite-Spin Energy      =      -1.4663256152856925 [Eh]
	 Correlation Energy        =      -1.9145352598454055 [Eh]
	 Total Energy              =    -404.8644439349208142 [Eh]

	 ================> DF-SCS-MP2 Energies <==================
	-----------------------------------------------------------
	 SCS Same-Spin Scale       =       0.3333333333333333 [-]
	 SCS Opposite-Spin Scale   =       1.2000000000000000 [-]
	 SCS Same-Spin Energy      =      -0.1494032148532376 [Eh]
	 SCS Opposite-Spin Energy  =      -1.7595907383428309 [Eh]
	 SCS Correlation Energy    =      -1.9089939531960685 [Eh]
	 SCS Total Energy          =    -404.8589026282714372 [Eh]
	-----------------------------------------------------------

  Dipole Moment: [D]
     X:     0.5714      Y:     1.0414      Z:     0.5163     Total:     1.2952

*** Psi4 exiting successfully. Buy a developer a beer!
