                               Psi4 1.4a3.dev225

  ==> Input File <==

--------------------------------------------------------------------------
#psi4
#
memory 32 gb

molecule  {
0 1
  N        1.6268380     0.6089620    -0.4693990
  C        0.3031040     0.1485790    -0.2066970
  C       -0.7706010     1.0561020    -0.0842670
  C        0.0648236    -1.3390572    -0.1087088
  C       -2.0579110     0.5582020     0.1415980
  C       -1.2176000    -1.6989120     0.1341680
  C       -2.2850370    -0.8120180     0.2620550
  C       -0.5406870     2.5426280    -0.1993030
  C        1.2072340    -2.2197810    -0.3093320
  C        2.5023020     0.6131830     0.7097540
  H       -2.8885640     1.2560570     0.2350690
  H       -1.3937740    -2.7714120     0.2029680
  H        1.5916390     1.5501200    -0.8540680
  H       -3.2895990    -1.1861590     0.4450020
  H        0.2351210     2.8885850     0.4923550
  H       -0.2380210     2.8365620    -1.2118290
  H       -1.4595390     3.0868260     0.0338520
  H        1.9415750    -1.8136360    -1.0094830
  H        1.7264620    -2.4417900     0.6300600
  H        0.8237630    -3.1662910    -0.7010550
  H        2.0935470     1.1833990     1.5571020
  H        3.4676080     1.0418550     0.4271840
  H        2.6734620    -0.4116070     1.0419720
units angstrom
no_reorient  #important for SAPT in psi4, default
symmetry c1  #important for SAPT in psi4, default
}

set PROPERTIES_ORIGIN ["COM"]
properties('MP2/aug-cc-pvtz', properties = ['dipole'])
--------------------------------------------------------------------------

    Molecular point group: c1
  Charge       = 0
  Multiplicity = 1
  Basis Set: AUG-CC-PVTZ
    Blend: AUG-CC-PVTZ
  Basis Set: (AUG-CC-PVTZ AUX)
    Blend: AUG-CC-PVTZ-JKFIT

    Orbital Energies [Eh]
    ---------------------

    Doubly Occupied:

       1A    -15.555817     2A    -11.266924     3A    -11.250558
       4A    -11.235286     5A    -11.233426     6A    -11.227609
       7A    -11.225924     8A    -11.223517     9A    -11.218158
      10A    -11.213434    11A     -1.224196    12A     -1.130707
      13A     -1.061341    14A     -1.012073    15A     -0.942913
      16A     -0.927506    17A     -0.889299    18A     -0.795787
      19A     -0.774534    20A     -0.690533    21A     -0.664067
      22A     -0.629616    23A     -0.603743    24A     -0.592056
      25A     -0.577097    26A     -0.573607    27A     -0.563066
      28A     -0.561079    29A     -0.555576    30A     -0.532349
      31A     -0.520450    32A     -0.497900    33A     -0.469481
      34A     -0.460123    35A     -0.402285    36A     -0.323522
      37A     -0.292386

  @DF-RHF Final Energy:  -402.94921251734951

   => Energetics <=

    Nuclear Repulsion Energy =            520.3619689655603224
    One-Electron Energy =               -1576.7864689093560173
    Two-Electron Energy =                 653.4752874264460161
    Total Energy =                       -402.9492125173495651
  Basis Set: (AUG-CC-PVTZ AUX)
    Blend: AUG-CC-PVTZ-RI
    Molecular point group: c1

    Geometry (in Angstrom), charge = 0, multiplicity = 1:

       Center              X                  Y                   Z               Mass
    ------------   -----------------  -----------------  -----------------  -----------------
         N            1.667004677643     0.632773000888    -0.460497716968    14.003074004430
         C            0.343270677643     0.172390000888    -0.197795716968    12.000000000000
         C           -0.730434322357     1.079913000888    -0.075365716968    12.000000000000
         C            0.104990277643    -1.315246199112    -0.099807516968    12.000000000000
         C           -2.017744322357     0.582013000888     0.150499283032    12.000000000000
         C           -1.177433322357    -1.675100999112     0.143069283032    12.000000000000
         C           -2.244870322357    -0.788206999112     0.270956283032    12.000000000000
         C           -0.500520322357     2.566439000888    -0.190401716968    12.000000000000
         C            1.247400677643    -2.195969999112    -0.300430716968    12.000000000000
         C            2.542468677643     0.636994000888     0.718655283032    12.000000000000
         H           -2.848397322357     1.279868000888     0.243970283032     1.007825032230
         H           -1.353607322357    -2.747600999112     0.211869283032     1.007825032230
         H            1.631805677643     1.573931000888    -0.845166716968     1.007825032230
         H           -3.249432322357    -1.162347999112     0.453903283032     1.007825032230
         H            0.275287677643     2.912396000888     0.501256283032     1.007825032230
         H           -0.197854322357     2.860373000888    -1.202927716968     1.007825032230
         H           -1.419372322357     3.110637000888     0.042753283032     1.007825032230
         H            1.981741677643    -1.789824999112    -1.000581716968     1.007825032230
         H            1.766628677643    -2.417978999112     0.638961283032     1.007825032230
         H            0.863929677643    -3.142479999112    -0.692153716968     1.007825032230
         H            2.133713677643     1.207210000888     1.566003283032     1.007825032230
         H            3.507774677643     1.065666000888     0.436085283032     1.007825032230
         H            2.713628677643    -0.387795999112     1.050873283032     1.007825032230

  Basis Set: AUG-CC-PVTZ
    Blend: AUG-CC-PVTZ
  Basis Set: (AUG-CC-PVTZ AUX)
    Blend: AUG-CC-PVTZ-JKFIT
	 Reference Energy          =    -402.9492125173495083 [Eh]
	 Singles Energy            =      -0.0000000000000000 [Eh]
	 Same-Spin Energy          =      -0.4485646443190466 [Eh]
	 Opposite-Spin Energy      =      -1.4672142864424713 [Eh]
	 Correlation Energy        =      -1.9157789307615178 [Eh]
	 Total Energy              =    -404.8649914481110272 [Eh]

	 ================> DF-SCS-MP2 Energies <==================
	-----------------------------------------------------------
	 SCS Same-Spin Scale       =       0.3333333333333333 [-]
	 SCS Opposite-Spin Scale   =       1.2000000000000000 [-]
	 SCS Same-Spin Energy      =      -0.1495215481063489 [Eh]
	 SCS Opposite-Spin Energy  =      -1.7606571437309655 [Eh]
	 SCS Correlation Energy    =      -1.9101786918373143 [Eh]
	 SCS Total Energy          =    -404.8593912091868106 [Eh]
	-----------------------------------------------------------

  Dipole Moment: [D]
     X:     0.6680      Y:     1.0571      Z:     0.5031     Total:     1.3479

*** Psi4 exiting successfully. Buy a developer a beer!
