                               Psi4 1.4a3.dev225

  ==> Input File <==

--------------------------------------------------------------------------
#psi4
#
memory 32 gb

molecule  {
0 1
  N        1.6268380     0.6089620    -0.4693990
  C        0.3031040     0.1485790    -0.2066970
  C       -0.7706010     1.0561020    -0.0842670
  C        0.0806060    -1.2405240    -0.1151990
  C       -2.0579110     0.5582020     0.1415980
  C       -1.2176000    -1.6989120     0.1341680
  C       -2.2850370    -0.8120180     0.2620550
  C       -0.5406870     2.5426280    -0.1993030
  C        1.2072340    -2.2197810    -0.3093320
  C        2.5023020     0.6131830     0.7097540
  H       -2.8885640     1.2560570     0.2350690
  H       -1.3937740    -2.7714120     0.2029680
  H        1.5916390     1.5501200    -0.8540680
  H       -3.2895990    -1.1861590     0.4450020
  H        0.2351210     2.8885850     0.4923550
  H       -0.2380210     2.8365620    -1.2118290
  H       -1.4595390     3.0868260     0.0338520
  H        1.9415750    -1.8136360    -1.0094830
  H        1.7264620    -2.4417900     0.6300600
  H        0.8237630    -3.1662910    -0.7010550
  H        2.0935470     1.1833990     1.5571020
  H        3.4676080     1.0418550     0.4271840
  H        2.6656164    -0.3646330     1.0267439
units angstrom
no_reorient  #important for SAPT in psi4, default
symmetry c1  #important for SAPT in psi4, default
}

set PROPERTIES_ORIGIN ["COM"]
properties('MP2/aug-cc-pvtz', properties = ['dipole'])
--------------------------------------------------------------------------

    Molecular point group: c1
  Charge       = 0
  Multiplicity = 1
  Basis Set: AUG-CC-PVTZ
    Blend: AUG-CC-PVTZ
  Basis Set: (AUG-CC-PVTZ AUX)
    Blend: AUG-CC-PVTZ-JKFIT

    Orbital Energies [Eh]
    ---------------------

    Doubly Occupied:

       1A    -15.553180     2A    -11.258107     3A    -11.243601
       4A    -11.235802     5A    -11.231991     6A    -11.228234
       7A    -11.225335     8A    -11.224177     9A    -11.222980
      10A    -11.214234    11A     -1.226499    12A     -1.130886
      13A     -1.054365    14A     -1.012707    15A     -0.947025
      16A     -0.922288    17A     -0.895562    18A     -0.794982
      19A     -0.781330    20A     -0.693000    21A     -0.660587
      22A     -0.629552    23A     -0.603580    24A     -0.594134
      25A     -0.578918    26A     -0.569616    27A     -0.565806
      28A     -0.556843    29A     -0.552307    30A     -0.534425
      31A     -0.521288    32A     -0.485902    33A     -0.477054
      34A     -0.470880    35A     -0.402476    36A     -0.317050
      37A     -0.302644

  @DF-RHF Final Energy:  -402.96083749682589

   => Energetics <=

    Nuclear Repulsion Energy =            521.5152564909079729
    One-Electron Energy =               -1579.1134872613731659
    Two-Electron Energy =                 654.6373932736394181
    Total Energy =                       -402.9608374968258886
  Basis Set: (AUG-CC-PVTZ AUX)
    Blend: AUG-CC-PVTZ-RI
    Molecular point group: c1

    Geometry (in Angstrom), charge = 0, multiplicity = 1:

       Center              X                  Y                   Z               Mass
    ------------   -----------------  -----------------  -----------------  -----------------
         N            1.665661410722     0.623670881805    -0.459807662575    14.003074004430
         C            0.341927410722     0.163287881805    -0.197105662575    12.000000000000
         C           -0.731777589278     1.070810881805    -0.074675662575    12.000000000000
         C            0.119429410722    -1.225815118195    -0.105607662575    12.000000000000
         C           -2.019087589278     0.572910881805     0.151189337425    12.000000000000
         C           -1.178776589278    -1.684203118195     0.143759337425    12.000000000000
         C           -2.246213589278    -0.797309118195     0.271646337425    12.000000000000
         C           -0.501863589278     2.557336881805    -0.189711662575    12.000000000000
         C            1.246057410722    -2.205072118195    -0.299740662575    12.000000000000
         C            2.541125410722     0.627891881805     0.719345337425    12.000000000000
         H           -2.849740589278     1.270765881805     0.244660337425     1.007825032230
         H           -1.354950589278    -2.756703118195     0.212559337425     1.007825032230
         H            1.630462410722     1.564828881805    -0.844476662575     1.007825032230
         H           -3.250775589278    -1.171450118195     0.454593337425     1.007825032230
         H            0.273944410722     2.903293881805     0.501946337425     1.007825032230
         H           -0.199197589278     2.851270881805    -1.202237662575     1.007825032230
         H           -1.420715589278     3.101534881805     0.043443337425     1.007825032230
         H            1.980398410722    -1.798927118195    -0.999891662575     1.007825032230
         H            1.765285410722    -2.427081118195     0.639651337425     1.007825032230
         H            0.862586410722    -3.151582118195    -0.691463662575     1.007825032230
         H            2.132370410722     1.198107881805     1.566693337425     1.007825032230
         H            3.506431410722     1.056563881805     0.436775337425     1.007825032230
         H            2.704439810722    -0.349924118195     1.036335237425     1.007825032230

  Basis Set: AUG-CC-PVTZ
    Blend: AUG-CC-PVTZ
  Basis Set: (AUG-CC-PVTZ AUX)
    Blend: AUG-CC-PVTZ-JKFIT
	 Reference Energy          =    -402.9608374968258886 [Eh]
	 Singles Energy            =      -0.0000000000000000 [Eh]
	 Same-Spin Energy          =      -0.4479175095936307 [Eh]
	 Opposite-Spin Energy      =      -1.4655745586451705 [Eh]
	 Correlation Energy        =      -1.9134920682388012 [Eh]
	 Total Energy              =    -404.8743295650646701 [Eh]

	 ================> DF-SCS-MP2 Energies <==================
	-----------------------------------------------------------
	 SCS Same-Spin Scale       =       0.3333333333333333 [-]
	 SCS Opposite-Spin Scale   =       1.2000000000000000 [-]
	 SCS Same-Spin Energy      =      -0.1493058365312102 [Eh]
	 SCS Opposite-Spin Energy  =      -1.7586894703742046 [Eh]
	 SCS Correlation Energy    =      -1.9079953069054150 [Eh]
	 SCS Total Energy          =    -404.8688328037313227 [Eh]
	-----------------------------------------------------------

  Dipole Moment: [D]
     X:     0.5520      Y:     1.0566      Z:     0.5333     Total:     1.3060

*** Psi4 exiting successfully. Buy a developer a beer!
