                               Psi4 1.4a3.dev225

  ==> Input File <==

--------------------------------------------------------------------------
#psi4
#
memory 32 gb

molecule  {
0 1
  N        1.6268380     0.6089620    -0.4693990
  C        0.3031040     0.1485790    -0.2066970
  C       -0.7706010     1.0561020    -0.0842670
  C        0.0806060    -1.2405240    -0.1151990
  C       -2.0579110     0.5582020     0.1415980
  C       -1.2176000    -1.6989120     0.1341680
  C       -2.2850370    -0.8120180     0.2620550
  C       -0.5406870     2.5426280    -0.1993030
  C        1.2072340    -2.2197810    -0.3093320
  C        2.5023020     0.6131830     0.7097540
  H       -2.8885640     1.2560570     0.2350690
  H       -1.3937740    -2.7714120     0.2029680
  H        1.5899091     1.5963757    -0.8729736
  H       -3.2895990    -1.1861590     0.4450020
  H        0.2351210     2.8885850     0.4923550
  H       -0.2380210     2.8365620    -1.2118290
  H       -1.4595390     3.0868260     0.0338520
  H        1.9415750    -1.8136360    -1.0094830
  H        1.7264620    -2.4417900     0.6300600
  H        0.8237630    -3.1662910    -0.7010550
  H        2.0935470     1.1833990     1.5571020
  H        3.4676080     1.0418550     0.4271840
  H        2.6734620    -0.4116070     1.0419720
units angstrom
no_reorient  #important for SAPT in psi4, default
symmetry c1  #important for SAPT in psi4, default
}

set PROPERTIES_ORIGIN ["COM"]
properties('MP2/aug-cc-pvtz', properties = ['dipole'])
--------------------------------------------------------------------------

    Molecular point group: c1
  Charge       = 0
  Multiplicity = 1
  Basis Set: AUG-CC-PVTZ
    Blend: AUG-CC-PVTZ
  Basis Set: (AUG-CC-PVTZ AUX)
    Blend: AUG-CC-PVTZ-JKFIT

    Orbital Energies [Eh]
    ---------------------

    Doubly Occupied:

       1A    -15.558825     2A    -11.258377     3A    -11.249678
       4A    -11.235801     5A    -11.232127     6A    -11.228407
       7A    -11.225355     8A    -11.224200     9A    -11.223029
      10A    -11.214142    11A     -1.222192    12A     -1.129631
      13A     -1.054382    14A     -1.012045    15A     -0.945300
      16A     -0.922006    17A     -0.889218    18A     -0.791961
      19A     -0.781109    20A     -0.688618    21A     -0.660580
      22A     -0.628413    23A     -0.602873    24A     -0.590598
      25A     -0.578752    26A     -0.567887    27A     -0.565215
      28A     -0.556861    29A     -0.551960    30A     -0.528659
      31A     -0.521091    32A     -0.484987    33A     -0.476415
      34A     -0.470624    35A     -0.401531    36A     -0.317093
      37A     -0.302577

  @DF-RHF Final Energy:  -402.95794131678178

   => Energetics <=

    Nuclear Repulsion Energy =            521.0442103663868920
    One-Electron Energy =               -1578.2192671778491331
    Two-Electron Energy =                 654.2171154946803426
    Total Energy =                       -402.9579413167817847
  Basis Set: (AUG-CC-PVTZ AUX)
    Blend: AUG-CC-PVTZ-RI
    Molecular point group: c1

    Geometry (in Angstrom), charge = 0, multiplicity = 1:

       Center              X                  Y                   Z               Mass
    ------------   -----------------  -----------------  -----------------  -----------------
         N            1.665615790170     0.623676240021    -0.459780229970    14.003074004430
         C            0.341881790170     0.163293240021    -0.197078229970    12.000000000000
         C           -0.731823209830     1.070816240021    -0.074648229970    12.000000000000
         C            0.119383790170    -1.225809759979    -0.105580229970    12.000000000000
         C           -2.019133209830     0.572916240021     0.151216770030    12.000000000000
         C           -1.178822209830    -1.684197759979     0.143786770030    12.000000000000
         C           -2.246259209830    -0.797303759979     0.271673770030    12.000000000000
         C           -0.501909209830     2.557342240021    -0.189684229970    12.000000000000
         C            1.246011790170    -2.205066759979    -0.299713229970    12.000000000000
         C            2.541079790170     0.627897240021     0.719372770030    12.000000000000
         H           -2.849786209830     1.270771240021     0.244687770030     1.007825032230
         H           -1.354996209830    -2.756697759979     0.212586770030     1.007825032230
         H            1.628686890170     1.611089940021    -0.863354829970     1.007825032230
         H           -3.250821209830    -1.171444759979     0.454620770030     1.007825032230
         H            0.273898790170     2.903299240021     0.501973770030     1.007825032230
         H           -0.199243209830     2.851276240021    -1.202210229970     1.007825032230
         H           -1.420761209830     3.101540240021     0.043470770030     1.007825032230
         H            1.980352790170    -1.798921759979    -0.999864229970     1.007825032230
         H            1.765239790170    -2.427075759979     0.639678770030     1.007825032230
         H            0.862540790170    -3.151576759979    -0.691436229970     1.007825032230
         H            2.132324790170     1.198113240021     1.566720770030     1.007825032230
         H            3.506385790170     1.056569240021     0.436802770030     1.007825032230
         H            2.712239790170    -0.396892759979     1.051590770030     1.007825032230

  Basis Set: AUG-CC-PVTZ
    Blend: AUG-CC-PVTZ
  Basis Set: (AUG-CC-PVTZ AUX)
    Blend: AUG-CC-PVTZ-JKFIT
	 Reference Energy          =    -402.9579413167817847 [Eh]
	 Singles Energy            =      -0.0000000000000000 [Eh]
	 Same-Spin Energy          =      -0.4483974811338531 [Eh]
	 Opposite-Spin Energy      =      -1.4670068894923394 [Eh]
	 Correlation Energy        =      -1.9154043706261925 [Eh]
	 Total Energy              =    -404.8733456874080048 [Eh]

	 ================> DF-SCS-MP2 Energies <==================
	-----------------------------------------------------------
	 SCS Same-Spin Scale       =       0.3333333333333333 [-]
	 SCS Opposite-Spin Scale   =       1.2000000000000000 [-]
	 SCS Same-Spin Energy      =      -0.1494658270446177 [Eh]
	 SCS Opposite-Spin Energy  =      -1.7604082673908072 [Eh]
	 SCS Correlation Energy    =      -1.9098740944354249 [Eh]
	 SCS Total Energy          =    -404.8678154112172365 [Eh]
	-----------------------------------------------------------

  Dipole Moment: [D]
     X:     0.5364      Y:     1.0861      Z:     0.5152     Total:     1.3163

*** Psi4 exiting successfully. Buy a developer a beer!
