                               Psi4 1.4a3.dev225

  ==> Input File <==

--------------------------------------------------------------------------
#psi4
#
memory 32 gb

molecule  {
0 1
  N        1.6268380     0.6089620    -0.4693990
  C        0.3031040     0.1485790    -0.2066970
  C       -0.9227722     1.1847210    -0.0669156
  C        0.0806060    -1.2405240    -0.1151990
  C       -2.0579110     0.5582020     0.1415980
  C       -1.2176000    -1.6989120     0.1341680
  C       -2.2850370    -0.8120180     0.2620550
  C       -0.5406870     2.5426280    -0.1993030
  C        1.2072340    -2.2197810    -0.3093320
  C        2.5023020     0.6131830     0.7097540
  H       -2.8885640     1.2560570     0.2350690
  H       -1.3937740    -2.7714120     0.2029680
  H        1.5916390     1.5501200    -0.8540680
  H       -3.2895990    -1.1861590     0.4450020
  H        0.2351210     2.8885850     0.4923550
  H       -0.2380210     2.8365620    -1.2118290
  H       -1.4595390     3.0868260     0.0338520
  H        1.9415750    -1.8136360    -1.0094830
  H        1.7264620    -2.4417900     0.6300600
  H        0.8237630    -3.1662910    -0.7010550
  H        2.0935470     1.1833990     1.5571020
  H        3.4676080     1.0418550     0.4271840
  H        2.6734620    -0.4116070     1.0419720
units angstrom
no_reorient  #important for SAPT in psi4, default
symmetry c1  #important for SAPT in psi4, default
}

set PROPERTIES_ORIGIN ["COM"]
properties('MP2/aug-cc-pvtz', properties = ['dipole'])
--------------------------------------------------------------------------

    Molecular point group: c1
  Charge       = 0
  Multiplicity = 1
  Basis Set: AUG-CC-PVTZ
    Blend: AUG-CC-PVTZ
  Basis Set: (AUG-CC-PVTZ AUX)
    Blend: AUG-CC-PVTZ-JKFIT

    Orbital Energies [Eh]
    ---------------------

    Doubly Occupied:

       1A    -15.557055     2A    -11.270984     3A    -11.250711
       4A    -11.240717     5A    -11.228102     6A    -11.227389
       7A    -11.226152     8A    -11.222546     9A    -11.217460
      10A    -11.212623    11A     -1.221849    12A     -1.132628
      13A     -1.069717    14A     -1.013405    15A     -0.940984
      16A     -0.933429    17A     -0.885655    18A     -0.806188
      19A     -0.756001    20A     -0.696185    21A     -0.654467
      22A     -0.637532    23A     -0.610220    24A     -0.596397
      25A     -0.582716    26A     -0.574076    27A     -0.567241
      28A     -0.557478    29A     -0.553441    30A     -0.533653
      31A     -0.519756    32A     -0.491263    33A     -0.470224
      34A     -0.455179    35A     -0.392491    36A     -0.331212
      37A     -0.284730

  @DF-RHF Final Energy:  -402.91911819786941

   => Energetics <=

    Nuclear Repulsion Energy =            519.4959867656469896
    One-Electron Energy =               -1574.9865011629019591
    Two-Electron Energy =                 652.5713961993856174
    Total Energy =                       -402.9191181978694658
  Basis Set: (AUG-CC-PVTZ AUX)
    Blend: AUG-CC-PVTZ-RI
    Molecular point group: c1

    Geometry (in Angstrom), charge = 0, multiplicity = 1:

       Center              X                  Y                   Z               Mass
    ------------   -----------------  -----------------  -----------------  -----------------
         N            1.679118722496     0.612597356413    -0.461462408086    14.003074004430
         C            0.355384722496     0.152214356413    -0.198760408086    12.000000000000
         C           -0.870491477504     1.188356356413    -0.058979008086    12.000000000000
         C            0.132886722496    -1.236888643587    -0.107262408086    12.000000000000
         C           -2.005630277504     0.561837356413     0.149534591914    12.000000000000
         C           -1.165319277504    -1.695276643587     0.142104591914    12.000000000000
         C           -2.232756277504    -0.808382643587     0.269991591914    12.000000000000
         C           -0.488406277504     2.546263356413    -0.191366408086    12.000000000000
         C            1.259514722496    -2.216145643587    -0.301395408086    12.000000000000
         C            2.554582722496     0.616818356413     0.717690591914    12.000000000000
         H           -2.836283277504     1.259692356413     0.243005591914     1.007825032230
         H           -1.341493277504    -2.767776643587     0.210904591914     1.007825032230
         H            1.643919722496     1.553755356413    -0.846131408086     1.007825032230
         H           -3.237318277504    -1.182523643587     0.452938591914     1.007825032230
         H            0.287401722496     2.892220356413     0.500291591914     1.007825032230
         H           -0.185740277504     2.840197356413    -1.203892408086     1.007825032230
         H           -1.407258277504     3.090461356413     0.041788591914     1.007825032230
         H            1.993855722496    -1.810000643587    -1.001546408086     1.007825032230
         H            1.778742722496    -2.438154643587     0.637996591914     1.007825032230
         H            0.876043722496    -3.162655643587    -0.693118408086     1.007825032230
         H            2.145827722496     1.187034356413     1.565038591914     1.007825032230
         H            3.519888722496     1.045490356413     0.435120591914     1.007825032230
         H            2.725742722496    -0.407971643587     1.049908591914     1.007825032230

  Basis Set: AUG-CC-PVTZ
    Blend: AUG-CC-PVTZ
  Basis Set: (AUG-CC-PVTZ AUX)
    Blend: AUG-CC-PVTZ-JKFIT
	 Reference Energy          =    -402.9191181978694090 [Eh]
	 Singles Energy            =      -0.0000000000000000 [Eh]
	 Same-Spin Energy          =      -0.4490122472664942 [Eh]
	 Opposite-Spin Energy      =      -1.4694548006698038 [Eh]
	 Correlation Energy        =      -1.9184670479362982 [Eh]
	 Total Energy              =    -404.8375852458057125 [Eh]

	 ================> DF-SCS-MP2 Energies <==================
	-----------------------------------------------------------
	 SCS Same-Spin Scale       =       0.3333333333333333 [-]
	 SCS Opposite-Spin Scale   =       1.2000000000000000 [-]
	 SCS Same-Spin Energy      =      -0.1496707490888314 [Eh]
	 SCS Opposite-Spin Energy  =      -1.7633457608037646 [Eh]
	 SCS Correlation Energy    =      -1.9130165098925960 [Eh]
	 SCS Total Energy          =    -404.8321347077620089 [Eh]
	-----------------------------------------------------------

  Dipole Moment: [D]
     X:     0.6855      Y:     1.2371      Z:     0.4883     Total:     1.4962

*** Psi4 exiting successfully. Buy a developer a beer!
