                               Psi4 1.4a3.dev225

  ==> Input File <==

--------------------------------------------------------------------------
#psi4
#
memory 32 gb

molecule  {
0 1
  N        1.6268380     0.6089620    -0.4693990
  C        0.3031040     0.1485790    -0.2066970
  C       -0.7706010     1.0561020    -0.0842670
  C        0.0806060    -1.2405240    -0.1151990
  C       -2.0579110     0.5582020     0.1415980
  C       -1.2176000    -1.6989120     0.1341680
  C       -2.2850370    -0.8120180     0.2620550
  C       -0.5406870     2.5426280    -0.1993030
  C        1.2072340    -2.2197810    -0.3093320
  C        2.5023020     0.6131830     0.7097540
  H       -2.8885640     1.2560570     0.2350690
  H       -1.3937740    -2.7714120     0.2029680
  H        1.5916390     1.5501200    -0.8540680
  H       -3.2895990    -1.1861590     0.4450020
  H        0.2351210     2.8885850     0.4923550
  H       -0.2380210     2.8365620    -1.2118290
  H       -1.4595390     3.0868260     0.0338520
  H        1.9415750    -1.8136360    -1.0094830
  H        1.7264620    -2.4417900     0.6300600
  H        0.8237630    -3.1662910    -0.7010550
  H        2.0935470     1.1833990     1.5571020
  H        3.3793194     1.0026479     0.4530283
  H        2.6734620    -0.4116070     1.0419720
units angstrom
no_reorient  #important for SAPT in psi4, default
symmetry c1  #important for SAPT in psi4, default
}

set PROPERTIES_ORIGIN ["COM"]
properties('MP2/aug-cc-pvtz', properties = ['dipole'])
--------------------------------------------------------------------------

    Molecular point group: c1
  Charge       = 0
  Multiplicity = 1
  Basis Set: AUG-CC-PVTZ
    Blend: AUG-CC-PVTZ
  Basis Set: (AUG-CC-PVTZ AUX)
    Blend: AUG-CC-PVTZ-JKFIT

    Orbital Energies [Eh]
    ---------------------

    Doubly Occupied:

       1A    -15.553025     2A    -11.257685     3A    -11.237191
       4A    -11.235332     5A    -11.231474     6A    -11.228091
       7A    -11.224949     8A    -11.223761     9A    -11.222580
      10A    -11.213765    11A     -1.226511    12A     -1.130819
      13A     -1.053976    14A     -1.013222    15A     -0.949630
      16A     -0.922029    17A     -0.898223    18A     -0.794186
      19A     -0.781036    20A     -0.693965    21A     -0.660401
      22A     -0.633585    23A     -0.605995    24A     -0.591129
      25A     -0.579901    26A     -0.568413    27A     -0.565865
      28A     -0.557506    29A     -0.552329    30A     -0.538343
      31A     -0.520668    32A     -0.485001    33A     -0.477554
      34A     -0.470506    35A     -0.402398    36A     -0.316674
      37A     -0.302162

  @DF-RHF Final Energy:  -402.95573275254691

   => Energetics <=

    Nuclear Repulsion Energy =            521.8302972264779100
    One-Electron Energy =               -1579.7322970407603862
    Two-Electron Energy =                 654.9462670617357389
    Total Energy =                       -402.9557327525468509
  Basis Set: (AUG-CC-PVTZ AUX)
    Blend: AUG-CC-PVTZ-RI
    Molecular point group: c1

    Geometry (in Angstrom), charge = 0, multiplicity = 1:

       Center              X                  Y                   Z               Mass
    ------------   -----------------  -----------------  -----------------  -----------------
         N            1.666261481700     0.624313756597    -0.460114045420    14.003074004430
         C            0.342527481700     0.163930756597    -0.197412045420    12.000000000000
         C           -0.731177518300     1.071453756597    -0.074982045420    12.000000000000
         C            0.120029481700    -1.225172243403    -0.105914045420    12.000000000000
         C           -2.018487518300     0.573553756597     0.150882954580    12.000000000000
         C           -1.178176518300    -1.683560243403     0.143452954580    12.000000000000
         C           -2.245613518300    -0.796666243403     0.271339954580    12.000000000000
         C           -0.501263518300     2.557979756597    -0.190018045420    12.000000000000
         C            1.246657481700    -2.204429243403    -0.300047045420    12.000000000000
         C            2.541725481700     0.628534756597     0.719038954580    12.000000000000
         H           -2.849140518300     1.271408756597     0.244353954580     1.007825032230
         H           -1.354350518300    -2.756060243403     0.212252954580     1.007825032230
         H            1.631062481700     1.565471756597    -0.844783045420     1.007825032230
         H           -3.250175518300    -1.170807243403     0.454286954580     1.007825032230
         H            0.274544481700     2.903936756597     0.501639954580     1.007825032230
         H           -0.198597518300     2.851913756597    -1.202544045420     1.007825032230
         H           -1.420115518300     3.102177756597     0.043136954580     1.007825032230
         H            1.980998481700    -1.798284243403    -1.000198045420     1.007825032230
         H            1.765885481700    -2.426438243403     0.639344954580     1.007825032230
         H            0.863186481700    -3.150939243403    -0.691770045420     1.007825032230
         H            2.132970481700     1.198750756597     1.566386954580     1.007825032230
         H            3.418742881700     1.017999656597     0.462313254580     1.007825032230
         H            2.712885481700    -0.396255243403     1.051256954580     1.007825032230

  Basis Set: AUG-CC-PVTZ
    Blend: AUG-CC-PVTZ
  Basis Set: (AUG-CC-PVTZ AUX)
    Blend: AUG-CC-PVTZ-JKFIT
	 Reference Energy          =    -402.9557327525469077 [Eh]
	 Singles Energy            =      -0.0000000000000000 [Eh]
	 Same-Spin Energy          =      -0.4480012786841214 [Eh]
	 Opposite-Spin Energy      =      -1.4654241966720378 [Eh]
	 Correlation Energy        =      -1.9134254753561593 [Eh]
	 Total Energy              =    -404.8691582279030854 [Eh]

	 ================> DF-SCS-MP2 Energies <==================
	-----------------------------------------------------------
	 SCS Same-Spin Scale       =       0.3333333333333333 [-]
	 SCS Opposite-Spin Scale   =       1.2000000000000000 [-]
	 SCS Same-Spin Energy      =      -0.1493337595613738 [Eh]
	 SCS Opposite-Spin Energy  =      -1.7585090360064453 [Eh]
	 SCS Correlation Energy    =      -1.9078427955678190 [Eh]
	 SCS Total Energy          =    -404.8635755481147385 [Eh]
	-----------------------------------------------------------

  Dipole Moment: [D]
     X:     0.6081      Y:     1.0964      Z:     0.5267     Total:     1.3599

*** Psi4 exiting successfully. Buy a developer a beer!
