                               Psi4 1.4a3.dev225

  ==> Input File <==

--------------------------------------------------------------------------
#psi4
#
memory 32 gb

molecule  {
0 1
  N        1.6268380     0.6089620    -0.4693990
  C        0.3031040     0.1485790    -0.2066970
  C       -0.7706010     1.0561020    -0.0842670
  C        0.1297147    -1.1763490    -0.1823500
  C       -2.0579110     0.5582020     0.1415980
  C       -1.2176000    -1.6989120     0.1341680
  C       -2.2850370    -0.8120180     0.2620550
  C       -0.5406870     2.5426280    -0.1993030
  C        1.2072340    -2.2197810    -0.3093320
  C        2.5023020     0.6131830     0.7097540
  H       -2.8885640     1.2560570     0.2350690
  H       -1.3937740    -2.7714120     0.2029680
  H        1.5916390     1.5501200    -0.8540680
  H       -3.2895990    -1.1861590     0.4450020
  H        0.2351210     2.8885850     0.4923550
  H       -0.2380210     2.8365620    -1.2118290
  H       -1.4595390     3.0868260     0.0338520
  H        1.9415750    -1.8136360    -1.0094830
  H        1.7264620    -2.4417900     0.6300600
  H        0.8237630    -3.1662910    -0.7010550
  H        2.0935470     1.1833990     1.5571020
  H        3.4676080     1.0418550     0.4271840
  H        2.6734620    -0.4116070     1.0419720
units angstrom
no_reorient  #important for SAPT in psi4, default
symmetry c1  #important for SAPT in psi4, default
}

set PROPERTIES_ORIGIN ["COM"]
properties('MP2/aug-cc-pvtz', properties = ['dipole'])
--------------------------------------------------------------------------

    Molecular point group: c1
  Charge       = 0
  Multiplicity = 1
  Basis Set: AUG-CC-PVTZ
    Blend: AUG-CC-PVTZ
  Basis Set: (AUG-CC-PVTZ AUX)
    Blend: AUG-CC-PVTZ-JKFIT

    Orbital Energies [Eh]
    ---------------------

    Doubly Occupied:

       1A    -15.550381     2A    -11.249275     3A    -11.248389
       4A    -11.238143     5A    -11.231231     6A    -11.230399
       7A    -11.229220     8A    -11.225622     9A    -11.224336
      10A    -11.214472    11A     -1.228787    12A     -1.128270
      13A     -1.051350    14A     -1.016197    15A     -0.949097
      16A     -0.917736    17A     -0.892883    18A     -0.800633
      19A     -0.776404    20A     -0.692572    21A     -0.657627
      22A     -0.630188    23A     -0.603980    24A     -0.590775
      25A     -0.584018    26A     -0.568078    27A     -0.567517
      28A     -0.555526    29A     -0.547342    30A     -0.529663
      31A     -0.522591    32A     -0.491025    33A     -0.472925
      34A     -0.463332    35A     -0.401577    36A     -0.314285
      37A     -0.307951

  @DF-RHF Final Energy:  -402.95104058151384

   => Energetics <=

    Nuclear Repulsion Energy =            521.8325596341775281
    One-Electron Energy =               -1579.7596066268245067
    Two-Electron Energy =                 654.9760064111329712
    Total Energy =                       -402.9510405815138938
  Basis Set: (AUG-CC-PVTZ AUX)
    Blend: AUG-CC-PVTZ-RI
    Molecular point group: c1

    Geometry (in Angstrom), charge = 0, multiplicity = 1:

       Center              X                  Y                   Z               Mass
    ------------   -----------------  -----------------  -----------------  -----------------
         N            1.661241054120     0.618321268541    -0.453956910100    14.003074004430
         C            0.337507054120     0.157938268541    -0.191254910100    12.000000000000
         C           -0.736197945880     1.065461268541    -0.068824910100    12.000000000000
         C            0.164117754120    -1.166989731459    -0.166907910100    12.000000000000
         C           -2.023507945880     0.567561268541     0.157040089900    12.000000000000
         C           -1.183196945880    -1.689552731459     0.149610089900    12.000000000000
         C           -2.250633945880    -0.802658731459     0.277497089900    12.000000000000
         C           -0.506283945880     2.551987268541    -0.183860910100    12.000000000000
         C            1.241637054120    -2.210421731459    -0.293889910100    12.000000000000
         C            2.536705054120     0.622542268541     0.725196089900    12.000000000000
         H           -2.854160945880     1.265416268541     0.250511089900     1.007825032230
         H           -1.359370945880    -2.762052731459     0.218410089900     1.007825032230
         H            1.626042054120     1.559479268541    -0.838625910100     1.007825032230
         H           -3.255195945880    -1.176799731459     0.460444089900     1.007825032230
         H            0.269524054120     2.897944268541     0.507797089900     1.007825032230
         H           -0.203617945880     2.845921268541    -1.196386910100     1.007825032230
         H           -1.425135945880     3.096185268541     0.049294089900     1.007825032230
         H            1.975978054120    -1.804276731459    -0.994040910100     1.007825032230
         H            1.760865054120    -2.432430731459     0.645502089900     1.007825032230
         H            0.858166054120    -3.156931731459    -0.685612910100     1.007825032230
         H            2.127950054120     1.192758268541     1.572544089900     1.007825032230
         H            3.502011054120     1.051214268541     0.442626089900     1.007825032230
         H            2.707865054120    -0.402247731459     1.057414089900     1.007825032230

  Basis Set: AUG-CC-PVTZ
    Blend: AUG-CC-PVTZ
  Basis Set: (AUG-CC-PVTZ AUX)
    Blend: AUG-CC-PVTZ-JKFIT
	 Reference Energy          =    -402.9510405815138370 [Eh]
	 Singles Energy            =      -0.0000000000000000 [Eh]
	 Same-Spin Energy          =      -0.4476268613301782 [Eh]
	 Opposite-Spin Energy      =      -1.4663542635656093 [Eh]
	 Correlation Energy        =      -1.9139811248957874 [Eh]
	 Total Energy              =    -404.8650217064096068 [Eh]

	 ================> DF-SCS-MP2 Energies <==================
	-----------------------------------------------------------
	 SCS Same-Spin Scale       =       0.3333333333333333 [-]
	 SCS Opposite-Spin Scale   =       1.2000000000000000 [-]
	 SCS Same-Spin Energy      =      -0.1492089537767260 [Eh]
	 SCS Opposite-Spin Energy  =      -1.7596251162787311 [Eh]
	 SCS Correlation Energy    =      -1.9088340700554571 [Eh]
	 SCS Total Energy          =    -404.8598746515692710 [Eh]
	-----------------------------------------------------------

  Dipole Moment: [D]
     X:     0.4379      Y:     1.0496      Z:     0.5537     Total:     1.2650

*** Psi4 exiting successfully. Buy a developer a beer!
