                               Psi4 1.4a3.dev225

  ==> Input File <==

--------------------------------------------------------------------------
#psi4
#
memory 32 gb

molecule  {
0 1
  N        1.6268380     0.6089620    -0.4693990
  C        0.3031040     0.1485790    -0.2066970
  C       -0.7706010     1.0561020    -0.0842670
  C        0.0806060    -1.2405240    -0.1151990
  C       -2.0579110     0.5582020     0.1415980
  C       -1.2176000    -1.6989120     0.1341680
  C       -2.2850370    -0.8120180     0.2620550
  C       -0.5406870     2.5426280    -0.1993030
  C        1.2072340    -2.2197810    -0.3093320
  C        2.5023020     0.6131830     0.7097540
  H       -2.8885640     1.2560570     0.2350690
  H       -1.3937740    -2.7714120     0.2029680
  H        1.5916390     1.5501200    -0.8540680
  H       -3.2895990    -1.1861590     0.4450020
  H        0.2251664     2.8812389     0.5069309
  H       -0.2380210     2.8365620    -1.2118290
  H       -1.4595390     3.0868260     0.0338520
  H        1.9415750    -1.8136360    -1.0094830
  H        1.7264620    -2.4417900     0.6300600
  H        0.8237630    -3.1662910    -0.7010550
  H        2.0935470     1.1833990     1.5571020
  H        3.4676080     1.0418550     0.4271840
  H        2.6734620    -0.4116070     1.0419720
units angstrom
no_reorient  #important for SAPT in psi4, default
symmetry c1  #important for SAPT in psi4, default
}

set PROPERTIES_ORIGIN ["COM"]
properties('MP2/aug-cc-pvtz', properties = ['dipole'])
--------------------------------------------------------------------------

    Molecular point group: c1
  Charge       = 0
  Multiplicity = 1
  Basis Set: AUG-CC-PVTZ
    Blend: AUG-CC-PVTZ
  Basis Set: (AUG-CC-PVTZ AUX)
    Blend: AUG-CC-PVTZ-JKFIT

    Orbital Energies [Eh]
    ---------------------

    Doubly Occupied:

       1A    -15.553746     2A    -11.258170     3A    -11.249626
       4A    -11.235754     5A    -11.232007     6A    -11.228366
       7A    -11.225306     8A    -11.224158     9A    -11.222962
      10A    -11.214105    11A     -1.226513    12A     -1.130799
      13A     -1.054417    14A     -1.012399    15A     -0.945350
      16A     -0.922058    17A     -0.892019    18A     -0.794520
      19A     -0.781222    20A     -0.692388    21A     -0.660677
      22A     -0.629363    23A     -0.603694    24A     -0.591760
      25A     -0.578888    26A     -0.568832    27A     -0.566212
      28A     -0.556198    29A     -0.552202    30A     -0.530692
      31A     -0.520536    32A     -0.485300    33A     -0.476781
      34A     -0.470911    35A     -0.402433    36A     -0.317086
      37A     -0.302716

  @DF-RHF Final Energy:  -402.96171924786120

   => Energetics <=

    Nuclear Repulsion Energy =            521.3238143976337824
    One-Electron Energy =               -1578.7507355517864198
    Two-Electron Energy =                 654.4652019062915542
    Total Energy =                       -402.9617192478611969
  Basis Set: (AUG-CC-PVTZ AUX)
    Blend: AUG-CC-PVTZ-RI
    Molecular point group: c1

    Geometry (in Angstrom), charge = 0, multiplicity = 1:

       Center              X                  Y                   Z               Mass
    ------------   -----------------  -----------------  -----------------  -----------------
         N            1.665677142976     0.624076086925    -0.460029987891    14.003074004430
         C            0.341943142976     0.163693086925    -0.197327987891    12.000000000000
         C           -0.731761857024     1.071216086925    -0.074897987891    12.000000000000
         C            0.119445142976    -1.225409913075    -0.105829987891    12.000000000000
         C           -2.019071857024     0.573316086925     0.150967012109    12.000000000000
         C           -1.178760857024    -1.683797913075     0.143537012109    12.000000000000
         C           -2.246197857024    -0.796903913075     0.271424012109    12.000000000000
         C           -0.501847857024     2.557742086925    -0.189933987891    12.000000000000
         C            1.246073142976    -2.204666913075    -0.299962987891    12.000000000000
         C            2.541141142976     0.628297086925     0.719123012109    12.000000000000
         H           -2.849724857024     1.271171086925     0.244438012109     1.007825032230
         H           -1.354934857024    -2.756297913075     0.212337012109     1.007825032230
         H            1.630478142976     1.565234086925    -0.844698987891     1.007825032230
         H           -3.250759857024    -1.171044913075     0.454371012109     1.007825032230
         H            0.264005542976     2.896352986925     0.516299912109     1.007825032230
         H           -0.199181857024     2.851676086925    -1.202459987891     1.007825032230
         H           -1.420699857024     3.101940086925     0.043221012109     1.007825032230
         H            1.980414142976    -1.798521913075    -1.000113987891     1.007825032230
         H            1.765301142976    -2.426675913075     0.639429012109     1.007825032230
         H            0.862602142976    -3.151176913075    -0.691685987891     1.007825032230
         H            2.132386142976     1.198513086925     1.566471012109     1.007825032230
         H            3.506447142976     1.056969086925     0.436553012109     1.007825032230
         H            2.712301142976    -0.396492913075     1.051341012109     1.007825032230

  Basis Set: AUG-CC-PVTZ
    Blend: AUG-CC-PVTZ
  Basis Set: (AUG-CC-PVTZ AUX)
    Blend: AUG-CC-PVTZ-JKFIT
	 Reference Energy          =    -402.9617192478611969 [Eh]
	 Singles Energy            =      -0.0000000000000000 [Eh]
	 Same-Spin Energy          =      -0.4479913809503979 [Eh]
	 Opposite-Spin Energy      =      -1.4659342712844741 [Eh]
	 Correlation Energy        =      -1.9139256522348720 [Eh]
	 Total Energy              =    -404.8756449000960629 [Eh]

	 ================> DF-SCS-MP2 Energies <==================
	-----------------------------------------------------------
	 SCS Same-Spin Scale       =       0.3333333333333333 [-]
	 SCS Opposite-Spin Scale   =       1.2000000000000000 [-]
	 SCS Same-Spin Energy      =      -0.1493304603167993 [Eh]
	 SCS Opposite-Spin Energy  =      -1.7591211255413688 [Eh]
	 SCS Correlation Energy    =      -1.9084515858581681 [Eh]
	 SCS Total Energy          =    -404.8701708337193850 [Eh]
	-----------------------------------------------------------

  Dipole Moment: [D]
     X:     0.5352      Y:     1.0741      Z:     0.5234     Total:     1.3092

*** Psi4 exiting successfully. Buy a developer a beer!
