                               Psi4 1.4a3.dev225

  ==> Input File <==

--------------------------------------------------------------------------
#psi4
#
memory 32 gb

molecule  {
0 1
  N        1.6268380     0.6089620    -0.4693990
  C        0.3031040     0.1485790    -0.2066970
  C       -0.7706010     1.0561020    -0.0842670
  C        0.0806060    -1.2405240    -0.1151990
  C       -2.0579110     0.5582020     0.1415980
  C       -1.2176000    -1.6989120     0.1341680
  C       -2.2850370    -0.8120180     0.2620550
  C       -0.5406870     2.5426280    -0.1993030
  C        1.2072340    -2.2197810    -0.3093320
  C        2.5023020     0.6131830     0.7097540
  H       -2.8885640     1.2560570     0.2350690
  H       -1.3937740    -2.7714120     0.2029680
  H        1.5916390     1.5501200    -0.8540680
  H       -3.2895990    -1.1861590     0.4450020
  H        0.2351210     2.8885850     0.4923550
  H       -0.2380210     2.8365620    -1.2118290
  H       -1.4595390     3.0868260     0.0338520
  H        1.9941881    -1.8217381    -0.9548449
  H        1.7264620    -2.4417900     0.6300600
  H        0.8237630    -3.1662910    -0.7010550
  H        2.0935470     1.1833990     1.5571020
  H        3.4676080     1.0418550     0.4271840
  H        2.6734620    -0.4116070     1.0419720
units angstrom
no_reorient  #important for SAPT in psi4, default
symmetry c1  #important for SAPT in psi4, default
}

set PROPERTIES_ORIGIN ["COM"]
properties('MP2/aug-cc-pvtz', properties = ['dipole'])
--------------------------------------------------------------------------

    Molecular point group: c1
  Charge       = 0
  Multiplicity = 1
  Basis Set: AUG-CC-PVTZ
    Blend: AUG-CC-PVTZ
  Basis Set: (AUG-CC-PVTZ AUX)
    Blend: AUG-CC-PVTZ-JKFIT

    Orbital Energies [Eh]
    ---------------------

    Doubly Occupied:

       1A    -15.553811     2A    -11.258302     3A    -11.249847
       4A    -11.235952     5A    -11.232608     6A    -11.228411
       7A    -11.225499     8A    -11.224403     9A    -11.223280
      10A    -11.214283    11A     -1.226591    12A     -1.130951
      13A     -1.054381    14A     -1.012398    15A     -0.945583
      16A     -0.922394    17A     -0.892240    18A     -0.794767
      19A     -0.781849    20A     -0.692682    21A     -0.661493
      22A     -0.629501    23A     -0.603534    24A     -0.591709
      25A     -0.579414    26A     -0.568230    27A     -0.563888
      28A     -0.556634    29A     -0.551579    30A     -0.530505
      31A     -0.522522    32A     -0.486550    33A     -0.477115
      34A     -0.470324    35A     -0.402586    36A     -0.316996
      37A     -0.302743

  @DF-RHF Final Energy:  -402.96122080744522

   => Energetics <=

    Nuclear Repulsion Energy =            521.2750955543745022
    One-Electron Energy =               -1578.6415287498700764
    Two-Electron Energy =                 654.4052123880503586
    Total Energy =                       -402.9612208074452155
  Basis Set: (AUG-CC-PVTZ AUX)
    Blend: AUG-CC-PVTZ-RI
    Molecular point group: c1

    Geometry (in Angstrom), charge = 0, multiplicity = 1:

       Center              X                  Y                   Z               Mass
    ------------   -----------------  -----------------  -----------------  -----------------
         N            1.665210414225     0.624081726368    -0.460328835069    14.003074004430
         C            0.341476414225     0.163698726368    -0.197626835069    12.000000000000
         C           -0.732228585775     1.071221726368    -0.075196835069    12.000000000000
         C            0.118978414225    -1.225404273632    -0.106128835069    12.000000000000
         C           -2.019538585775     0.573321726368     0.150668164931    12.000000000000
         C           -1.179227585775    -1.683792273632     0.143238164931    12.000000000000
         C           -2.246664585775    -0.796898273632     0.271125164931    12.000000000000
         C           -0.502314585775     2.557747726368    -0.190232835069    12.000000000000
         C            1.245606414225    -2.204661273632    -0.300261835069    12.000000000000
         C            2.540674414225     0.628302726368     0.718824164931    12.000000000000
         H           -2.850191585775     1.271176726368     0.244139164931     1.007825032230
         H           -1.355401585775    -2.756292273632     0.212038164931     1.007825032230
         H            1.630011414225     1.565239726368    -0.844997835069     1.007825032230
         H           -3.251226585775    -1.171039273632     0.454072164931     1.007825032230
         H            0.273493414225     2.903704726368     0.501425164931     1.007825032230
         H           -0.199648585775     2.851681726368    -1.202758835069     1.007825032230
         H           -1.421166585775     3.101945726368     0.042922164931     1.007825032230
         H            2.032560514225    -1.806618373632    -0.945774735069     1.007825032230
         H            1.764834414225    -2.426670273632     0.639130164931     1.007825032230
         H            0.862135414225    -3.151171273632    -0.691984835069     1.007825032230
         H            2.131919414225     1.198518726368     1.566172164931     1.007825032230
         H            3.505980414225     1.056974726368     0.436254164931     1.007825032230
         H            2.711834414225    -0.396487273632     1.051042164931     1.007825032230

  Basis Set: AUG-CC-PVTZ
    Blend: AUG-CC-PVTZ
  Basis Set: (AUG-CC-PVTZ AUX)
    Blend: AUG-CC-PVTZ-JKFIT
	 Reference Energy          =    -402.9612208074452155 [Eh]
	 Singles Energy            =      -0.0000000000000000 [Eh]
	 Same-Spin Energy          =      -0.4480199270149697 [Eh]
	 Opposite-Spin Energy      =      -1.4659193113456452 [Eh]
	 Correlation Energy        =      -1.9139392383606149 [Eh]
	 Total Energy              =    -404.8751600458058419 [Eh]

	 ================> DF-SCS-MP2 Energies <==================
	-----------------------------------------------------------
	 SCS Same-Spin Scale       =       0.3333333333333333 [-]
	 SCS Opposite-Spin Scale   =       1.2000000000000000 [-]
	 SCS Same-Spin Energy      =      -0.1493399756716566 [Eh]
	 SCS Opposite-Spin Energy  =      -1.7591031736147742 [Eh]
	 SCS Correlation Energy    =      -1.9084431492864307 [Eh]
	 SCS Total Energy          =    -404.8696639567316424 [Eh]
	-----------------------------------------------------------

  Dipole Moment: [D]
     X:     0.5535      Y:     1.0774      Z:     0.5349     Total:     1.3241

*** Psi4 exiting successfully. Buy a developer a beer!
