                               Psi4 1.4a3.dev225

  ==> Input File <==

--------------------------------------------------------------------------
#psi4
#
memory 32 gb

molecule  {
0 1
  N        1.6268380     0.6089620    -0.4693990
  C        0.3031040     0.1485790    -0.2066970
  C       -0.7706010     1.0561020    -0.0842670
  C        0.0806060    -1.2405240    -0.1151990
  C       -2.0579110     0.5582020     0.1415980
  C       -1.2176000    -1.6989120     0.1341680
  C       -2.2850370    -0.8120180     0.2620550
  C       -0.5406870     2.5426280    -0.1993030
  C        1.2072340    -2.2197810    -0.3093320
  C        2.5023020     0.6131830     0.7097540
  H       -2.8885640     1.2560570     0.2350690
  H       -1.3937740    -2.7714120     0.2029680
  H        1.5916390     1.5501200    -0.8540680
  H       -3.2895990    -1.1861590     0.4450020
  H        0.2351210     2.8885850     0.4923550
  H       -0.2380210     2.8365620    -1.2118290
  H       -1.4595390     3.0868260     0.0338520
  H        1.9415750    -1.8136360    -1.0094830
  H        1.7264620    -2.4417900     0.6300600
  H        0.8237630    -3.1662910    -0.7010550
  H        2.0935470     1.1833990     1.5571020
  H        3.6441852     1.1202692     0.3754953
  H        2.6734620    -0.4116070     1.0419720
units angstrom
no_reorient  #important for SAPT in psi4, default
symmetry c1  #important for SAPT in psi4, default
}

set PROPERTIES_ORIGIN ["COM"]
properties('MP2/aug-cc-pvtz', properties = ['dipole'])
--------------------------------------------------------------------------

    Molecular point group: c1
  Charge       = 0
  Multiplicity = 1
  Basis Set: AUG-CC-PVTZ
    Blend: AUG-CC-PVTZ
  Basis Set: (AUG-CC-PVTZ AUX)
    Blend: AUG-CC-PVTZ-JKFIT

    Orbital Energies [Eh]
    ---------------------

    Doubly Occupied:

       1A    -15.556189     2A    -11.272721     3A    -11.259923
       4A    -11.237478     5A    -11.233619     6A    -11.229259
       7A    -11.226656     8A    -11.225525     9A    -11.224240
      10A    -11.215195    11A     -1.227949    12A     -1.131781
      13A     -1.055658    14A     -1.012518    15A     -0.942242
      16A     -0.923012    17A     -0.883734    18A     -0.796032
      19A     -0.782320    20A     -0.691713    21A     -0.662193
      22A     -0.626393    23A     -0.601801    24A     -0.593176
      25A     -0.578131    26A     -0.570416    27A     -0.565456
      28A     -0.556873    29A     -0.552772    30A     -0.522169
      31A     -0.508378    32A     -0.486321    33A     -0.474412
      34A     -0.470321    35A     -0.402663    36A     -0.318299
      37A     -0.304408

  @DF-RHF Final Energy:  -402.94162889942214

   => Energetics <=

    Nuclear Repulsion Energy =            520.4402903417990274
    One-Electron Energy =               -1576.9199478638081473
    Two-Electron Energy =                 653.5380286225870350
    Total Energy =                       -402.9416288994220849
  Basis Set: (AUG-CC-PVTZ AUX)
    Blend: AUG-CC-PVTZ-RI
    Molecular point group: c1

    Geometry (in Angstrom), charge = 0, multiplicity = 1:

       Center              X                  Y                   Z               Mass
    ------------   -----------------  -----------------  -----------------  -----------------
         N            1.664285694129     0.623436351124    -0.459535681820    14.003074004430
         C            0.340551694129     0.163053351124    -0.196833681820    12.000000000000
         C           -0.733153305871     1.070576351124    -0.074403681820    12.000000000000
         C            0.118053694129    -1.226049648876    -0.105335681820    12.000000000000
         C           -2.020463305871     0.572676351124     0.151461318180    12.000000000000
         C           -1.180152305871    -1.684437648876     0.144031318180    12.000000000000
         C           -2.247589305871    -0.797543648876     0.271918318180    12.000000000000
         C           -0.503239305871     2.557102351124    -0.189439681820    12.000000000000
         C            1.244681694129    -2.205306648876    -0.299468681820    12.000000000000
         C            2.539749694129     0.627657351124     0.719617318180    12.000000000000
         H           -2.851116305871     1.270531351124     0.244932318180     1.007825032230
         H           -1.356326305871    -2.756937648876     0.212831318180     1.007825032230
         H            1.629086694129     1.564594351124    -0.844204681820     1.007825032230
         H           -3.252151305871    -1.171684648876     0.454865318180     1.007825032230
         H            0.272568694129     2.903059351124     0.502218318180     1.007825032230
         H           -0.200573305871     2.851036351124    -1.201965681820     1.007825032230
         H           -1.422091305871     3.101300351124     0.043715318180     1.007825032230
         H            1.979022694129    -1.799161648876    -0.999619681820     1.007825032230
         H            1.763909694129    -2.427315648876     0.639923318180     1.007825032230
         H            0.861210694129    -3.151816648876    -0.691191681820     1.007825032230
         H            2.130994694129     1.197873351124     1.566965318180     1.007825032230
         H            3.681632894129     1.134743551124     0.385358618180     1.007825032230
         H            2.710909694129    -0.397132648876     1.051835318180     1.007825032230

  Basis Set: AUG-CC-PVTZ
    Blend: AUG-CC-PVTZ
  Basis Set: (AUG-CC-PVTZ AUX)
    Blend: AUG-CC-PVTZ-JKFIT
	 Reference Energy          =    -402.9416288994221418 [Eh]
	 Singles Energy            =      -0.0000000000000000 [Eh]
	 Same-Spin Energy          =      -0.4480275302211029 [Eh]
	 Opposite-Spin Energy      =      -1.4675264899977627 [Eh]
	 Correlation Energy        =      -1.9155540202188654 [Eh]
	 Total Energy              =    -404.8571829196409908 [Eh]

	 ================> DF-SCS-MP2 Energies <==================
	-----------------------------------------------------------
	 SCS Same-Spin Scale       =       0.3333333333333333 [-]
	 SCS Opposite-Spin Scale   =       1.2000000000000000 [-]
	 SCS Same-Spin Energy      =      -0.1493425100737009 [Eh]
	 SCS Opposite-Spin Energy  =      -1.7610317879973152 [Eh]
	 SCS Correlation Energy    =      -1.9103742980710161 [Eh]
	 SCS Total Energy          =    -404.8520031974931612 [Eh]
	-----------------------------------------------------------

  Dipole Moment: [D]
     X:     0.3399      Y:     1.0031      Z:     0.5115     Total:     1.1762

*** Psi4 exiting successfully. Buy a developer a beer!
