                               Psi4 1.4a3.dev225

  ==> Input File <==

--------------------------------------------------------------------------
#psi4
#
memory 32 gb

molecule  {
0 1
  N        1.6268380     0.6089620    -0.4693990
  C        0.3031040     0.1485790    -0.2066970
  C       -0.7706010     1.0561020    -0.0842670
  C        0.0806060    -1.2405240    -0.1151990
  C       -2.0579110     0.5582020     0.1415980
  C       -1.2176000    -1.6989120     0.1341680
  C       -2.2850370    -0.8120180     0.2620550
  C       -0.5406870     2.5426280    -0.1993030
  C        1.2072340    -2.2197810    -0.3093320
  C        2.5023020     0.6131830     0.7097540
  H       -2.8885640     1.2560570     0.2350690
  H       -1.3614203    -2.5744511     0.1903331
  H        1.5916390     1.5501200    -0.8540680
  H       -3.2895990    -1.1861590     0.4450020
  H        0.2351210     2.8885850     0.4923550
  H       -0.2380210     2.8365620    -1.2118290
  H       -1.4595390     3.0868260     0.0338520
  H        1.9415750    -1.8136360    -1.0094830
  H        1.7264620    -2.4417900     0.6300600
  H        0.8237630    -3.1662910    -0.7010550
  H        2.0935470     1.1833990     1.5571020
  H        3.4676080     1.0418550     0.4271840
  H        2.6734620    -0.4116070     1.0419720
units angstrom
no_reorient  #important for SAPT in psi4, default
symmetry c1  #important for SAPT in psi4, default
}

set PROPERTIES_ORIGIN ["COM"]
properties('MP2/aug-cc-pvtz', properties = ['dipole'])
--------------------------------------------------------------------------

    Molecular point group: c1
  Charge       = 0
  Multiplicity = 1
  Basis Set: AUG-CC-PVTZ
    Blend: AUG-CC-PVTZ
  Basis Set: (AUG-CC-PVTZ AUX)
    Blend: AUG-CC-PVTZ-JKFIT

    Orbital Energies [Eh]
    ---------------------

    Doubly Occupied:

       1A    -15.553143     2A    -11.256897     3A    -11.249284
       4A    -11.235382     5A    -11.230529     6A    -11.227949
       7A    -11.224089     8A    -11.222568     9A    -11.214351
      10A    -11.198925    11A     -1.225907    12A     -1.132263
      13A     -1.057410    14A     -1.012952    15A     -0.946441
      16A     -0.931419    17A     -0.891471    18A     -0.806159
      19A     -0.781359    20A     -0.710549    21A     -0.662101
      22A     -0.629006    23A     -0.607548    24A     -0.591936
      25A     -0.587465    26A     -0.569106    27A     -0.565031
      28A     -0.562506    29A     -0.552417    30A     -0.530187
      31A     -0.522404    32A     -0.485313    33A     -0.480133
      34A     -0.469994    35A     -0.401942    36A     -0.316440
      37A     -0.301820

  @DF-RHF Final Energy:  -402.92761199534186

   => Energetics <=

    Nuclear Repulsion Energy =            522.5021982041384945
    One-Electron Energy =               -1580.9708239589583627
    Two-Electron Energy =                 655.5410137594780053
    Total Energy =                       -402.9276119953418629
  Basis Set: (AUG-CC-PVTZ AUX)
    Blend: AUG-CC-PVTZ-RI
    Molecular point group: c1

    Geometry (in Angstrom), charge = 0, multiplicity = 1:

       Center              X                  Y                   Z               Mass
    ------------   -----------------  -----------------  -----------------  -----------------
         N            1.665361540836     0.622552042556    -0.459827006757    14.003074004430
         C            0.341627540836     0.162169042556    -0.197125006757    12.000000000000
         C           -0.732077459164     1.069692042556    -0.074695006757    12.000000000000
         C            0.119129540836    -1.226933957444    -0.105627006757    12.000000000000
         C           -2.019387459164     0.571792042556     0.151169993243    12.000000000000
         C           -1.179076459164    -1.685321957444     0.143739993243    12.000000000000
         C           -2.246513459164    -0.798427957444     0.271626993243    12.000000000000
         C           -0.502163459164     2.556218042556    -0.189731006757    12.000000000000
         C            1.245757540836    -2.206190957444    -0.299760006757    12.000000000000
         C            2.540825540836     0.626773042556     0.719325993243    12.000000000000
         H           -2.850040459164     1.269647042556     0.244640993243     1.007825032230
         H           -1.322896759164    -2.560861057444     0.199905093243     1.007825032230
         H            1.630162540836     1.563710042556    -0.844496006757     1.007825032230
         H           -3.251075459164    -1.172568957444     0.454573993243     1.007825032230
         H            0.273644540836     2.902175042556     0.501926993243     1.007825032230
         H           -0.199497459164     2.850152042556    -1.202257006757     1.007825032230
         H           -1.421015459164     3.100416042556     0.043423993243     1.007825032230
         H            1.980098540836    -1.800045957444    -0.999911006757     1.007825032230
         H            1.764985540836    -2.428199957444     0.639631993243     1.007825032230
         H            0.862286540836    -3.152700957444    -0.691483006757     1.007825032230
         H            2.132070540836     1.196989042556     1.566673993243     1.007825032230
         H            3.506131540836     1.055445042556     0.436755993243     1.007825032230
         H            2.711985540836    -0.398016957444     1.051543993243     1.007825032230

  Basis Set: AUG-CC-PVTZ
    Blend: AUG-CC-PVTZ
  Basis Set: (AUG-CC-PVTZ AUX)
    Blend: AUG-CC-PVTZ-JKFIT
	 Reference Energy          =    -402.9276119953418629 [Eh]
	 Singles Energy            =      -0.0000000000000000 [Eh]
	 Same-Spin Energy          =      -0.4477495857398547 [Eh]
	 Opposite-Spin Energy      =      -1.4652862425034190 [Eh]
	 Correlation Energy        =      -1.9130358282432738 [Eh]
	 Total Energy              =    -404.8406478235851296 [Eh]

	 ================> DF-SCS-MP2 Energies <==================
	-----------------------------------------------------------
	 SCS Same-Spin Scale       =       0.3333333333333333 [-]
	 SCS Opposite-Spin Scale   =       1.2000000000000000 [-]
	 SCS Same-Spin Energy      =      -0.1492498619132849 [Eh]
	 SCS Opposite-Spin Energy  =      -1.7583434910041027 [Eh]
	 SCS Correlation Energy    =      -1.9075933529173876 [Eh]
	 SCS Total Energy          =    -404.8352053482592510 [Eh]
	-----------------------------------------------------------

  Dipole Moment: [D]
     X:     0.5274      Y:     1.0084      Z:     0.5229     Total:     1.2524

*** Psi4 exiting successfully. Buy a developer a beer!
