                               Psi4 1.4a3.dev225

  ==> Input File <==

--------------------------------------------------------------------------
#psi4
#
memory 32 gb

molecule  {
0 1
  N        1.6268380     0.6089620    -0.4693990
  C        0.3031040     0.1485790    -0.2066970
  C       -0.7706010     1.0561020    -0.0842670
  C        0.0806060    -1.2405240    -0.1151990
  C       -2.0579110     0.5582020     0.1415980
  C       -1.2176000    -1.6989120     0.1341680
  C       -2.3176202    -1.0085879     0.2793356
  C       -0.5406870     2.5426280    -0.1993030
  C        1.2072340    -2.2197810    -0.3093320
  C        2.5023020     0.6131830     0.7097540
  H       -2.8885640     1.2560570     0.2350690
  H       -1.3937740    -2.7714120     0.2029680
  H        1.5916390     1.5501200    -0.8540680
  H       -3.2895990    -1.1861590     0.4450020
  H        0.2351210     2.8885850     0.4923550
  H       -0.2380210     2.8365620    -1.2118290
  H       -1.4595390     3.0868260     0.0338520
  H        1.9415750    -1.8136360    -1.0094830
  H        1.7264620    -2.4417900     0.6300600
  H        0.8237630    -3.1662910    -0.7010550
  H        2.0935470     1.1833990     1.5571020
  H        3.4676080     1.0418550     0.4271840
  H        2.6734620    -0.4116070     1.0419720
units angstrom
no_reorient  #important for SAPT in psi4, default
symmetry c1  #important for SAPT in psi4, default
}

set PROPERTIES_ORIGIN ["COM"]
properties('MP2/aug-cc-pvtz', properties = ['dipole'])
--------------------------------------------------------------------------

    Molecular point group: c1
  Charge       = 0
  Multiplicity = 1
  Basis Set: AUG-CC-PVTZ
    Blend: AUG-CC-PVTZ
  Basis Set: (AUG-CC-PVTZ AUX)
    Blend: AUG-CC-PVTZ-JKFIT

    Orbital Energies [Eh]
    ---------------------

    Doubly Occupied:

       1A    -15.554975     2A    -11.260928     3A    -11.250373
       4A    -11.239639     5A    -11.236876     6A    -11.230689
       7A    -11.228766     8A    -11.226597     9A    -11.217380
      10A    -11.214095    11A     -1.227249    12A     -1.125858
      13A     -1.055834    14A     -1.012235    15A     -0.945936
      16A     -0.919132    17A     -0.889874    18A     -0.801156
      19A     -0.782176    20A     -0.691568    21A     -0.671039
      22A     -0.632740    23A     -0.610136    24A     -0.589790
      25A     -0.577144    26A     -0.570201    27A     -0.565521
      28A     -0.557741    29A     -0.550421    30A     -0.534379
      31A     -0.511794    32A     -0.500693    33A     -0.467000
      34A     -0.444461    35A     -0.402887    36A     -0.330001
      37A     -0.290719

  @DF-RHF Final Energy:  -402.91998280106333

   => Energetics <=

    Nuclear Repulsion Energy =            519.4628694466651950
    One-Electron Energy =               -1574.9297042882180904
    Two-Electron Energy =                 652.5468520404897390
    Total Energy =                       -402.9199828010632700
  Basis Set: (AUG-CC-PVTZ AUX)
    Blend: AUG-CC-PVTZ-RI
    Molecular point group: c1

    Geometry (in Angstrom), charge = 0, multiplicity = 1:

       Center              X                  Y                   Z               Mass
    ------------   -----------------  -----------------  -----------------  -----------------
         N            1.668496923669     0.641480614570    -0.461456119634    14.003074004430
         C            0.344762923669     0.181097614570    -0.198754119634    12.000000000000
         C           -0.728942076331     1.088620614570    -0.076324119634    12.000000000000
         C            0.122264923669    -1.208005385430    -0.107256119634    12.000000000000
         C           -2.016252076331     0.590720614570     0.149540880366    12.000000000000
         C           -1.175941076331    -1.666393385430     0.142110880366    12.000000000000
         C           -2.275961276331    -0.976069285430     0.287278480366    12.000000000000
         C           -0.499028076331     2.575146614570    -0.191360119634    12.000000000000
         C            1.248892923669    -2.187262385430    -0.301389119634    12.000000000000
         C            2.543960923669     0.645701614570     0.717696880366    12.000000000000
         H           -2.846905076331     1.288575614570     0.243011880366     1.007825032230
         H           -1.352115076331    -2.738893385430     0.210910880366     1.007825032230
         H            1.633297923669     1.582638614570    -0.846125119634     1.007825032230
         H           -3.247940076331    -1.153640385430     0.452944880366     1.007825032230
         H            0.276779923669     2.921103614570     0.500297880366     1.007825032230
         H           -0.196362076331     2.869080614570    -1.203886119634     1.007825032230
         H           -1.417880076331     3.119344614570     0.041794880366     1.007825032230
         H            1.983233923669    -1.781117385430    -1.001540119634     1.007825032230
         H            1.768120923669    -2.409271385430     0.638002880366     1.007825032230
         H            0.865421923669    -3.133772385430    -0.693112119634     1.007825032230
         H            2.135205923669     1.215917614570     1.565044880366     1.007825032230
         H            3.509266923669     1.074373614570     0.435126880366     1.007825032230
         H            2.715120923669    -0.379088385430     1.049914880366     1.007825032230

  Basis Set: AUG-CC-PVTZ
    Blend: AUG-CC-PVTZ
  Basis Set: (AUG-CC-PVTZ AUX)
    Blend: AUG-CC-PVTZ-JKFIT
	 Reference Energy          =    -402.9199828010633269 [Eh]
	 Singles Energy            =      -0.0000000000000000 [Eh]
	 Same-Spin Energy          =      -0.4475746275631574 [Eh]
	 Opposite-Spin Energy      =      -1.4686107045105641 [Eh]
	 Correlation Energy        =      -1.9161853320737214 [Eh]
	 Total Energy              =    -404.8361681331370505 [Eh]

	 ================> DF-SCS-MP2 Energies <==================
	-----------------------------------------------------------
	 SCS Same-Spin Scale       =       0.3333333333333333 [-]
	 SCS Opposite-Spin Scale   =       1.2000000000000000 [-]
	 SCS Same-Spin Energy      =      -0.1491915425210524 [Eh]
	 SCS Opposite-Spin Energy  =      -1.7623328454126768 [Eh]
	 SCS Correlation Energy    =      -1.9115243879337291 [Eh]
	 SCS Total Energy          =    -404.8315071889970795 [Eh]
	-----------------------------------------------------------

  Dipole Moment: [D]
     X:     0.5269      Y:     1.1078      Z:     0.5217     Total:     1.3330

*** Psi4 exiting successfully. Buy a developer a beer!
