                               Psi4 1.4a3.dev225

  ==> Input File <==

--------------------------------------------------------------------------
#psi4
#
memory 32 gb

molecule  {
0 1
  N        1.6268380     0.6089620    -0.4693990
  C        0.3031040     0.1485790    -0.2066970
  C       -0.7706010     1.0561020    -0.0842670
  C        0.0806060    -1.2405240    -0.1151990
  C       -2.0579110     0.5582020     0.1415980
  C       -1.2176000    -1.6989120     0.1341680
  C       -2.2850370    -0.8120180     0.2620550
  C       -0.5406870     2.5426280    -0.1993030
  C        1.2072340    -2.2197810    -0.3093320
  C        2.5023020     0.6131830     0.7097540
  H       -2.8885640     1.2560570     0.2350690
  H       -1.3937740    -2.7714120     0.2029680
  H        1.5916390     1.5501200    -0.8540680
  H       -3.2895990    -1.1861590     0.4450020
  H        0.2351210     2.8885850     0.4923550
  H       -0.2380210     2.8365620    -1.2118290
  H       -1.4595390     3.0868260     0.0338520
  H        1.8071906    -1.8879605    -0.8813554
  H        1.7264620    -2.4417900     0.6300600
  H        0.8237630    -3.1662910    -0.7010550
  H        2.0935470     1.1833990     1.5571020
  H        3.4676080     1.0418550     0.4271840
  H        2.6734620    -0.4116070     1.0419720
units angstrom
no_reorient  #important for SAPT in psi4, default
symmetry c1  #important for SAPT in psi4, default
}

set PROPERTIES_ORIGIN ["COM"]
properties('MP2/aug-cc-pvtz', properties = ['dipole'])
--------------------------------------------------------------------------

    Molecular point group: c1
  Charge       = 0
  Multiplicity = 1
  Basis Set: AUG-CC-PVTZ
    Blend: AUG-CC-PVTZ
  Basis Set: (AUG-CC-PVTZ AUX)
    Blend: AUG-CC-PVTZ-JKFIT

    Orbital Energies [Eh]
    ---------------------

    Doubly Occupied:

       1A    -15.553899     2A    -11.257954     3A    -11.249874
       4A    -11.235591     5A    -11.230891     6A    -11.228241
       7A    -11.224946     8A    -11.223663     9A    -11.222199
      10A    -11.190995    11A     -1.226714    12A     -1.130747
      13A     -1.058501    14A     -1.016147    15A     -0.953436
      16A     -0.928239    17A     -0.895544    18A     -0.794678
      19A     -0.785515    20A     -0.692348    21A     -0.665456
      22A     -0.629430    23A     -0.610325    24A     -0.592331
      25A     -0.581581    26A     -0.575555    27A     -0.567014
      28A     -0.561200    29A     -0.555482    30A     -0.534188
      31A     -0.526669    32A     -0.485410    33A     -0.478009
      34A     -0.471213    35A     -0.403287    36A     -0.316814
      37A     -0.302380

  @DF-RHF Final Energy:  -402.92800546426162

   => Energetics <=

    Nuclear Repulsion Energy =            522.2399762364196931
    One-Electron Energy =               -1580.4230291592916728
    Two-Electron Energy =                 655.2550474586103064
    Total Energy =                       -402.9280054642615596
  Basis Set: (AUG-CC-PVTZ AUX)
    Blend: AUG-CC-PVTZ-RI
    Molecular point group: c1

    Geometry (in Angstrom), charge = 0, multiplicity = 1:

       Center              X                  Y                   Z               Mass
    ------------   -----------------  -----------------  -----------------  -----------------
         N            1.666605336998     0.624575717645    -0.460877035858    14.003074004430
         C            0.342871336998     0.164192717645    -0.198175035858    12.000000000000
         C           -0.730833663002     1.071715717645    -0.075745035858    12.000000000000
         C            0.120373336998    -1.224910282355    -0.106677035858    12.000000000000
         C           -2.018143663002     0.573815717645     0.150119964142    12.000000000000
         C           -1.177832663002    -1.683298282355     0.142689964142    12.000000000000
         C           -2.245269663002    -0.796404282355     0.270576964142    12.000000000000
         C           -0.500919663002     2.558241717645    -0.190781035858    12.000000000000
         C            1.247001336998    -2.204167282355    -0.300810035858    12.000000000000
         C            2.542069336998     0.628796717645     0.718275964142    12.000000000000
         H           -2.848796663002     1.271670717645     0.243590964142     1.007825032230
         H           -1.354006663002    -2.755798282355     0.211489964142     1.007825032230
         H            1.631406336998     1.565733717645    -0.845546035858     1.007825032230
         H           -3.249831663002    -1.170545282355     0.453523964142     1.007825032230
         H            0.274888336998     2.904198717645     0.500876964142     1.007825032230
         H           -0.198253663002     2.852175717645    -1.203307035858     1.007825032230
         H           -1.419771663002     3.102439717645     0.042373964142     1.007825032230
         H            1.846957936998    -1.872346782355    -0.872833435858     1.007825032230
         H            1.766229336998    -2.426176282355     0.638581964142     1.007825032230
         H            0.863530336998    -3.150677282355    -0.692533035858     1.007825032230
         H            2.133314336998     1.199012717645     1.565623964142     1.007825032230
         H            3.507375336998     1.057468717645     0.435705964142     1.007825032230
         H            2.713229336998    -0.395993282355     1.050493964142     1.007825032230

  Basis Set: AUG-CC-PVTZ
    Blend: AUG-CC-PVTZ
  Basis Set: (AUG-CC-PVTZ AUX)
    Blend: AUG-CC-PVTZ-JKFIT
	 Reference Energy          =    -402.9280054642616165 [Eh]
	 Singles Energy            =      -0.0000000000000000 [Eh]
	 Same-Spin Energy          =      -0.4477561265367361 [Eh]
	 Opposite-Spin Energy      =      -1.4650181338747688 [Eh]
	 Correlation Energy        =      -1.9127742604115048 [Eh]
	 Total Energy              =    -404.8407797246730979 [Eh]

	 ================> DF-SCS-MP2 Energies <==================
	-----------------------------------------------------------
	 SCS Same-Spin Scale       =       0.3333333333333333 [-]
	 SCS Opposite-Spin Scale   =       1.2000000000000000 [-]
	 SCS Same-Spin Energy      =      -0.1492520421789120 [Eh]
	 SCS Opposite-Spin Energy  =      -1.7580217606497224 [Eh]
	 SCS Correlation Energy    =      -1.9072738028286345 [Eh]
	 SCS Total Energy          =    -404.8352792670902431 [Eh]
	-----------------------------------------------------------

  Dipole Moment: [D]
     X:     0.5818      Y:     1.0357      Z:     0.5001     Total:     1.2889

*** Psi4 exiting successfully. Buy a developer a beer!
