                               Psi4 1.4a3.dev225

  ==> Input File <==

--------------------------------------------------------------------------
#psi4
#
memory 32 gb

molecule  {
0 1
  N        1.6268380     0.6089620    -0.4693990
  C        0.2825058     0.1636718    -0.3028929
  C       -0.7706010     1.0561020    -0.0842670
  C        0.0806060    -1.2405240    -0.1151990
  C       -2.0579110     0.5582020     0.1415980
  C       -1.2176000    -1.6989120     0.1341680
  C       -2.2850370    -0.8120180     0.2620550
  C       -0.5406870     2.5426280    -0.1993030
  C        1.2072340    -2.2197810    -0.3093320
  C        2.5023020     0.6131830     0.7097540
  H       -2.8885640     1.2560570     0.2350690
  H       -1.3937740    -2.7714120     0.2029680
  H        1.5916390     1.5501200    -0.8540680
  H       -3.2895990    -1.1861590     0.4450020
  H        0.2351210     2.8885850     0.4923550
  H       -0.2380210     2.8365620    -1.2118290
  H       -1.4595390     3.0868260     0.0338520
  H        1.9415750    -1.8136360    -1.0094830
  H        1.7264620    -2.4417900     0.6300600
  H        0.8237630    -3.1662910    -0.7010550
  H        2.0935470     1.1833990     1.5571020
  H        3.4676080     1.0418550     0.4271840
  H        2.6734620    -0.4116070     1.0419720
units angstrom
no_reorient  #important for SAPT in psi4, default
symmetry c1  #important for SAPT in psi4, default
}

set PROPERTIES_ORIGIN ["COM"]
properties('MP2/aug-cc-pvtz', properties = ['dipole'])
--------------------------------------------------------------------------

    Molecular point group: c1
  Charge       = 0
  Multiplicity = 1
  Basis Set: AUG-CC-PVTZ
    Blend: AUG-CC-PVTZ
  Basis Set: (AUG-CC-PVTZ AUX)
    Blend: AUG-CC-PVTZ-JKFIT

    Orbital Energies [Eh]
    ---------------------

    Doubly Occupied:

       1A    -15.552481     2A    -11.259277     3A    -11.251079
       4A    -11.234623     5A    -11.234539     6A    -11.227763
       7A    -11.225654     8A    -11.224495     9A    -11.222897
      10A    -11.214531    11A     -1.224719    12A     -1.130381
      13A     -1.054312    14A     -1.012424    15A     -0.946423
      16A     -0.922301    17A     -0.892299    18A     -0.792074
      19A     -0.782362    20A     -0.689770    21A     -0.661390
      22A     -0.627155    23A     -0.606046    24A     -0.592023
      25A     -0.578019    26A     -0.568923    27A     -0.565250
      28A     -0.556980    29A     -0.552664    30A     -0.530247
      31A     -0.521109    32A     -0.486590    33A     -0.475546
      34A     -0.469685    35A     -0.401565    36A     -0.317096
      37A     -0.301675

  @DF-RHF Final Energy:  -402.95777456545528

   => Energetics <=

    Nuclear Repulsion Energy =            520.9948754675435794
    One-Electron Energy =               -1578.0925673124463628
    Two-Electron Energy =                 654.1399172794474453
    Total Energy =                       -402.9577745654553382
  Basis Set: (AUG-CC-PVTZ AUX)
    Blend: AUG-CC-PVTZ-RI
    Molecular point group: c1

    Geometry (in Angstrom), charge = 0, multiplicity = 1:

       Center              X                  Y                   Z               Mass
    ------------   -----------------  -----------------  -----------------  -----------------
         N            1.667432416704     0.622680746536    -0.451377143863    14.003074004430
         C            0.323100216704     0.177390546536    -0.284871043863    12.000000000000
         C           -0.730006583296     1.069820746536    -0.066245143863    12.000000000000
         C            0.121200416704    -1.226805253464    -0.097177143863    12.000000000000
         C           -2.017316583296     0.571920746536     0.159619856137    12.000000000000
         C           -1.177005583296    -1.685193253464     0.152189856137    12.000000000000
         C           -2.244442583296    -0.798299253464     0.280076856137    12.000000000000
         C           -0.500092583296     2.556346746536    -0.181281143863    12.000000000000
         C            1.247828416704    -2.206062253464    -0.291310143863    12.000000000000
         C            2.542896416704     0.626901746536     0.727775856137    12.000000000000
         H           -2.847969583296     1.269775746536     0.253090856137     1.007825032230
         H           -1.353179583296    -2.757693253464     0.220989856137     1.007825032230
         H            1.632233416704     1.563838746536    -0.836046143863     1.007825032230
         H           -3.249004583296    -1.172440253464     0.463023856137     1.007825032230
         H            0.275715416704     2.902303746536     0.510376856137     1.007825032230
         H           -0.197426583296     2.850280746536    -1.193807143863     1.007825032230
         H           -1.418944583296     3.100544746536     0.051873856137     1.007825032230
         H            1.982169416704    -1.799917253464    -0.991461143863     1.007825032230
         H            1.767056416704    -2.428071253464     0.648081856137     1.007825032230
         H            0.864357416704    -3.152572253464    -0.683033143863     1.007825032230
         H            2.134141416704     1.197117746536     1.575123856137     1.007825032230
         H            3.508202416704     1.055573746536     0.445205856137     1.007825032230
         H            2.714056416704    -0.397888253464     1.059993856137     1.007825032230

  Basis Set: AUG-CC-PVTZ
    Blend: AUG-CC-PVTZ
  Basis Set: (AUG-CC-PVTZ AUX)
    Blend: AUG-CC-PVTZ-JKFIT
	 Reference Energy          =    -402.9577745654552814 [Eh]
	 Singles Energy            =      -0.0000000000000000 [Eh]
	 Same-Spin Energy          =      -0.4480643486835963 [Eh]
	 Opposite-Spin Energy      =      -1.4660981398467570 [Eh]
	 Correlation Energy        =      -1.9141624885303532 [Eh]
	 Total Energy              =    -404.8719370539856186 [Eh]

	 ================> DF-SCS-MP2 Energies <==================
	-----------------------------------------------------------
	 SCS Same-Spin Scale       =       0.3333333333333333 [-]
	 SCS Opposite-Spin Scale   =       1.2000000000000000 [-]
	 SCS Same-Spin Energy      =      -0.1493547828945321 [Eh]
	 SCS Opposite-Spin Energy  =      -1.7593177678161083 [Eh]
	 SCS Correlation Energy    =      -1.9086725507106403 [Eh]
	 SCS Total Energy          =    -404.8664471161659435 [Eh]
	-----------------------------------------------------------

  Dipole Moment: [D]
     X:     0.5372      Y:     1.0463      Z:     0.5418     Total:     1.2949

*** Psi4 exiting successfully. Buy a developer a beer!
