                               Psi4 1.4a3.dev225

  ==> Input File <==

--------------------------------------------------------------------------
#psi4
#
memory 32 gb

molecule  {
0 1
  N        1.6268380     0.6089620    -0.4693990
  C        0.3031040     0.1485790    -0.2066970
  C       -0.7706010     1.0561020    -0.0842670
  C        0.0806060    -1.2405240    -0.1151990
  C       -2.0579110     0.5582020     0.1415980
  C       -1.2176000    -1.6989120     0.1341680
  C       -2.2850370    -0.8120180     0.2620550
  C       -0.5406870     2.5426280    -0.1993030
  C        1.2072340    -2.2197810    -0.3093320
  C        2.5023020     0.6131830     0.7097540
  H       -2.8885640     1.2560570     0.2350690
  H       -1.3937740    -2.7714120     0.2029680
  H        1.5916390     1.5501200    -0.8540680
  H       -3.2895990    -1.1861590     0.4450020
  H        0.2351210     2.8885850     0.4923550
  H       -0.2380210     2.8365620    -1.2118290
  H       -1.4595390     3.0868260     0.0338520
  H        1.9415750    -1.8136360    -1.0094830
  H        1.7264620    -2.4417900     0.6300600
  H        0.8237630    -3.1662910    -0.7010550
  H        2.0935470     1.1833990     1.5571020
  H        3.4676080     1.0418550     0.4271840
  H        2.6420797    -0.2237112     0.9810596
units angstrom
no_reorient  #important for SAPT in psi4, default
symmetry c1  #important for SAPT in psi4, default
}

set PROPERTIES_ORIGIN ["COM"]
properties('MP2/aug-cc-pvtz', properties = ['dipole'])
--------------------------------------------------------------------------

    Molecular point group: c1
  Charge       = 0
  Multiplicity = 1
  Basis Set: AUG-CC-PVTZ
    Blend: AUG-CC-PVTZ
  Basis Set: (AUG-CC-PVTZ AUX)
    Blend: AUG-CC-PVTZ-JKFIT

    Orbital Energies [Eh]
    ---------------------

    Doubly Occupied:

       1A    -15.551831     2A    -11.257865     3A    -11.235635
       4A    -11.231912     5A    -11.227932     6A    -11.225340
       7A    -11.225246     8A    -11.224104     9A    -11.222926
      10A    -11.214440    11A     -1.227100    12A     -1.131441
      13A     -1.054324    14A     -1.014685    15A     -0.956629
      16A     -0.923088    17A     -0.906682    18A     -0.796219
      19A     -0.781593    20A     -0.695001    21A     -0.660307
      22A     -0.630734    23A     -0.610560    24A     -0.600702
      25A     -0.579273    26A     -0.572090    27A     -0.566278
      28A     -0.557159    29A     -0.552643    30A     -0.541222
      31A     -0.521457    32A     -0.486931    33A     -0.477080
      34A     -0.470896    35A     -0.402528    36A     -0.316973
      37A     -0.302478

  @DF-RHF Final Energy:  -402.92735269595943

   => Energetics <=

    Nuclear Repulsion Energy =            522.2171768511827850
    One-Electron Energy =               -1580.3824531619150093
    Two-Electron Energy =                 655.2379236147728534
    Total Energy =                       -402.9273526959593710
  Basis Set: (AUG-CC-PVTZ AUX)
    Blend: AUG-CC-PVTZ-RI
    Molecular point group: c1

    Geometry (in Angstrom), charge = 0, multiplicity = 1:

       Center              X                  Y                   Z               Mass
    ------------   -----------------  -----------------  -----------------  -----------------
         N            1.665836984614     0.622619664393    -0.459466876894    14.003074004430
         C            0.342102984614     0.162236664393    -0.196764876894    12.000000000000
         C           -0.731602015386     1.069759664393    -0.074334876894    12.000000000000
         C            0.119604984614    -1.226866335607    -0.105266876894    12.000000000000
         C           -2.018912015386     0.571859664393     0.151530123106    12.000000000000
         C           -1.178601015386    -1.685254335607     0.144100123106    12.000000000000
         C           -2.246038015386    -0.798360335607     0.271987123106    12.000000000000
         C           -0.501688015386     2.556285664393    -0.189370876894    12.000000000000
         C            1.246232984614    -2.206123335607    -0.299399876894    12.000000000000
         C            2.541300984614     0.626840664393     0.719686123106    12.000000000000
         H           -2.849565015386     1.269714664393     0.245001123106     1.007825032230
         H           -1.354775015386    -2.757754335607     0.212900123106     1.007825032230
         H            1.630637984614     1.563777664393    -0.844135876894     1.007825032230
         H           -3.250600015386    -1.172501335607     0.454934123106     1.007825032230
         H            0.274119984614     2.902242664393     0.502287123106     1.007825032230
         H           -0.199022015386     2.850219664393    -1.201896876894     1.007825032230
         H           -1.420540015386     3.100483664393     0.043784123106     1.007825032230
         H            1.980573984614    -1.799978335607    -0.999550876894     1.007825032230
         H            1.765460984614    -2.428132335607     0.639992123106     1.007825032230
         H            0.862761984614    -3.152633335607    -0.691122876894     1.007825032230
         H            2.132545984614     1.197056664393     1.567034123106     1.007825032230
         H            3.506606984614     1.055512664393     0.437116123106     1.007825032230
         H            2.681078684614    -0.210053535607     0.990991723106     1.007825032230

  Basis Set: AUG-CC-PVTZ
    Blend: AUG-CC-PVTZ
  Basis Set: (AUG-CC-PVTZ AUX)
    Blend: AUG-CC-PVTZ-JKFIT
	 Reference Energy          =    -402.9273526959594278 [Eh]
	 Singles Energy            =      -0.0000000000000000 [Eh]
	 Same-Spin Energy          =      -0.4478251302140336 [Eh]
	 Opposite-Spin Energy      =      -1.4650793020710102 [Eh]
	 Correlation Energy        =      -1.9129044322850439 [Eh]
	 Total Energy              =    -404.8402571282444455 [Eh]

	 ================> DF-SCS-MP2 Energies <==================
	-----------------------------------------------------------
	 SCS Same-Spin Scale       =       0.3333333333333333 [-]
	 SCS Opposite-Spin Scale   =       1.2000000000000000 [-]
	 SCS Same-Spin Energy      =      -0.1492750434046779 [Eh]
	 SCS Opposite-Spin Energy  =      -1.7580951624852121 [Eh]
	 SCS Correlation Energy    =      -1.9073702058898900 [Eh]
	 SCS Total Energy          =    -404.8347229018493181 [Eh]
	-----------------------------------------------------------

  Dipole Moment: [D]
     X:     0.5789      Y:     1.0263      Z:     0.5606     Total:     1.3048

*** Psi4 exiting successfully. Buy a developer a beer!
