                               Psi4 1.4a3.dev225

  ==> Input File <==

--------------------------------------------------------------------------
#psi4
#
memory 32 gb

molecule  {
0 1
  N        1.6268380     0.6089620    -0.4693990
  C        0.3031040     0.1485790    -0.2066970
  C       -0.7706010     1.0561020    -0.0842670
  C        0.0806060    -1.2405240    -0.1151990
  C       -2.0579110     0.5582020     0.1415980
  C       -1.2176000    -1.6989120     0.1341680
  C       -2.2850370    -0.8120180     0.2620550
  C       -0.5406870     2.5426280    -0.1993030
  C        1.2072340    -2.2197810    -0.3093320
  C        2.5023020     0.6131830     0.7097540
  H       -2.8885640     1.2560570     0.2350690
  H       -1.3937740    -2.7714120     0.2029680
  H        1.5916390     1.5501200    -0.8540680
  H       -3.2895990    -1.1861590     0.4450020
  H        0.2351210     2.8885850     0.4923550
  H       -0.2380210     2.8365620    -1.2118290
  H       -1.4595390     3.0868260     0.0338520
  H        2.0759594    -1.7393115    -1.1376106
  H        1.7264620    -2.4417900     0.6300600
  H        0.8237630    -3.1662910    -0.7010550
  H        2.0935470     1.1833990     1.5571020
  H        3.4676080     1.0418550     0.4271840
  H        2.6734620    -0.4116070     1.0419720
units angstrom
no_reorient  #important for SAPT in psi4, default
symmetry c1  #important for SAPT in psi4, default
}

set PROPERTIES_ORIGIN ["COM"]
properties('MP2/aug-cc-pvtz', properties = ['dipole'])
--------------------------------------------------------------------------

    Molecular point group: c1
  Charge       = 0
  Multiplicity = 1
  Basis Set: AUG-CC-PVTZ
    Blend: AUG-CC-PVTZ
  Basis Set: (AUG-CC-PVTZ AUX)
    Blend: AUG-CC-PVTZ-JKFIT

    Orbital Energies [Eh]
    ---------------------

    Doubly Occupied:

       1A    -15.553709     2A    -11.259001     3A    -11.249369
       4A    -11.236501     5A    -11.235134     6A    -11.233786
       7A    -11.228698     8A    -11.226285     9A    -11.225349
      10A    -11.224313    11A     -1.226548    12A     -1.131537
      13A     -1.053649    14A     -1.011351    15A     -0.943226
      16A     -0.918292    17A     -0.889089    18A     -0.795152
      19A     -0.779188    20A     -0.693038    21A     -0.658967
      22A     -0.630075    23A     -0.601752    24A     -0.591492
      25A     -0.579458    26A     -0.569880    27A     -0.564625
      28A     -0.557492    29A     -0.544952    30A     -0.529570
      31A     -0.502780    32A     -0.485290    33A     -0.475331
      34A     -0.465383    35A     -0.400611    36A     -0.317695
      37A     -0.303432

  @DF-RHF Final Energy:  -402.94087288111712

   => Energetics <=

    Nuclear Repulsion Energy =            520.5870678922276511
    One-Electron Energy =               -1577.2718832368293533
    Two-Electron Energy =                 653.7439424634845864
    Total Energy =                       -402.9408728811171159
  Basis Set: (AUG-CC-PVTZ AUX)
    Blend: AUG-CC-PVTZ-RI
    Molecular point group: c1

    Geometry (in Angstrom), charge = 0, multiplicity = 1:

       Center              X                  Y                   Z               Mass
    ------------   -----------------  -----------------  -----------------  -----------------
         N            1.664600434688     0.623466858568    -0.458965479746    14.003074004430
         C            0.340866434688     0.163083858568    -0.196263479746    12.000000000000
         C           -0.732838565312     1.070606858568    -0.073833479746    12.000000000000
         C            0.118368434688    -1.226019141432    -0.104765479746    12.000000000000
         C           -2.020148565312     0.572706858568     0.152031520254    12.000000000000
         C           -1.179837565312    -1.684407141432     0.144601520254    12.000000000000
         C           -2.247274565312    -0.797513141432     0.272488520254    12.000000000000
         C           -0.502924565312     2.557132858568    -0.188869479746    12.000000000000
         C            1.244996434688    -2.205276141432    -0.298898479746    12.000000000000
         C            2.540064434688     0.627687858568     0.720187520254    12.000000000000
         H           -2.850801565312     1.270561858568     0.245502520254     1.007825032230
         H           -1.356011565312    -2.756907141432     0.213401520254     1.007825032230
         H            1.629401434688     1.564624858568    -0.843634479746     1.007825032230
         H           -3.251836565312    -1.171654141432     0.455435520254     1.007825032230
         H            0.272883434688     2.903089858568     0.502788520254     1.007825032230
         H           -0.200258565312     2.851066858568    -1.201395479746     1.007825032230
         H           -1.421776565312     3.101330858568     0.044285520254     1.007825032230
         H            2.113721834688    -1.724806641432    -1.127177079746     1.007825032230
         H            1.764224434688    -2.427285141432     0.640493520254     1.007825032230
         H            0.861525434688    -3.151786141432    -0.690621479746     1.007825032230
         H            2.131309434688     1.197903858568     1.567535520254     1.007825032230
         H            3.505370434688     1.056359858568     0.437617520254     1.007825032230
         H            2.711224434688    -0.397102141432     1.052405520254     1.007825032230

  Basis Set: AUG-CC-PVTZ
    Blend: AUG-CC-PVTZ
  Basis Set: (AUG-CC-PVTZ AUX)
    Blend: AUG-CC-PVTZ-JKFIT
	 Reference Energy          =    -402.9408728811171159 [Eh]
	 Singles Energy            =      -0.0000000000000000 [Eh]
	 Same-Spin Energy          =      -0.4484285795792137 [Eh]
	 Opposite-Spin Energy      =      -1.4679526735778099 [Eh]
	 Correlation Energy        =      -1.9163812531570237 [Eh]
	 Total Energy              =    -404.8572541342741147 [Eh]

	 ================> DF-SCS-MP2 Energies <==================
	-----------------------------------------------------------
	 SCS Same-Spin Scale       =       0.3333333333333333 [-]
	 SCS Opposite-Spin Scale   =       1.2000000000000000 [-]
	 SCS Same-Spin Energy      =      -0.1494761931930712 [Eh]
	 SCS Opposite-Spin Energy  =      -1.7615432082933717 [Eh]
	 SCS Correlation Energy    =      -1.9110194014864430 [Eh]
	 SCS Total Energy          =    -404.8518922826035578 [Eh]
	-----------------------------------------------------------

  Dipole Moment: [D]
     X:     0.4536      Y:     1.1235      Z:     0.5698     Total:     1.3389

*** Psi4 exiting successfully. Buy a developer a beer!
