                               Psi4 1.4a3.dev225

  ==> Input File <==

--------------------------------------------------------------------------
#psi4
#
memory 32 gb

molecule  {
0 1
  N        1.6268380     0.6089620    -0.4693990
  C        0.3031040     0.1485790    -0.2066970
  C       -0.7706010     1.0561020    -0.0842670
  C        0.0806060    -1.2405240    -0.1151990
  C       -1.9172063     0.5253171     0.1212205
  C       -1.2176000    -1.6989120     0.1341680
  C       -2.2850370    -0.8120180     0.2620550
  C       -0.5406870     2.5426280    -0.1993030
  C        1.2072340    -2.2197810    -0.3093320
  C        2.5023020     0.6131830     0.7097540
  H       -2.8885640     1.2560570     0.2350690
  H       -1.3937740    -2.7714120     0.2029680
  H        1.5916390     1.5501200    -0.8540680
  H       -3.2895990    -1.1861590     0.4450020
  H        0.2351210     2.8885850     0.4923550
  H       -0.2380210     2.8365620    -1.2118290
  H       -1.4595390     3.0868260     0.0338520
  H        1.9415750    -1.8136360    -1.0094830
  H        1.7264620    -2.4417900     0.6300600
  H        0.8237630    -3.1662910    -0.7010550
  H        2.0935470     1.1833990     1.5571020
  H        3.4676080     1.0418550     0.4271840
  H        2.6734620    -0.4116070     1.0419720
units angstrom
no_reorient  #important for SAPT in psi4, default
symmetry c1  #important for SAPT in psi4, default
}

set PROPERTIES_ORIGIN ["COM"]
properties('MP2/aug-cc-pvtz', properties = ['dipole'])
--------------------------------------------------------------------------

    Molecular point group: c1
  Charge       = 0
  Multiplicity = 1
  Basis Set: AUG-CC-PVTZ
    Blend: AUG-CC-PVTZ
  Basis Set: (AUG-CC-PVTZ AUX)
    Blend: AUG-CC-PVTZ-JKFIT

    Orbital Energies [Eh]
    ---------------------

    Doubly Occupied:

       1A    -15.554254     2A    -11.260062     3A    -11.250338
       4A    -11.230001     5A    -11.228341     6A    -11.225148
       7A    -11.224433     8A    -11.223290     9A    -11.221623
      10A    -11.213354    11A     -1.229225    12A     -1.144748
      13A     -1.062458    14A     -1.011792    15A     -0.946779
      16A     -0.927187    17A     -0.891719    18A     -0.805169
      19A     -0.773287    20A     -0.695520    21A     -0.656206
      22A     -0.636587    23A     -0.603318    24A     -0.593190
      25A     -0.576093    26A     -0.569533    27A     -0.566592
      28A     -0.557887    29A     -0.544010    30A     -0.531020
      31A     -0.520252    32A     -0.489092    33A     -0.481949
      34A     -0.457531    35A     -0.400057    36A     -0.331656
      37A     -0.299354

  @DF-RHF Final Energy:  -402.93455220403700

   => Energetics <=

    Nuclear Repulsion Energy =            524.1757135039536024
    One-Electron Energy =               -1584.3544190109219016
    Two-Electron Energy =                 657.2441533029312950
    Total Energy =                       -402.9345522040370042
  Basis Set: (AUG-CC-PVTZ AUX)
    Blend: AUG-CC-PVTZ-RI
    Molecular point group: c1

    Geometry (in Angstrom), charge = 0, multiplicity = 1:

       Center              X                  Y                   Z               Mass
    ------------   -----------------  -----------------  -----------------  -----------------
         N            1.653105503017     0.626942122908    -0.458111329502    14.003074004430
         C            0.329371503017     0.166559122908    -0.195409329502    12.000000000000
         C           -0.744333496983     1.074082122908    -0.072979329502    12.000000000000
         C            0.106873503017    -1.222543877092    -0.103911329502    12.000000000000
         C           -1.890938796983     0.543297222908     0.132508170498    12.000000000000
         C           -1.191332496983    -1.680931877092     0.145455670498    12.000000000000
         C           -2.258769496983    -0.794037877092     0.273342670498    12.000000000000
         C           -0.514419496983     2.560608122908    -0.188015329502    12.000000000000
         C            1.233501503017    -2.201800877092    -0.298044329502    12.000000000000
         C            2.528569503017     0.631163122908     0.721041670498    12.000000000000
         H           -2.862296496983     1.274037122908     0.246356670498     1.007825032230
         H           -1.367506496983    -2.753431877092     0.214255670498     1.007825032230
         H            1.617906503017     1.568100122908    -0.842780329502     1.007825032230
         H           -3.263331496983    -1.168178877092     0.456289670498     1.007825032230
         H            0.261388503017     2.906565122908     0.503642670498     1.007825032230
         H           -0.211753496983     2.854542122908    -1.200541329502     1.007825032230
         H           -1.433271496983     3.104806122908     0.045139670498     1.007825032230
         H            1.967842503017    -1.795655877092    -0.998195329502     1.007825032230
         H            1.752729503017    -2.423809877092     0.641347670498     1.007825032230
         H            0.850030503017    -3.148310877092    -0.689767329502     1.007825032230
         H            2.119814503017     1.201379122908     1.568389670498     1.007825032230
         H            3.493875503017     1.059835122908     0.438471670498     1.007825032230
         H            2.699729503017    -0.393626877092     1.053259670498     1.007825032230

  Basis Set: AUG-CC-PVTZ
    Blend: AUG-CC-PVTZ
  Basis Set: (AUG-CC-PVTZ AUX)
    Blend: AUG-CC-PVTZ-JKFIT
	 Reference Energy          =    -402.9345522040370042 [Eh]
	 Singles Energy            =      -0.0000000000000000 [Eh]
	 Same-Spin Energy          =      -0.4484211086409896 [Eh]
	 Opposite-Spin Energy      =      -1.4669251704133504 [Eh]
	 Correlation Energy        =      -1.9153462790543399 [Eh]
	 Total Energy              =    -404.8498984830913514 [Eh]

	 ================> DF-SCS-MP2 Energies <==================
	-----------------------------------------------------------
	 SCS Same-Spin Scale       =       0.3333333333333333 [-]
	 SCS Opposite-Spin Scale   =       1.2000000000000000 [-]
	 SCS Same-Spin Energy      =      -0.1494737028803299 [Eh]
	 SCS Opposite-Spin Energy  =      -1.7603102044960204 [Eh]
	 SCS Correlation Energy    =      -1.9097839073763503 [Eh]
	 SCS Total Energy          =    -404.8443361114133268 [Eh]
	-----------------------------------------------------------

  Dipole Moment: [D]
     X:     0.6102      Y:     1.0118      Z:     0.5119     Total:     1.2877

*** Psi4 exiting successfully. Buy a developer a beer!
