                               Psi4 1.4a3.dev225

  ==> Input File <==

--------------------------------------------------------------------------
#psi4
#
memory 32 gb

molecule  {
0 1
  N        1.6268380     0.6089620    -0.4693990
  C        0.3031040     0.1485790    -0.2066970
  C       -0.7706010     1.0561020    -0.0842670
  C        0.0806060    -1.2405240    -0.1151990
  C       -2.0579110     0.5582020     0.1415980
  C       -1.2176000    -1.6989120     0.1341680
  C       -2.2850370    -0.8120180     0.2620550
  C       -0.5406870     2.5426280    -0.1993030
  C        1.2072340    -2.2197810    -0.3093320
  C        2.5023020     0.6131830     0.7097540
  H       -2.8885640     1.2560570     0.2350690
  H       -1.3937740    -2.7714120     0.2029680
  H        1.5916390     1.5501200    -0.8540680
  H       -3.2895990    -1.1861590     0.4450020
  H        0.2351210     2.8885850     0.4923550
  H       -0.2104284     2.8633585    -1.3041361
  H       -1.4595390     3.0868260     0.0338520
  H        1.9415750    -1.8136360    -1.0094830
  H        1.7264620    -2.4417900     0.6300600
  H        0.8237630    -3.1662910    -0.7010550
  H        2.0935470     1.1833990     1.5571020
  H        3.4676080     1.0418550     0.4271840
  H        2.6734620    -0.4116070     1.0419720
units angstrom
no_reorient  #important for SAPT in psi4, default
symmetry c1  #important for SAPT in psi4, default
}

set PROPERTIES_ORIGIN ["COM"]
properties('MP2/aug-cc-pvtz', properties = ['dipole'])
--------------------------------------------------------------------------

    Molecular point group: c1
  Charge       = 0
  Multiplicity = 1
  Basis Set: AUG-CC-PVTZ
    Blend: AUG-CC-PVTZ
  Basis Set: (AUG-CC-PVTZ AUX)
    Blend: AUG-CC-PVTZ-JKFIT

    Orbital Energies [Eh]
    ---------------------

    Doubly Occupied:

       1A    -15.553631     2A    -11.258806     3A    -11.249742
       4A    -11.240289     5A    -11.236750     6A    -11.232382
       7A    -11.226124     8A    -11.224812     9A    -11.223596
      10A    -11.214347    11A     -1.226580    12A     -1.131227
      13A     -1.053627    14A     -1.011910    15A     -0.943309
      16A     -0.919634    17A     -0.891900    18A     -0.793689
      19A     -0.781362    20A     -0.692287    21A     -0.661205
      22A     -0.629761    23A     -0.602269    24A     -0.589017
      25A     -0.579098    26A     -0.569086    27A     -0.562137
      28A     -0.553493    29A     -0.547192    30A     -0.530736
      31A     -0.520691    32A     -0.485823    33A     -0.476822
      34A     -0.469910    35A     -0.402541    36A     -0.317202
      37A     -0.302940

  @DF-RHF Final Energy:  -402.95539465955198

   => Energetics <=

    Nuclear Repulsion Energy =            520.8926108660837144
    One-Electron Energy =               -1577.8841579121740324
    Two-Electron Energy =                 654.0361523865383333
    Total Energy =                       -402.9553946595519847
  Basis Set: (AUG-CC-PVTZ AUX)
    Blend: AUG-CC-PVTZ-RI
    Molecular point group: c1

    Geometry (in Angstrom), charge = 0, multiplicity = 1:

       Center              X                  Y                   Z               Mass
    ------------   -----------------  -----------------  -----------------  -----------------
         N            1.665397056641     0.623821397476    -0.459232685624    14.003074004430
         C            0.341663056641     0.163438397476    -0.196530685624    12.000000000000
         C           -0.732041943359     1.070961397476    -0.074100685624    12.000000000000
         C            0.119165056641    -1.225664602524    -0.105032685624    12.000000000000
         C           -2.019351943359     0.573061397476     0.151764314376    12.000000000000
         C           -1.179040943359    -1.684052602524     0.144334314376    12.000000000000
         C           -2.246477943359    -0.797158602524     0.272221314376    12.000000000000
         C           -0.502127943359     2.557487397476    -0.189136685624    12.000000000000
         C            1.245793056641    -2.204921602524    -0.299165685624    12.000000000000
         C            2.540861056641     0.628042397476     0.719920314376    12.000000000000
         H           -2.850004943359     1.270916397476     0.245235314376     1.007825032230
         H           -1.355214943359    -2.756552602524     0.213134314376     1.007825032230
         H            1.630198056641     1.564979397476    -0.843901685624     1.007825032230
         H           -3.251039943359    -1.171299602524     0.455168314376     1.007825032230
         H            0.273680056641     2.903444397476     0.502521314376     1.007825032230
         H           -0.171869343359     2.878217897476    -1.293969785624     1.007825032230
         H           -1.420979943359     3.101685397476     0.044018314376     1.007825032230
         H            1.980134056641    -1.798776602524    -0.999316685624     1.007825032230
         H            1.765021056641    -2.426930602524     0.640226314376     1.007825032230
         H            0.862322056641    -3.151431602524    -0.690888685624     1.007825032230
         H            2.132106056641     1.198258397476     1.567268314376     1.007825032230
         H            3.506167056641     1.056714397476     0.437350314376     1.007825032230
         H            2.712021056641    -0.396747602524     1.052138314376     1.007825032230

  Basis Set: AUG-CC-PVTZ
    Blend: AUG-CC-PVTZ
  Basis Set: (AUG-CC-PVTZ AUX)
    Blend: AUG-CC-PVTZ-JKFIT
	 Reference Energy          =    -402.9553946595519847 [Eh]
	 Singles Energy            =      -0.0000000000000000 [Eh]
	 Same-Spin Energy          =      -0.4480220155012772 [Eh]
	 Opposite-Spin Energy      =      -1.4666147510645808 [Eh]
	 Correlation Energy        =      -1.9146367665658581 [Eh]
	 Total Energy              =    -404.8700314261178619 [Eh]

	 ================> DF-SCS-MP2 Energies <==================
	-----------------------------------------------------------
	 SCS Same-Spin Scale       =       0.3333333333333333 [-]
	 SCS Opposite-Spin Scale   =       1.2000000000000000 [-]
	 SCS Same-Spin Energy      =      -0.1493406718337591 [Eh]
	 SCS Opposite-Spin Energy  =      -1.7599377012774970 [Eh]
	 SCS Correlation Energy    =      -1.9092783731112561 [Eh]
	 SCS Total Energy          =    -404.8646730326632337 [Eh]
	-----------------------------------------------------------

  Dipole Moment: [D]
     X:     0.5166      Y:     1.0206      Z:     0.5695     Total:     1.2778

*** Psi4 exiting successfully. Buy a developer a beer!
