                               Psi4 1.4a3.dev225

  ==> Input File <==

--------------------------------------------------------------------------
#psi4
#
memory 32 gb

molecule  {
0 1
  N        1.6268380     0.6089620    -0.4693990
  C        0.3031040     0.1485790    -0.2066970
  C       -0.7706010     1.0561020    -0.0842670
  C        0.0806060    -1.2405240    -0.1151990
  C       -2.0579110     0.5582020     0.1415980
  C       -1.2176000    -1.6989120     0.1341680
  C       -2.2850370    -0.8120180     0.2620550
  C       -0.5406870     2.5426280    -0.1993030
  C        1.2072340    -2.2197810    -0.3093320
  C        2.5023020     0.6131830     0.7097540
  H       -2.8885640     1.2560570     0.2350690
  H       -1.3937740    -2.7714120     0.2029680
  H        1.5916390     1.5501200    -0.8540680
  H       -3.2895990    -1.1861590     0.4450020
  H        0.2351210     2.8885850     0.4923550
  H       -0.2380210     2.8365620    -1.2118290
  H       -1.4595390     3.0868260     0.0338520
  H        1.9683452    -1.8174420    -0.9825741
  H        1.7264620    -2.4417900     0.6300600
  H        0.8237630    -3.1662910    -0.7010550
  H        2.0935470     1.1833990     1.5571020
  H        3.4676080     1.0418550     0.4271840
  H        2.6734620    -0.4116070     1.0419720
units angstrom
no_reorient  #important for SAPT in psi4, default
symmetry c1  #important for SAPT in psi4, default
}

set PROPERTIES_ORIGIN ["COM"]
properties('MP2/aug-cc-pvtz', properties = ['dipole'])
--------------------------------------------------------------------------

    Molecular point group: c1
  Charge       = 0
  Multiplicity = 1
  Basis Set: AUG-CC-PVTZ
    Blend: AUG-CC-PVTZ
  Basis Set: (AUG-CC-PVTZ AUX)
    Blend: AUG-CC-PVTZ-JKFIT

    Orbital Energies [Eh]
    ---------------------

    Doubly Occupied:

       1A    -15.553808     2A    -11.258265     3A    -11.249741
       4A    -11.235923     5A    -11.232315     6A    -11.228396
       7A    -11.225444     8A    -11.224314     9A    -11.223149
      10A    -11.214196    11A     -1.226573    12A     -1.130895
      13A     -1.054386    14A     -1.012401    15A     -0.945467
      16A     -0.922264    17A     -0.892148    18A     -0.794705
      19A     -0.781553    20A     -0.692629    21A     -0.661109
      22A     -0.629506    23A     -0.603499    24A     -0.591614
      25A     -0.579104    26A     -0.568211    27A     -0.564603
      28A     -0.556713    29A     -0.552120    30A     -0.530643
      31A     -0.521853    32A     -0.485964    33A     -0.477090
      34A     -0.470613    35A     -0.402534    36A     -0.317047
      37A     -0.302746

  @DF-RHF Final Energy:  -402.96163157693218

   => Energetics <=

    Nuclear Repulsion Energy =            521.2939995187496152
    One-Electron Energy =               -1578.6841812778316125
    Two-Electron Energy =                 654.4285501821498201
    Total Energy =                       -402.9616315769321773
  Basis Set: (AUG-CC-PVTZ AUX)
    Blend: AUG-CC-PVTZ-RI
    Molecular point group: c1

    Geometry (in Angstrom), charge = 0, multiplicity = 1:

       Center              X                  Y                   Z               Mass
    ------------   -----------------  -----------------  -----------------  -----------------
         N            1.665403191400     0.624049679267    -0.460121986889    14.003074004430
         C            0.341669191400     0.163666679267    -0.197419986889    12.000000000000
         C           -0.732035808600     1.071189679267    -0.074989986889    12.000000000000
         C            0.119171191400    -1.225436320733    -0.105921986889    12.000000000000
         C           -2.019345808600     0.573289679267     0.150875013111    12.000000000000
         C           -1.179034808600    -1.683824320733     0.143445013111    12.000000000000
         C           -2.246471808600    -0.796930320733     0.271332013111    12.000000000000
         C           -0.502121808600     2.557715679267    -0.190025986889    12.000000000000
         C            1.245799191400    -2.204693320733    -0.300054986889    12.000000000000
         C            2.540867191400     0.628270679267     0.719031013111    12.000000000000
         H           -2.849998808600     1.271144679267     0.244346013111     1.007825032230
         H           -1.355208808600    -2.756324320733     0.212245013111     1.007825032230
         H            1.630204191400     1.565207679267    -0.844790986889     1.007825032230
         H           -3.251033808600    -1.171071320733     0.454279013111     1.007825032230
         H            0.273686191400     2.903672679267     0.501632013111     1.007825032230
         H           -0.199455808600     2.851649679267    -1.202551986889     1.007825032230
         H           -1.420973808600     3.101913679267     0.043129013111     1.007825032230
         H            2.006910391400    -1.802354320733    -0.973297086889     1.007825032230
         H            1.765027191400    -2.426702320733     0.639337013111     1.007825032230
         H            0.862328191400    -3.151203320733    -0.691777986889     1.007825032230
         H            2.132112191400     1.198486679267     1.566379013111     1.007825032230
         H            3.506173191400     1.056942679267     0.436461013111     1.007825032230
         H            2.712027191400    -0.396519320733     1.051249013111     1.007825032230

  Basis Set: AUG-CC-PVTZ
    Blend: AUG-CC-PVTZ
  Basis Set: (AUG-CC-PVTZ AUX)
    Blend: AUG-CC-PVTZ-JKFIT
	 Reference Energy          =    -402.9616315769321773 [Eh]
	 Singles Energy            =      -0.0000000000000000 [Eh]
	 Same-Spin Energy          =      -0.4479993183708182 [Eh]
	 Opposite-Spin Energy      =      -1.4659108305517088 [Eh]
	 Correlation Energy        =      -1.9139101489225270 [Eh]
	 Total Energy              =    -404.8755417258547027 [Eh]

	 ================> DF-SCS-MP2 Energies <==================
	-----------------------------------------------------------
	 SCS Same-Spin Scale       =       0.3333333333333333 [-]
	 SCS Opposite-Spin Scale   =       1.2000000000000000 [-]
	 SCS Same-Spin Energy      =      -0.1493331061236061 [Eh]
	 SCS Opposite-Spin Energy  =      -1.7590929966620505 [Eh]
	 SCS Correlation Energy    =      -1.9084261027856566 [Eh]
	 SCS Total Energy          =    -404.8700576797178314 [Eh]
	-----------------------------------------------------------

  Dipole Moment: [D]
     X:     0.5461      Y:     1.0753      Z:     0.5274     Total:     1.3163

*** Psi4 exiting successfully. Buy a developer a beer!
