                               Psi4 1.4a3.dev225

  ==> Input File <==

--------------------------------------------------------------------------
#psi4
#
memory 32 gb

molecule  {
0 1
  N        1.6268380     0.6089620    -0.4693990
  C        0.3031040     0.1485790    -0.2066970
  C       -0.7706010     1.0561020    -0.0842670
  C        0.0806060    -1.2405240    -0.1151990
  C       -2.0579110     0.5582020     0.1415980
  C       -1.2176000    -1.6989120     0.1341680
  C       -2.2850370    -0.8120180     0.2620550
  C       -0.5406870     2.5426280    -0.1993030
  C        1.2072340    -2.2197810    -0.3093320
  C        2.5023020     0.6131830     0.7097540
  H       -2.8885640     1.2560570     0.2350690
  H       -1.3937740    -2.7714120     0.2029680
  H        1.5916390     1.5501200    -0.8540680
  H       -3.2895990    -1.1861590     0.4450020
  H        0.2351210     2.8885850     0.4923550
  H       -0.2380210     2.8365620    -1.2118290
  H       -1.4595390     3.0868260     0.0338520
  H        1.9415750    -1.8136360    -1.0094830
  H        1.7264620    -2.4417900     0.6300600
  H        0.8588219    -3.0797562    -0.6652417
  H        2.0935470     1.1833990     1.5571020
  H        3.4676080     1.0418550     0.4271840
  H        2.6734620    -0.4116070     1.0419720
units angstrom
no_reorient  #important for SAPT in psi4, default
symmetry c1  #important for SAPT in psi4, default
}

set PROPERTIES_ORIGIN ["COM"]
properties('MP2/aug-cc-pvtz', properties = ['dipole'])
--------------------------------------------------------------------------

    Molecular point group: c1
  Charge       = 0
  Multiplicity = 1
  Basis Set: AUG-CC-PVTZ
    Blend: AUG-CC-PVTZ
  Basis Set: (AUG-CC-PVTZ AUX)
    Blend: AUG-CC-PVTZ-JKFIT

    Orbital Energies [Eh]
    ---------------------

    Doubly Occupied:

       1A    -15.553272     2A    -11.257595     3A    -11.249125
       4A    -11.235577     5A    -11.231329     6A    -11.228109
       7A    -11.225163     8A    -11.224057     9A    -11.222906
      10A    -11.201691    11A     -1.226038    12A     -1.130726
      13A     -1.055908    14A     -1.013443    15A     -0.948572
      16A     -0.924267    17A     -0.893589    18A     -0.794817
      19A     -0.783360    20A     -0.692519    21A     -0.660509
      22A     -0.630503    23A     -0.603149    24A     -0.591110
      25A     -0.579798    26A     -0.577381    27A     -0.564901
      28A     -0.559362    29A     -0.551721    30A     -0.530211
      31A     -0.526369    32A     -0.484741    33A     -0.477600
      34A     -0.471035    35A     -0.401993    36A     -0.317040
      37A     -0.302359

  @DF-RHF Final Energy:  -402.95582643488092

   => Energetics <=

    Nuclear Repulsion Energy =            521.8110408805525822
    One-Electron Energy =               -1579.6900417349156669
    Two-Electron Energy =                 654.9231744194821658
    Total Energy =                       -402.9558264348809189
  Basis Set: (AUG-CC-PVTZ AUX)
    Blend: AUG-CC-PVTZ-RI
    Molecular point group: c1

    Geometry (in Angstrom), charge = 0, multiplicity = 1:

       Center              X                  Y                   Z               Mass
    ------------   -----------------  -----------------  -----------------  -----------------
         N            1.665341361181     0.623375774860    -0.460188409971    14.003074004430
         C            0.341607361181     0.162992774860    -0.197486409971    12.000000000000
         C           -0.732097638819     1.070515774860    -0.075056409971    12.000000000000
         C            0.119109361181    -1.226110225140    -0.105988409971    12.000000000000
         C           -2.019407638819     0.572615774860     0.150808590029    12.000000000000
         C           -1.179096638819    -1.684498225140     0.143378590029    12.000000000000
         C           -2.246533638819    -0.797604225140     0.271265590029    12.000000000000
         C           -0.502183638819     2.557041774860    -0.190092409971    12.000000000000
         C            1.245737361181    -2.205367225140    -0.300121409971    12.000000000000
         C            2.540805361181     0.627596774860     0.718964590029    12.000000000000
         H           -2.850060638819     1.270470774860     0.244279590029     1.007825032230
         H           -1.355270638819    -2.756998225140     0.212178590029     1.007825032230
         H            1.630142361181     1.564533774860    -0.844857409971     1.007825032230
         H           -3.251095638819    -1.171745225140     0.454212590029     1.007825032230
         H            0.273624361181     2.902998774860     0.501565590029     1.007825032230
         H           -0.199517638819     2.850975774860    -1.202618409971     1.007825032230
         H           -1.421035638819     3.101239774860     0.043062590029     1.007825032230
         H            1.980078361181    -1.799222225140    -1.000272409971     1.007825032230
         H            1.764965361181    -2.427376225140     0.639270590029     1.007825032230
         H            0.897325261181    -3.065342425140    -0.656031109971     1.007825032230
         H            2.132050361181     1.197812774860     1.566312590029     1.007825032230
         H            3.506111361181     1.056268774860     0.436394590029     1.007825032230
         H            2.711965361181    -0.397193225140     1.051182590029     1.007825032230

  Basis Set: AUG-CC-PVTZ
    Blend: AUG-CC-PVTZ
  Basis Set: (AUG-CC-PVTZ AUX)
    Blend: AUG-CC-PVTZ-JKFIT
	 Reference Energy          =    -402.9558264348809189 [Eh]
	 Singles Energy            =      -0.0000000000000000 [Eh]
	 Same-Spin Energy          =      -0.4479879149542282 [Eh]
	 Opposite-Spin Energy      =      -1.4653766558702044 [Eh]
	 Correlation Energy        =      -1.9133645708244327 [Eh]
	 Total Energy              =    -404.8691910057053747 [Eh]

	 ================> DF-SCS-MP2 Energies <==================
	-----------------------------------------------------------
	 SCS Same-Spin Scale       =       0.3333333333333333 [-]
	 SCS Opposite-Spin Scale   =       1.2000000000000000 [-]
	 SCS Same-Spin Energy      =      -0.1493293049847427 [Eh]
	 SCS Opposite-Spin Energy  =      -1.7584519870442452 [Eh]
	 SCS Correlation Energy    =      -1.9077812920289878 [Eh]
	 SCS Total Energy          =    -404.8636077269098905 [Eh]
	-----------------------------------------------------------

  Dipole Moment: [D]
     X:     0.5422      Y:     1.0162      Z:     0.5040     Total:     1.2572

*** Psi4 exiting successfully. Buy a developer a beer!
