                               Psi4 1.4a3.dev225

  ==> Input File <==

--------------------------------------------------------------------------
#psi4
#
memory 32 gb

molecule  {
0 1
  N        1.6268380     0.6089620    -0.4693990
  C        0.3031040     0.1485790    -0.2066970
  C       -0.7706010     1.0561020    -0.0842670
  C        0.0806060    -1.2405240    -0.1151990
  C       -2.0579110     0.5582020     0.1415980
  C       -1.2176000    -1.6989120     0.1341680
  C       -2.2850370    -0.8120180     0.2620550
  C       -0.5406870     2.5426280    -0.1993030
  C        1.2072340    -2.2197810    -0.3093320
  C        2.5023020     0.6131830     0.7097540
  H       -2.9267055     1.2881008     0.2393610
  H       -1.3937740    -2.7714120     0.2029680
  H        1.5916390     1.5501200    -0.8540680
  H       -3.2895990    -1.1861590     0.4450020
  H        0.2351210     2.8885850     0.4923550
  H       -0.2380210     2.8365620    -1.2118290
  H       -1.4595390     3.0868260     0.0338520
  H        1.9415750    -1.8136360    -1.0094830
  H        1.7264620    -2.4417900     0.6300600
  H        0.8237630    -3.1662910    -0.7010550
  H        2.0935470     1.1833990     1.5571020
  H        3.4676080     1.0418550     0.4271840
  H        2.6734620    -0.4116070     1.0419720
units angstrom
no_reorient  #important for SAPT in psi4, default
symmetry c1  #important for SAPT in psi4, default
}

set PROPERTIES_ORIGIN ["COM"]
properties('MP2/aug-cc-pvtz', properties = ['dipole'])
--------------------------------------------------------------------------

    Molecular point group: c1
  Charge       = 0
  Multiplicity = 1
  Basis Set: AUG-CC-PVTZ
    Blend: AUG-CC-PVTZ
  Basis Set: (AUG-CC-PVTZ AUX)
    Blend: AUG-CC-PVTZ-JKFIT

    Orbital Energies [Eh]
    ---------------------

    Doubly Occupied:

       1A    -15.554039     2A    -11.258655     3A    -11.249790
       4A    -11.236487     5A    -11.232279     6A    -11.230896
       7A    -11.228321     8A    -11.225038     9A    -11.223480
      10A    -11.214304    11A     -1.226799    12A     -1.130842
      13A     -1.054160    14A     -1.012384    15A     -0.945444
      16A     -0.920913    17A     -0.892111    18A     -0.794883
      19A     -0.778778    20A     -0.691654    21A     -0.658548
      22A     -0.629798    23A     -0.602934    24A     -0.591634
      25A     -0.577535    26A     -0.568633    27A     -0.565305
      28A     -0.556763    29A     -0.548524    30A     -0.530925
      31A     -0.520963    32A     -0.484250    33A     -0.477219
      34A     -0.471036    35A     -0.402590    36A     -0.317414
      37A     -0.303062

  @DF-RHF Final Energy:  -402.95926980476577

   => Energetics <=

    Nuclear Repulsion Energy =            521.0590867594088422
    One-Electron Energy =               -1578.2199346629665797
    Two-Electron Energy =                 654.2015780987918561
    Total Energy =                       -402.9592698047657677
  Basis Set: (AUG-CC-PVTZ AUX)
    Blend: AUG-CC-PVTZ-RI
    Molecular point group: c1

    Geometry (in Angstrom), charge = 0, multiplicity = 1:

       Center              X                  Y                   Z               Mass
    ------------   -----------------  -----------------  -----------------  -----------------
         N            1.665887405406     0.623782254823    -0.459953274319    14.003074004430
         C            0.342153405406     0.163399254823    -0.197251274319    12.000000000000
         C           -0.731551594594     1.070922254823    -0.074821274319    12.000000000000
         C            0.119655405406    -1.225703745177    -0.105753274319    12.000000000000
         C           -2.018861594594     0.573022254823     0.151043725681    12.000000000000
         C           -1.178550594594    -1.684091745177     0.143613725681    12.000000000000
         C           -2.245987594594    -0.797197745177     0.271500725681    12.000000000000
         C           -0.501637594594     2.557448254823    -0.189857274319    12.000000000000
         C            1.246283405406    -2.204960745177    -0.299886274319    12.000000000000
         C            2.541351405406     0.628003254823     0.719199725681    12.000000000000
         H           -2.887656094594     1.302921054823     0.248806725681     1.007825032230
         H           -1.354724594594    -2.756591745177     0.212413725681     1.007825032230
         H            1.630688405406     1.564940254823    -0.844622274319     1.007825032230
         H           -3.250549594594    -1.171338745177     0.454447725681     1.007825032230
         H            0.274170405406     2.903405254823     0.501800725681     1.007825032230
         H           -0.198971594594     2.851382254823    -1.202383274319     1.007825032230
         H           -1.420489594594     3.101646254823     0.043297725681     1.007825032230
         H            1.980624405406    -1.798815745177    -1.000037274319     1.007825032230
         H            1.765511405406    -2.426969745177     0.639505725681     1.007825032230
         H            0.862812405406    -3.151470745177    -0.691609274319     1.007825032230
         H            2.132596405406     1.198219254823     1.566547725681     1.007825032230
         H            3.506657405406     1.056675254823     0.436629725681     1.007825032230
         H            2.712511405406    -0.396786745177     1.051417725681     1.007825032230

  Basis Set: AUG-CC-PVTZ
    Blend: AUG-CC-PVTZ
  Basis Set: (AUG-CC-PVTZ AUX)
    Blend: AUG-CC-PVTZ-JKFIT
	 Reference Energy          =    -402.9592698047657677 [Eh]
	 Singles Energy            =      -0.0000000000000000 [Eh]
	 Same-Spin Energy          =      -0.4481158264906271 [Eh]
	 Opposite-Spin Energy      =      -1.4663583455450220 [Eh]
	 Correlation Energy        =      -1.9144741720356491 [Eh]
	 Total Energy              =    -404.8737439768013928 [Eh]

	 ================> DF-SCS-MP2 Energies <==================
	-----------------------------------------------------------
	 SCS Same-Spin Scale       =       0.3333333333333333 [-]
	 SCS Opposite-Spin Scale   =       1.2000000000000000 [-]
	 SCS Same-Spin Energy      =      -0.1493719421635424 [Eh]
	 SCS Opposite-Spin Energy  =      -1.7596300146540262 [Eh]
	 SCS Correlation Energy    =      -1.9090019568175687 [Eh]
	 SCS Total Energy          =    -404.8682717615833440 [Eh]
	-----------------------------------------------------------

  Dipole Moment: [D]
     X:     0.5618      Y:     1.0547      Z:     0.5189     Total:     1.3028

*** Psi4 exiting successfully. Buy a developer a beer!
