                               Psi4 1.4a3.dev225

  ==> Input File <==

--------------------------------------------------------------------------
#psi4
#
memory 32 gb

molecule  {
0 1
  N        1.6268380     0.6089620    -0.4693990
  C        0.3031040     0.1485790    -0.2066970
  C       -0.8086438     1.0882568    -0.0799291
  C        0.0806060    -1.2405240    -0.1151990
  C       -2.0579110     0.5582020     0.1415980
  C       -1.2176000    -1.6989120     0.1341680
  C       -2.2850370    -0.8120180     0.2620550
  C       -0.5406870     2.5426280    -0.1993030
  C        1.2072340    -2.2197810    -0.3093320
  C        2.5023020     0.6131830     0.7097540
  H       -2.8885640     1.2560570     0.2350690
  H       -1.3937740    -2.7714120     0.2029680
  H        1.5916390     1.5501200    -0.8540680
  H       -3.2895990    -1.1861590     0.4450020
  H        0.2351210     2.8885850     0.4923550
  H       -0.2380210     2.8365620    -1.2118290
  H       -1.4595390     3.0868260     0.0338520
  H        1.9415750    -1.8136360    -1.0094830
  H        1.7264620    -2.4417900     0.6300600
  H        0.8237630    -3.1662910    -0.7010550
  H        2.0935470     1.1833990     1.5571020
  H        3.4676080     1.0418550     0.4271840
  H        2.6734620    -0.4116070     1.0419720
units angstrom
no_reorient  #important for SAPT in psi4, default
symmetry c1  #important for SAPT in psi4, default
}

set PROPERTIES_ORIGIN ["COM"]
properties('MP2/aug-cc-pvtz', properties = ['dipole'])
--------------------------------------------------------------------------

    Molecular point group: c1
  Charge       = 0
  Multiplicity = 1
  Basis Set: AUG-CC-PVTZ
    Blend: AUG-CC-PVTZ
  Basis Set: (AUG-CC-PVTZ AUX)
    Blend: AUG-CC-PVTZ-JKFIT

    Orbital Energies [Eh]
    ---------------------

    Doubly Occupied:

       1A    -15.554797     2A    -11.262788     3A    -11.249980
       4A    -11.237333     5A    -11.230781     6A    -11.227967
       7A    -11.224668     8A    -11.223568     9A    -11.222438
      10A    -11.213819    11A     -1.225125    12A     -1.130855
      13A     -1.058109    14A     -1.011927    15A     -0.943753
      16A     -0.925013    17A     -0.890387    18A     -0.797708
      19A     -0.774609    20A     -0.693671    21A     -0.659206
      22A     -0.631111    23A     -0.604402    24A     -0.592270
      25A     -0.578005    26A     -0.568703    27A     -0.566124
      28A     -0.558766    29A     -0.553481    30A     -0.530982
      31A     -0.521056    32A     -0.483707    33A     -0.479479
      34A     -0.468993    35A     -0.401326    36A     -0.320178
      37A     -0.297606

  @DF-RHF Final Energy:  -402.95809913354384

   => Energetics <=

    Nuclear Repulsion Energy =            520.8237661316654794
    One-Electron Energy =               -1577.7343486599445441
    Two-Electron Energy =                 653.9524833947352818
    Total Energy =                       -402.9580991335437830
  Basis Set: (AUG-CC-PVTZ AUX)
    Blend: AUG-CC-PVTZ-RI
    Molecular point group: c1

    Geometry (in Angstrom), charge = 0, multiplicity = 1:

       Center              X                  Y                   Z               Mass
    ------------   -----------------  -----------------  -----------------  -----------------
         N            1.668981845006     0.621165300742    -0.460306549814    14.003074004430
         C            0.345247845006     0.160782300742    -0.197604549814    12.000000000000
         C           -0.766499954994     1.100460100742    -0.070836649814    12.000000000000
         C            0.122749845006    -1.228320699258    -0.106106549814    12.000000000000
         C           -2.015767154994     0.570405300742     0.150690450186    12.000000000000
         C           -1.175456154994    -1.686708699258     0.143260450186    12.000000000000
         C           -2.242893154994    -0.799814699258     0.271147450186    12.000000000000
         C           -0.498543154994     2.554831300742    -0.190210549814    12.000000000000
         C            1.249377845006    -2.207577699258    -0.300239549814    12.000000000000
         C            2.544445845006     0.625386300742     0.718846450186    12.000000000000
         H           -2.846420154994     1.268260300742     0.244161450186     1.007825032230
         H           -1.351630154994    -2.759208699258     0.212060450186     1.007825032230
         H            1.633782845006     1.562323300742    -0.844975549814     1.007825032230
         H           -3.247455154994    -1.173955699258     0.454094450186     1.007825032230
         H            0.277264845006     2.900788300742     0.501447450186     1.007825032230
         H           -0.195877154994     2.848765300742    -1.202736549814     1.007825032230
         H           -1.417395154994     3.099029300742     0.042944450186     1.007825032230
         H            1.983718845006    -1.801432699258    -1.000390549814     1.007825032230
         H            1.768605845006    -2.429586699258     0.639152450186     1.007825032230
         H            0.865906845006    -3.154087699258    -0.691962549814     1.007825032230
         H            2.135690845006     1.195602300742     1.566194450186     1.007825032230
         H            3.509751845006     1.054058300742     0.436276450186     1.007825032230
         H            2.715605845006    -0.399403699258     1.051064450186     1.007825032230

  Basis Set: AUG-CC-PVTZ
    Blend: AUG-CC-PVTZ
  Basis Set: (AUG-CC-PVTZ AUX)
    Blend: AUG-CC-PVTZ-JKFIT
	 Reference Energy          =    -402.9580991335438398 [Eh]
	 Singles Energy            =      -0.0000000000000000 [Eh]
	 Same-Spin Energy          =      -0.4482602251695461 [Eh]
	 Opposite-Spin Energy      =      -1.4664311844940054 [Eh]
	 Correlation Energy        =      -1.9146914096635514 [Eh]
	 Total Energy              =    -404.8727905432073726 [Eh]

	 ================> DF-SCS-MP2 Energies <==================
	-----------------------------------------------------------
	 SCS Same-Spin Scale       =       0.3333333333333333 [-]
	 SCS Opposite-Spin Scale   =       1.2000000000000000 [-]
	 SCS Same-Spin Energy      =      -0.1494200750565154 [Eh]
	 SCS Opposite-Spin Energy  =      -1.7597174213928064 [Eh]
	 SCS Correlation Energy    =      -1.9091374964493217 [Eh]
	 SCS Total Energy          =    -404.8672366299931582 [Eh]
	-----------------------------------------------------------

  Dipole Moment: [D]
     X:     0.5831      Y:     1.1122      Z:     0.5115     Total:     1.3559

*** Psi4 exiting successfully. Buy a developer a beer!
