                               Psi4 1.4a3.dev225

  ==> Input File <==

--------------------------------------------------------------------------
#psi4
#
memory 32 gb

molecule  {
0 1
  N        1.6268380     0.6089620    -0.4693990
  C        0.3031040     0.1485790    -0.2066970
  C       -0.7706010     1.0561020    -0.0842670
  C        0.0806060    -1.2405240    -0.1151990
  C       -2.0579110     0.5582020     0.1415980
  C       -1.2176000    -1.6989120     0.1341680
  C       -2.2850370    -0.8120180     0.2620550
  C       -0.5406870     2.5426280    -0.1993030
  C        1.2072340    -2.2197810    -0.3093320
  C        2.5023020     0.6131830     0.7097540
  H       -2.8885640     1.2560570     0.2350690
  H       -1.3937740    -2.7714120     0.2029680
  H        1.5916390     1.5501200    -0.8540680
  H       -3.2895990    -1.1861590     0.4450020
  H        0.2351210     2.8885850     0.4923550
  H       -0.2380210     2.8365620    -1.2118290
  H       -1.4595390     3.0868260     0.0338520
  H        1.9751711    -1.7950549    -1.0415149
  H        1.7264620    -2.4417900     0.6300600
  H        0.8237630    -3.1662910    -0.7010550
  H        2.0935470     1.1833990     1.5571020
  H        3.4676080     1.0418550     0.4271840
  H        2.6734620    -0.4116070     1.0419720
units angstrom
no_reorient  #important for SAPT in psi4, default
symmetry c1  #important for SAPT in psi4, default
}

set PROPERTIES_ORIGIN ["COM"]
properties('MP2/aug-cc-pvtz', properties = ['dipole'])
--------------------------------------------------------------------------

    Molecular point group: c1
  Charge       = 0
  Multiplicity = 1
  Basis Set: AUG-CC-PVTZ
    Blend: AUG-CC-PVTZ
  Basis Set: (AUG-CC-PVTZ AUX)
    Blend: AUG-CC-PVTZ-JKFIT

    Orbital Energies [Eh]
    ---------------------

    Doubly Occupied:

       1A    -15.553771     2A    -11.258364     3A    -11.249572
       4A    -11.236014     5A    -11.232437     6A    -11.228441
       7A    -11.225564     8A    -11.224439     9A    -11.223299
      10A    -11.219668    11A     -1.226534    12A     -1.130961
      13A     -1.054008    14A     -1.011960    15A     -0.944499
      16A     -0.920875    17A     -0.891205    18A     -0.794725
      19A     -0.780543    20A     -0.692664    21A     -0.660087
      22A     -0.629622    23A     -0.602811    24A     -0.591468
      25A     -0.578895    26A     -0.568866    27A     -0.564885
      28A     -0.556737    29A     -0.549532    30A     -0.530149
      31A     -0.517072    32A     -0.485336    33A     -0.476583
      34A     -0.470462    35A     -0.402140    36A     -0.317212
      37A     -0.302883

  @DF-RHF Final Energy:  -402.95948858999793

   => Energetics <=

    Nuclear Repulsion Energy =            521.1173428906719209
    One-Electron Energy =               -1578.3451005187557712
    Two-Electron Energy =                 654.2682690380860322
    Total Energy =                       -402.9594885899979317
  Basis Set: (AUG-CC-PVTZ AUX)
    Blend: AUG-CC-PVTZ-RI
    Molecular point group: c1

    Geometry (in Angstrom), charge = 0, multiplicity = 1:

       Center              X                  Y                   Z               Mass
    ------------   -----------------  -----------------  -----------------  -----------------
         N            1.665352273054     0.623882680908    -0.459682313288    14.003074004430
         C            0.341618273054     0.163499680908    -0.196980313288    12.000000000000
         C           -0.732086726946     1.071022680908    -0.074550313288    12.000000000000
         C            0.119120273054    -1.225603319092    -0.105482313288    12.000000000000
         C           -2.019396726946     0.573122680908     0.151314686712    12.000000000000
         C           -1.179085726946    -1.683991319092     0.143884686712    12.000000000000
         C           -2.246522726946    -0.797097319092     0.271771686712    12.000000000000
         C           -0.502172726946     2.557548680908    -0.189586313288    12.000000000000
         C            1.245748273054    -2.204860319092    -0.299615313288    12.000000000000
         C            2.540816273054     0.628103680908     0.719470686712    12.000000000000
         H           -2.850049726946     1.270977680908     0.244785686712     1.007825032230
         H           -1.355259726946    -2.756491319092     0.212684686712     1.007825032230
         H            1.630153273054     1.565040680908    -0.844351313288     1.007825032230
         H           -3.251084726946    -1.171238319092     0.454718686712     1.007825032230
         H            0.273635273054     2.903505680908     0.502071686712     1.007825032230
         H           -0.199506726946     2.851482680908    -1.202112313288     1.007825032230
         H           -1.421024726946     3.101746680908     0.043568686712     1.007825032230
         H            2.013685373054    -1.780134219092    -1.031798213288     1.007825032230
         H            1.764976273054    -2.426869319092     0.639776686712     1.007825032230
         H            0.862277273054    -3.151370319092    -0.691338313288     1.007825032230
         H            2.132061273054     1.198319680908     1.566818686712     1.007825032230
         H            3.506122273054     1.056775680908     0.436900686712     1.007825032230
         H            2.711976273054    -0.396686319092     1.051688686712     1.007825032230

  Basis Set: AUG-CC-PVTZ
    Blend: AUG-CC-PVTZ
  Basis Set: (AUG-CC-PVTZ AUX)
    Blend: AUG-CC-PVTZ-JKFIT
	 Reference Energy          =    -402.9594885899979317 [Eh]
	 Singles Energy            =      -0.0000000000000000 [Eh]
	 Same-Spin Energy          =      -0.4480916988935117 [Eh]
	 Opposite-Spin Energy      =      -1.4663520208357996 [Eh]
	 Correlation Energy        =      -1.9144437197293114 [Eh]
	 Total Energy              =    -404.8739323097272518 [Eh]

	 ================> DF-SCS-MP2 Energies <==================
	-----------------------------------------------------------
	 SCS Same-Spin Scale       =       0.3333333333333333 [-]
	 SCS Opposite-Spin Scale   =       1.2000000000000000 [-]
	 SCS Same-Spin Energy      =      -0.1493638996311706 [Eh]
	 SCS Opposite-Spin Energy  =      -1.7596224250029595 [Eh]
	 SCS Correlation Energy    =      -1.9089863246341301 [Eh]
	 SCS Total Energy          =    -404.8684749146320883 [Eh]
	-----------------------------------------------------------

  Dipole Moment: [D]
     X:     0.5215      Y:     1.0838      Z:     0.5302     Total:     1.3145

*** Psi4 exiting successfully. Buy a developer a beer!
