                               Psi4 1.4a3.dev225

  ==> Input File <==

--------------------------------------------------------------------------
#psi4
#
memory 32 gb

molecule  {
0 1
  N        1.6268380     0.6089620    -0.4693990
  C        0.3031040     0.1485790    -0.2066970
  C       -0.7325582     1.0239472    -0.0886049
  C        0.0806060    -1.2405240    -0.1151990
  C       -2.0579110     0.5582020     0.1415980
  C       -1.2176000    -1.6989120     0.1341680
  C       -2.2850370    -0.8120180     0.2620550
  C       -0.5406870     2.5426280    -0.1993030
  C        1.2072340    -2.2197810    -0.3093320
  C        2.5023020     0.6131830     0.7097540
  H       -2.8885640     1.2560570     0.2350690
  H       -1.3937740    -2.7714120     0.2029680
  H        1.5916390     1.5501200    -0.8540680
  H       -3.2895990    -1.1861590     0.4450020
  H        0.2351210     2.8885850     0.4923550
  H       -0.2380210     2.8365620    -1.2118290
  H       -1.4595390     3.0868260     0.0338520
  H        1.9415750    -1.8136360    -1.0094830
  H        1.7264620    -2.4417900     0.6300600
  H        0.8237630    -3.1662910    -0.7010550
  H        2.0935470     1.1833990     1.5571020
  H        3.4676080     1.0418550     0.4271840
  H        2.6734620    -0.4116070     1.0419720
units angstrom
no_reorient  #important for SAPT in psi4, default
symmetry c1  #important for SAPT in psi4, default
}

set PROPERTIES_ORIGIN ["COM"]
properties('MP2/aug-cc-pvtz', properties = ['dipole'])
--------------------------------------------------------------------------

    Molecular point group: c1
  Charge       = 0
  Multiplicity = 1
  Basis Set: AUG-CC-PVTZ
    Blend: AUG-CC-PVTZ
  Basis Set: (AUG-CC-PVTZ AUX)
    Blend: AUG-CC-PVTZ-JKFIT

    Orbital Energies [Eh]
    ---------------------

    Doubly Occupied:

       1A    -15.552724     2A    -11.252794     3A    -11.249276
       4A    -11.234035     5A    -11.233250     6A    -11.228931
       7A    -11.227420     8A    -11.224739     9A    -11.222547
      10A    -11.214408    11A     -1.228292    12A     -1.131106
      13A     -1.050988    14A     -1.013622    15A     -0.946933
      16A     -0.919461    17A     -0.893719    18A     -0.791914
      19A     -0.787402    20A     -0.691400    21A     -0.662147
      22A     -0.628077    23A     -0.602923    24A     -0.591104
      25A     -0.580807    26A     -0.569071    27A     -0.564380
      28A     -0.555065    29A     -0.549971    30A     -0.530793
      31A     -0.520994    32A     -0.488999    33A     -0.472625
      34A     -0.469930    35A     -0.403163    36A     -0.315792
      37A     -0.306983

  @DF-RHF Final Energy:  -402.95953442307700

   => Energetics <=

    Nuclear Repulsion Energy =            521.8378086553336743
    One-Electron Energy =               -1579.7791111712115253
    Two-Electron Energy =                 654.9817680928008485
    Total Energy =                       -402.9595344230770024
  Basis Set: (AUG-CC-PVTZ AUX)
    Blend: AUG-CC-PVTZ-RI
    Molecular point group: c1

    Geometry (in Angstrom), charge = 0, multiplicity = 1:

       Center              X                  Y                   Z               Mass
    ------------   -----------------  -----------------  -----------------  -----------------
         N            1.662223926680     0.626877275470    -0.459535965790    14.003074004430
         C            0.338489926680     0.166494275470    -0.196833965790    12.000000000000
         C           -0.697172273320     1.041862475470    -0.078741865790    12.000000000000
         C            0.115991926680    -1.222608724530    -0.105335965790    12.000000000000
         C           -2.022525073320     0.576117275470     0.151461034210    12.000000000000
         C           -1.182214073320    -1.680996724530     0.144031034210    12.000000000000
         C           -2.249651073320    -0.794102724530     0.271918034210    12.000000000000
         C           -0.505301073320     2.560543275470    -0.189439965790    12.000000000000
         C            1.242619926680    -2.201865724530    -0.299468965790    12.000000000000
         C            2.537687926680     0.631098275470     0.719617034210    12.000000000000
         H           -2.853178073320     1.273972275470     0.244932034210     1.007825032230
         H           -1.358388073320    -2.753496724530     0.212831034210     1.007825032230
         H            1.627024926680     1.568035275470    -0.844204965790     1.007825032230
         H           -3.254213073320    -1.168243724530     0.454865034210     1.007825032230
         H            0.270506926680     2.906500275470     0.502218034210     1.007825032230
         H           -0.202635073320     2.854477275470    -1.201965965790     1.007825032230
         H           -1.424153073320     3.104741275470     0.043715034210     1.007825032230
         H            1.976960926680    -1.795720724530    -0.999619965790     1.007825032230
         H            1.761847926680    -2.423874724530     0.639923034210     1.007825032230
         H            0.859148926680    -3.148375724530    -0.691191965790     1.007825032230
         H            2.128932926680     1.201314275470     1.566965034210     1.007825032230
         H            3.502993926680     1.059770275470     0.437047034210     1.007825032230
         H            2.708847926680    -0.393691724530     1.051835034210     1.007825032230

  Basis Set: AUG-CC-PVTZ
    Blend: AUG-CC-PVTZ
  Basis Set: (AUG-CC-PVTZ AUX)
    Blend: AUG-CC-PVTZ-JKFIT
	 Reference Energy          =    -402.9595344230770024 [Eh]
	 Singles Energy            =      -0.0000000000000000 [Eh]
	 Same-Spin Energy          =      -0.4476505610837302 [Eh]
	 Opposite-Spin Energy      =      -1.4656622607358016 [Eh]
	 Correlation Energy        =      -1.9133128218195319 [Eh]
	 Total Energy              =    -404.8728472448965476 [Eh]

	 ================> DF-SCS-MP2 Energies <==================
	-----------------------------------------------------------
	 SCS Same-Spin Scale       =       0.3333333333333333 [-]
	 SCS Opposite-Spin Scale   =       1.2000000000000000 [-]
	 SCS Same-Spin Energy      =      -0.1492168536945767 [Eh]
	 SCS Opposite-Spin Energy  =      -1.7587947128829620 [Eh]
	 SCS Correlation Energy    =      -1.9080115665775388 [Eh]
	 SCS Total Energy          =    -404.8675459896545590 [Eh]
	-----------------------------------------------------------

  Dipole Moment: [D]
     X:     0.4907      Y:     1.0332      Z:     0.5300     Total:     1.2607

*** Psi4 exiting successfully. Buy a developer a beer!
