                               Psi4 1.4a3.dev225

  ==> Input File <==

--------------------------------------------------------------------------
#psi4
#
memory 32 gb

molecule  {
0 1
  N        1.6268380     0.6089620    -0.4693990
  C        0.3031040     0.1485790    -0.2066970
  C       -0.7706010     1.0561020    -0.0842670
  C        0.0806060    -1.2405240    -0.1151990
  C       -2.0579110     0.5582020     0.1415980
  C       -1.2176000    -1.6989120     0.1341680
  C       -2.2850370    -0.8120180     0.2620550
  C       -0.5406870     2.5426280    -0.1993030
  C        1.2072340    -2.2197810    -0.3093320
  C        2.5023020     0.6131830     0.7097540
  H       -2.8885640     1.2560570     0.2350690
  H       -1.3937740    -2.7714120     0.2029680
  H        1.5916390     1.5501200    -0.8540680
  H       -3.2895990    -1.1861590     0.4450020
  H        0.2705323     2.9043760     0.5239253
  H       -0.2380210     2.8365620    -1.2118290
  H       -1.4595390     3.0868260     0.0338520
  H        1.9415750    -1.8136360    -1.0094830
  H        1.7264620    -2.4417900     0.6300600
  H        0.8237630    -3.1662910    -0.7010550
  H        2.0935470     1.1833990     1.5571020
  H        3.4676080     1.0418550     0.4271840
  H        2.6734620    -0.4116070     1.0419720
units angstrom
no_reorient  #important for SAPT in psi4, default
symmetry c1  #important for SAPT in psi4, default
}

set PROPERTIES_ORIGIN ["COM"]
properties('MP2/aug-cc-pvtz', properties = ['dipole'])
--------------------------------------------------------------------------

    Molecular point group: c1
  Charge       = 0
  Multiplicity = 1
  Basis Set: AUG-CC-PVTZ
    Blend: AUG-CC-PVTZ
  Basis Set: (AUG-CC-PVTZ AUX)
    Blend: AUG-CC-PVTZ-JKFIT

    Orbital Energies [Eh]
    ---------------------

    Doubly Occupied:

       1A    -15.553683     2A    -11.258432     3A    -11.249524
       4A    -11.236360     5A    -11.234324     6A    -11.232172
       7A    -11.225727     8A    -11.224486     9A    -11.223253
      10A    -11.214199    11A     -1.226489    12A     -1.130982
      13A     -1.053896    14A     -1.012049    15A     -0.944114
      16A     -0.920754    17A     -0.891915    18A     -0.793984
      19A     -0.781339    20A     -0.692349    21A     -0.660879
      22A     -0.628891    23A     -0.603361    24A     -0.591453
      25A     -0.577097    26A     -0.568925    27A     -0.561822
      28A     -0.555744    29A     -0.552497    30A     -0.530670
      31A     -0.519579    32A     -0.485267    33A     -0.477078
      34A     -0.470469    35A     -0.402420    36A     -0.317191
      37A     -0.302831

  @DF-RHF Final Energy:  -402.95962922101273

   => Energetics <=

    Nuclear Repulsion Energy =            521.1139183134660016
    One-Electron Energy =               -1578.3346840549261287
    Two-Electron Energy =                 654.2611365204473941
    Total Energy =                       -402.9596292210127331
  Basis Set: (AUG-CC-PVTZ AUX)
    Blend: AUG-CC-PVTZ-RI
    Molecular point group: c1

    Geometry (in Angstrom), charge = 0, multiplicity = 1:

       Center              X                  Y                   Z               Mass
    ------------   -----------------  -----------------  -----------------  -----------------
         N            1.665338732425     0.623903493882    -0.460156758974    14.003074004430
         C            0.341604732425     0.163520493882    -0.197454758974    12.000000000000
         C           -0.732100267575     1.071043493882    -0.075024758974    12.000000000000
         C            0.119106732425    -1.225582506118    -0.105956758974    12.000000000000
         C           -2.019410267575     0.573143493882     0.150840241026    12.000000000000
         C           -1.179099267575    -1.683970506118     0.143410241026    12.000000000000
         C           -2.246536267575    -0.797076506118     0.271297241026    12.000000000000
         C           -0.502186267575     2.557569493882    -0.190060758974    12.000000000000
         C            1.245734732425    -2.204839506118    -0.300089758974    12.000000000000
         C            2.540802732425     0.628124493882     0.718996241026    12.000000000000
         H           -2.850063267575     1.270998493882     0.244311241026     1.007825032230
         H           -1.355273267575    -2.756470506118     0.212210241026     1.007825032230
         H            1.630139732425     1.565061493882    -0.844825758974     1.007825032230
         H           -3.251098267575    -1.171217506118     0.454244241026     1.007825032230
         H            0.309033032425     2.919317493882     0.533167541026     1.007825032230
         H           -0.199520267575     2.851503493882    -1.202586758974     1.007825032230
         H           -1.421038267575     3.101767493882     0.043094241026     1.007825032230
         H            1.980075732425    -1.798694506118    -1.000240758974     1.007825032230
         H            1.764962732425    -2.426848506118     0.639302241026     1.007825032230
         H            0.862263732425    -3.151349506118    -0.691812758974     1.007825032230
         H            2.132047732425     1.198340493882     1.566344241026     1.007825032230
         H            3.506108732425     1.056796493882     0.436426241026     1.007825032230
         H            2.711962732425    -0.396665506118     1.051214241026     1.007825032230

  Basis Set: AUG-CC-PVTZ
    Blend: AUG-CC-PVTZ
  Basis Set: (AUG-CC-PVTZ AUX)
    Blend: AUG-CC-PVTZ-JKFIT
	 Reference Energy          =    -402.9596292210127331 [Eh]
	 Singles Energy            =      -0.0000000000000000 [Eh]
	 Same-Spin Energy          =      -0.4480293635681538 [Eh]
	 Opposite-Spin Energy      =      -1.4662769180797159 [Eh]
	 Correlation Energy        =      -1.9143062816478698 [Eh]
	 Total Energy              =    -404.8739355026606290 [Eh]

	 ================> DF-SCS-MP2 Energies <==================
	-----------------------------------------------------------
	 SCS Same-Spin Scale       =       0.3333333333333333 [-]
	 SCS Opposite-Spin Scale   =       1.2000000000000000 [-]
	 SCS Same-Spin Energy      =      -0.1493431211893846 [Eh]
	 SCS Opposite-Spin Energy  =      -1.7595323016956590 [Eh]
	 SCS Correlation Energy    =      -1.9088754228850435 [Eh]
	 SCS Total Energy          =    -404.8685046438977793 [Eh]
	-----------------------------------------------------------

  Dipole Moment: [D]
     X:     0.5210      Y:     1.0498      Z:     0.5073     Total:     1.2771

*** Psi4 exiting successfully. Buy a developer a beer!
