                               Psi4 1.4a3.dev225

  ==> Input File <==

--------------------------------------------------------------------------
#psi4
#
memory 32 gb

molecule  {
0 1
  N        1.6268380     0.6089620    -0.4693990
  C        0.3031040     0.1485790    -0.2066970
  C       -0.7706010     1.0561020    -0.0842670
  C        0.0806060    -1.2405240    -0.1151990
  C       -2.0579110     0.5582020     0.1415980
  C       -1.2176000    -1.6989120     0.1341680
  C       -2.2850370    -0.8120180     0.2620550
  C       -0.5406870     2.5426280    -0.1993030
  C        1.2072340    -2.2197810    -0.3093320
  C        2.5023020     0.6131830     0.7097540
  H       -2.8885640     1.2560570     0.2350690
  H       -1.4261277    -2.9683729     0.2156029
  H        1.5916390     1.5501200    -0.8540680
  H       -3.2895990    -1.1861590     0.4450020
  H        0.2351210     2.8885850     0.4923550
  H       -0.2380210     2.8365620    -1.2118290
  H       -1.4595390     3.0868260     0.0338520
  H        1.9415750    -1.8136360    -1.0094830
  H        1.7264620    -2.4417900     0.6300600
  H        0.8237630    -3.1662910    -0.7010550
  H        2.0935470     1.1833990     1.5571020
  H        3.4676080     1.0418550     0.4271840
  H        2.6734620    -0.4116070     1.0419720
units angstrom
no_reorient  #important for SAPT in psi4, default
symmetry c1  #important for SAPT in psi4, default
}

set PROPERTIES_ORIGIN ["COM"]
properties('MP2/aug-cc-pvtz', properties = ['dipole'])
--------------------------------------------------------------------------

    Molecular point group: c1
  Charge       = 0
  Multiplicity = 1
  Basis Set: AUG-CC-PVTZ
    Blend: AUG-CC-PVTZ
  Basis Set: (AUG-CC-PVTZ AUX)
    Blend: AUG-CC-PVTZ-JKFIT

    Orbital Energies [Eh]
    ---------------------

    Doubly Occupied:

       1A    -15.554883     2A    -11.260222     3A    -11.250280
       4A    -11.245583     5A    -11.237170     6A    -11.234659
       7A    -11.229288     8A    -11.227481     9A    -11.226263
      10A    -11.214056    11A     -1.227719    12A     -1.131566
      13A     -1.053936    14A     -1.013287    15A     -0.945724
      16A     -0.918265    17A     -0.893062    18A     -0.790981
      19A     -0.781213    20A     -0.683061    21A     -0.658958
      22A     -0.630529    23A     -0.602954    24A     -0.592282
      25A     -0.574608    26A     -0.568540    27A     -0.566040
      28A     -0.554334    29A     -0.541379    30A     -0.531641
      31A     -0.517482    32A     -0.486607    33A     -0.472914
      34A     -0.467166    35A     -0.403407    36A     -0.318744
      37A     -0.304269

  @DF-RHF Final Energy:  -402.93973220397396

   => Energetics <=

    Nuclear Repulsion Energy =            520.3687576176840821
    One-Electron Energy =               -1576.7958723063520665
    Two-Electron Energy =                 653.4873824846940806
    Total Energy =                       -402.9397322039740175
  Basis Set: (AUG-CC-PVTZ AUX)
    Blend: AUG-CC-PVTZ-RI
    Molecular point group: c1

    Geometry (in Angstrom), charge = 0, multiplicity = 1:

       Center              X                  Y                   Z               Mass
    ------------   -----------------  -----------------  -----------------  -----------------
         N            1.665844230850     0.625490533657    -0.460015508847    14.003074004430
         C            0.342110230850     0.165107533657    -0.197313508847    12.000000000000
         C           -0.731594769150     1.072630533657    -0.074883508847    12.000000000000
         C            0.119612230850    -1.223995466343    -0.105815508847    12.000000000000
         C           -2.018904769150     0.574730533657     0.150981491153    12.000000000000
         C           -1.178593769150    -1.682383466343     0.143551491153    12.000000000000
         C           -2.246030769150    -0.795489466343     0.271438491153    12.000000000000
         C           -0.501680769150     2.559156533657    -0.189919508847    12.000000000000
         C            1.246240230850    -2.203252466343    -0.299948508847    12.000000000000
         C            2.541308230850     0.629711533657     0.719137491153    12.000000000000
         H           -2.849557769150     1.272585533657     0.244452491153     1.007825032230
         H           -1.387121469150    -2.951844366343     0.224986391153     1.007825032230
         H            1.630645230850     1.566648533657    -0.844684508847     1.007825032230
         H           -3.250592769150    -1.169630466343     0.454385491153     1.007825032230
         H            0.274127230850     2.905113533657     0.501738491153     1.007825032230
         H           -0.199014769150     2.853090533657    -1.202445508847     1.007825032230
         H           -1.420532769150     3.103354533657     0.043235491153     1.007825032230
         H            1.980581230850    -1.797107466343    -1.000099508847     1.007825032230
         H            1.765468230850    -2.425261466343     0.639443491153     1.007825032230
         H            0.862769230850    -3.149762466343    -0.691671508847     1.007825032230
         H            2.132553230850     1.199927533657     1.566485491153     1.007825032230
         H            3.506614230850     1.058383533657     0.436567491153     1.007825032230
         H            2.712468230850    -0.395078466343     1.051355491153     1.007825032230

  Basis Set: AUG-CC-PVTZ
    Blend: AUG-CC-PVTZ
  Basis Set: (AUG-CC-PVTZ AUX)
    Blend: AUG-CC-PVTZ-JKFIT
	 Reference Energy          =    -402.9397322039739606 [Eh]
	 Singles Energy            =      -0.0000000000000000 [Eh]
	 Same-Spin Energy          =      -0.4485360186022691 [Eh]
	 Opposite-Spin Energy      =      -1.4681241607312163 [Eh]
	 Correlation Energy        =      -1.9166601793334854 [Eh]
	 Total Energy              =    -404.8563923833074227 [Eh]

	 ================> DF-SCS-MP2 Energies <==================
	-----------------------------------------------------------
	 SCS Same-Spin Scale       =       0.3333333333333333 [-]
	 SCS Opposite-Spin Scale   =       1.2000000000000000 [-]
	 SCS Same-Spin Energy      =      -0.1495120062007564 [Eh]
	 SCS Opposite-Spin Energy  =      -1.7617489928774595 [Eh]
	 SCS Correlation Energy    =      -1.9112609990782159 [Eh]
	 SCS Total Energy          =    -404.8509932030521554 [Eh]
	-----------------------------------------------------------

  Dipole Moment: [D]
     X:     0.5686      Y:     1.2067      Z:     0.5132     Total:     1.4293

*** Psi4 exiting successfully. Buy a developer a beer!
