                               Psi4 1.4a3.dev225

  ==> Input File <==

--------------------------------------------------------------------------
#psi4
#
memory 32 gb

molecule  {
0 1
  N        1.6268380     0.6089620    -0.4693990
  C        0.3031040     0.1485790    -0.2066970
  C       -0.7706010     1.0561020    -0.0842670
  C        0.0806060    -1.2405240    -0.1151990
  C       -2.0579110     0.5582020     0.1415980
  C       -1.2176000    -1.6989120     0.1341680
  C       -2.2850370    -0.8120180     0.2620550
  C       -0.5406870     2.5426280    -0.1993030
  C        1.2072340    -2.2197810    -0.3093320
  C        2.5023020     0.6131830     0.7097540
  H       -2.8885640     1.2560570     0.2350690
  H       -1.3937740    -2.7714120     0.2029680
  H        1.5916390     1.5501200    -0.8540680
  H       -3.2895990    -1.1861590     0.4450020
  H        0.2725471     2.9168938     0.4319898
  H       -0.2380210     2.8365620    -1.2118290
  H       -1.4595390     3.0868260     0.0338520
  H        1.9415750    -1.8136360    -1.0094830
  H        1.7264620    -2.4417900     0.6300600
  H        0.8237630    -3.1662910    -0.7010550
  H        2.0935470     1.1833990     1.5571020
  H        3.4676080     1.0418550     0.4271840
  H        2.6734620    -0.4116070     1.0419720
units angstrom
no_reorient  #important for SAPT in psi4, default
symmetry c1  #important for SAPT in psi4, default
}

set PROPERTIES_ORIGIN ["COM"]
properties('MP2/aug-cc-pvtz', properties = ['dipole'])
--------------------------------------------------------------------------

    Molecular point group: c1
  Charge       = 0
  Multiplicity = 1
  Basis Set: AUG-CC-PVTZ
    Blend: AUG-CC-PVTZ
  Basis Set: (AUG-CC-PVTZ AUX)
    Blend: AUG-CC-PVTZ-JKFIT

    Orbital Energies [Eh]
    ---------------------

    Doubly Occupied:

       1A    -15.554006     2A    -11.258406     3A    -11.249678
       4A    -11.236495     5A    -11.232149     6A    -11.228467
       7A    -11.225698     8A    -11.224455     9A    -11.223189
      10A    -11.214203    11A     -1.226708    12A     -1.130996
      13A     -1.054379    14A     -1.012485    15A     -0.945477
      16A     -0.922538    17A     -0.892242    18A     -0.795150
      19A     -0.781470    20A     -0.693342    21A     -0.660941
      22A     -0.630202    23A     -0.602983    24A     -0.590849
      25A     -0.578786    26A     -0.568951    27A     -0.561839
      28A     -0.558139    29A     -0.552197    30A     -0.530813
      31A     -0.522838    32A     -0.485461    33A     -0.477918
      34A     -0.470464    35A     -0.402621    36A     -0.317052
      37A     -0.302839

  @DF-RHF Final Energy:  -402.96119378658921

   => Energetics <=

    Nuclear Repulsion Energy =            521.2747817165661672
    One-Electron Energy =               -1578.6390990807030903
    Two-Electron Energy =                 654.4031235775477171
    Total Energy =                       -402.9611937865892060
  Basis Set: (AUG-CC-PVTZ AUX)
    Blend: AUG-CC-PVTZ-RI
    Molecular point group: c1

    Geometry (in Angstrom), charge = 0, multiplicity = 1:

       Center              X                  Y                   Z               Mass
    ------------   -----------------  -----------------  -----------------  -----------------
         N            1.665323702864     0.623810116354    -0.459470958776    14.003074004430
         C            0.341589702864     0.163427116354    -0.196768958776    12.000000000000
         C           -0.732115297136     1.070950116354    -0.074338958776    12.000000000000
         C            0.119091702864    -1.225675883646    -0.105270958776    12.000000000000
         C           -2.019425297136     0.573050116354     0.151526041224    12.000000000000
         C           -1.179114297136    -1.684063883646     0.144096041224    12.000000000000
         C           -2.246551297136    -0.797169883646     0.271983041224    12.000000000000
         C           -0.502201297136     2.557476116354    -0.189374958776    12.000000000000
         C            1.245719702864    -2.204932883646    -0.299403958776    12.000000000000
         C            2.540787702864     0.628031116354     0.719682041224    12.000000000000
         H           -2.850078297136     1.270905116354     0.244997041224     1.007825032230
         H           -1.355288297136    -2.756563883646     0.212896041224     1.007825032230
         H            1.630124702864     1.564968116354    -0.844139958776     1.007825032230
         H           -3.251113297136    -1.171310883646     0.454930041224     1.007825032230
         H            0.311032802864     2.931741916354     0.441917841224     1.007825032230
         H           -0.199535297136     2.851410116354    -1.201900958776     1.007825032230
         H           -1.421053297136     3.101674116354     0.043780041224     1.007825032230
         H            1.980060702864    -1.798787883646    -0.999554958776     1.007825032230
         H            1.764947702864    -2.426941883646     0.639988041224     1.007825032230
         H            0.862248702864    -3.151442883646    -0.691126958776     1.007825032230
         H            2.132032702864     1.198247116354     1.567030041224     1.007825032230
         H            3.506093702864     1.056703116354     0.437112041224     1.007825032230
         H            2.711947702864    -0.396758883646     1.051900041224     1.007825032230

  Basis Set: AUG-CC-PVTZ
    Blend: AUG-CC-PVTZ
  Basis Set: (AUG-CC-PVTZ AUX)
    Blend: AUG-CC-PVTZ-JKFIT
	 Reference Energy          =    -402.9611937865892060 [Eh]
	 Singles Energy            =      -0.0000000000000000 [Eh]
	 Same-Spin Energy          =      -0.4480272443946208 [Eh]
	 Opposite-Spin Energy      =      -1.4659166326868776 [Eh]
	 Correlation Energy        =      -1.9139438770814983 [Eh]
	 Total Energy              =    -404.8751376636707278 [Eh]

	 ================> DF-SCS-MP2 Energies <==================
	-----------------------------------------------------------
	 SCS Same-Spin Scale       =       0.3333333333333333 [-]
	 SCS Opposite-Spin Scale   =       1.2000000000000000 [-]
	 SCS Same-Spin Energy      =      -0.1493424147982069 [Eh]
	 SCS Opposite-Spin Energy  =      -1.7590999592242531 [Eh]
	 SCS Correlation Energy    =      -1.9084423740224601 [Eh]
	 SCS Total Energy          =    -404.8696361606116625 [Eh]
	-----------------------------------------------------------

  Dipole Moment: [D]
     X:     0.5535      Y:     1.0681      Z:     0.5074     Total:     1.3056

*** Psi4 exiting successfully. Buy a developer a beer!
