                               Psi4 1.4a3.dev225

  ==> Input File <==

--------------------------------------------------------------------------
#psi4
#
memory 32 gb

molecule  {
0 1
  N        1.6268380     0.6089620    -0.4693990
  C        0.3031040     0.1485790    -0.2066970
  C       -0.7706010     1.0561020    -0.0842670
  C        0.0806060    -1.2405240    -0.1151990
  C       -2.0579110     0.5582020     0.1415980
  C       -1.2176000    -1.6989120     0.1341680
  C       -2.2850370    -0.8120180     0.2620550
  C       -0.5406870     2.5426280    -0.1993030
  C        1.2072340    -2.2197810    -0.3093320
  C        2.5023020     0.6131830     0.7097540
  H       -2.8885640     1.2560570     0.2350690
  H       -1.3937740    -2.7714120     0.2029680
  H        1.5916390     1.5501200    -0.8540680
  H       -3.2895990    -1.1861590     0.4450020
  H        0.2351210     2.8885850     0.4923550
  H       -0.2380210     2.8365620    -1.2118290
  H       -1.4595390     3.0868260     0.0338520
  H        2.0087672    -1.7764737    -1.0735468
  H        1.7264620    -2.4417900     0.6300600
  H        0.8237630    -3.1662910    -0.7010550
  H        2.0935470     1.1833990     1.5571020
  H        3.4676080     1.0418550     0.4271840
  H        2.6734620    -0.4116070     1.0419720
units angstrom
no_reorient  #important for SAPT in psi4, default
symmetry c1  #important for SAPT in psi4, default
}

set PROPERTIES_ORIGIN ["COM"]
properties('MP2/aug-cc-pvtz', properties = ['dipole'])
--------------------------------------------------------------------------

    Molecular point group: c1
  Charge       = 0
  Multiplicity = 1
  Basis Set: AUG-CC-PVTZ
    Blend: AUG-CC-PVTZ
  Basis Set: (AUG-CC-PVTZ AUX)
    Blend: AUG-CC-PVTZ-JKFIT

    Orbital Energies [Eh]
    ---------------------

    Doubly Occupied:

       1A    -15.553747     2A    -11.258541     3A    -11.249503
       4A    -11.236155     5A    -11.232884     6A    -11.228514
       7A    -11.225773     8A    -11.225006     9A    -11.224696
      10A    -11.223614    11A     -1.226526    12A     -1.131119
      13A     -1.053769    14A     -1.011644    15A     -0.943894
      16A     -0.919810    17A     -0.890409    18A     -0.794837
      19A     -0.779957    20A     -0.692772    21A     -0.659592
      22A     -0.629746    23A     -0.602327    24A     -0.591449
      25A     -0.579029    26A     -0.569087    27A     -0.564689
      28A     -0.556911    29A     -0.547413    30A     -0.529815
      31A     -0.512231    32A     -0.485332    33A     -0.476080
      34A     -0.469660    35A     -0.401732    36A     -0.317355
      37A     -0.303044

  @DF-RHF Final Energy:  -402.95487689665867

   => Energetics <=

    Nuclear Repulsion Energy =            520.9316668228779008
    One-Electron Energy =               -1577.9757651999179870
    Two-Electron Energy =                 654.0892214803812976
    Total Energy =                       -402.9548768966586749
  Basis Set: (AUG-CC-PVTZ AUX)
    Blend: AUG-CC-PVTZ-RI
    Molecular point group: c1

    Geometry (in Angstrom), charge = 0, multiplicity = 1:

       Center              X                  Y                   Z               Mass
    ------------   -----------------  -----------------  -----------------  -----------------
         N            1.665101660265     0.623744072964    -0.459443368774    14.003074004430
         C            0.341367660265     0.163361072964    -0.196741368774    12.000000000000
         C           -0.732337339735     1.070884072964    -0.074311368774    12.000000000000
         C            0.118869660265    -1.225741927036    -0.105243368774    12.000000000000
         C           -2.019647339735     0.572984072964     0.151553631226    12.000000000000
         C           -1.179336339735    -1.684129927036     0.144123631226    12.000000000000
         C           -2.246773339735    -0.797235927036     0.272010631226    12.000000000000
         C           -0.502423339735     2.557410072964    -0.189347368774    12.000000000000
         C            1.245497660265    -2.204998927036    -0.299376368774    12.000000000000
         C            2.540565660265     0.627965072964     0.719709631226    12.000000000000
         H           -2.850300339735     1.270839072964     0.245024631226     1.007825032230
         H           -1.355510339735    -2.756629927036     0.212923631226     1.007825032230
         H            1.629902660265     1.564902072964    -0.844112368774     1.007825032230
         H           -3.251335339735    -1.171376927036     0.454957631226     1.007825032230
         H            0.273384660265     2.903367072964     0.502310631226     1.007825032230
         H           -0.199757339735     2.851344072964    -1.201873368774     1.007825032230
         H           -1.421275339735     3.101608072964     0.043807631226     1.007825032230
         H            2.047030860265    -1.761691627036    -1.063591168774     1.007825032230
         H            1.764725660265    -2.427007927036     0.640015631226     1.007825032230
         H            0.862026660265    -3.151508927036    -0.691099368774     1.007825032230
         H            2.131810660265     1.198181072964     1.567057631226     1.007825032230
         H            3.505871660265     1.056637072964     0.437139631226     1.007825032230
         H            2.711725660265    -0.396824927036     1.051927631226     1.007825032230

  Basis Set: AUG-CC-PVTZ
    Blend: AUG-CC-PVTZ
  Basis Set: (AUG-CC-PVTZ AUX)
    Blend: AUG-CC-PVTZ-JKFIT
	 Reference Energy          =    -402.9548768966586749 [Eh]
	 Singles Energy            =      -0.0000000000000000 [Eh]
	 Same-Spin Energy          =      -0.4481996347387536 [Eh]
	 Opposite-Spin Energy      =      -1.4668391608641320 [Eh]
	 Correlation Energy        =      -1.9150387956028856 [Eh]
	 Total Energy              =    -404.8699156922615430 [Eh]

	 ================> DF-SCS-MP2 Energies <==================
	-----------------------------------------------------------
	 SCS Same-Spin Scale       =       0.3333333333333333 [-]
	 SCS Opposite-Spin Scale   =       1.2000000000000000 [-]
	 SCS Same-Spin Energy      =      -0.1493998782462512 [Eh]
	 SCS Opposite-Spin Energy  =      -1.7602069930369584 [Eh]
	 SCS Correlation Energy    =      -1.9096068712832095 [Eh]
	 SCS Total Energy          =    -404.8644837679418629 [Eh]
	-----------------------------------------------------------

  Dipole Moment: [D]
     X:     0.5015      Y:     1.0961      Z:     0.5417     Total:     1.3214

*** Psi4 exiting successfully. Buy a developer a beer!
