                               Psi4 1.4a3.dev225

  ==> Input File <==

--------------------------------------------------------------------------
#psi4
#
memory 32 gb

molecule  {
0 1
  N        1.6268380     0.6089620    -0.4693990
  C        0.3031040     0.1485790    -0.2066970
  C       -0.7706010     1.0561020    -0.0842670
  C        0.0806060    -1.2405240    -0.1151990
  C       -2.0579110     0.5582020     0.1415980
  C       -1.2176000    -1.6989120     0.1341680
  C       -2.2931828    -0.8611605     0.2663751
  C       -0.5406870     2.5426280    -0.1993030
  C        1.2072340    -2.2197810    -0.3093320
  C        2.5023020     0.6131830     0.7097540
  H       -2.8885640     1.2560570     0.2350690
  H       -1.3937740    -2.7714120     0.2029680
  H        1.5916390     1.5501200    -0.8540680
  H       -3.2895990    -1.1861590     0.4450020
  H        0.2351210     2.8885850     0.4923550
  H       -0.2380210     2.8365620    -1.2118290
  H       -1.4595390     3.0868260     0.0338520
  H        1.9415750    -1.8136360    -1.0094830
  H        1.7264620    -2.4417900     0.6300600
  H        0.8237630    -3.1662910    -0.7010550
  H        2.0935470     1.1833990     1.5571020
  H        3.4676080     1.0418550     0.4271840
  H        2.6734620    -0.4116070     1.0419720
units angstrom
no_reorient  #important for SAPT in psi4, default
symmetry c1  #important for SAPT in psi4, default
}

set PROPERTIES_ORIGIN ["COM"]
properties('MP2/aug-cc-pvtz', properties = ['dipole'])
--------------------------------------------------------------------------

    Molecular point group: c1
  Charge       = 0
  Multiplicity = 1
  Basis Set: AUG-CC-PVTZ
    Blend: AUG-CC-PVTZ
  Basis Set: (AUG-CC-PVTZ AUX)
    Blend: AUG-CC-PVTZ-JKFIT

    Orbital Energies [Eh]
    ---------------------

    Doubly Occupied:

       1A    -15.554030     2A    -11.258768     3A    -11.249782
       4A    -11.236340     5A    -11.231694     6A    -11.229834
       7A    -11.228545     8A    -11.224920     9A    -11.221441
      10A    -11.214151    11A     -1.226652    12A     -1.128850
      13A     -1.054447    14A     -1.011327    15A     -0.945516
      16A     -0.921427    17A     -0.891726    18A     -0.795219
      19A     -0.782514    20A     -0.691436    21A     -0.661804
      22A     -0.630395    23A     -0.605634    24A     -0.590967
      25A     -0.578438    26A     -0.568966    27A     -0.565474
      28A     -0.556345    29A     -0.552191    30A     -0.532102
      31A     -0.518821    32A     -0.490671    33A     -0.472430
      34A     -0.468913    35A     -0.402366    36A     -0.318894
      37A     -0.300244

  @DF-RHF Final Energy:  -402.95857501975280

   => Energetics <=

    Nuclear Repulsion Energy =            520.8182886125268851
    One-Electron Energy =               -1577.7271774434120744
    Two-Electron Energy =                 653.9503138111323324
    Total Energy =                       -402.9585750197528569
  Basis Set: (AUG-CC-PVTZ AUX)
    Blend: AUG-CC-PVTZ-RI
    Molecular point group: c1

    Geometry (in Angstrom), charge = 0, multiplicity = 1:

       Center              X                  Y                   Z               Mass
    ------------   -----------------  -----------------  -----------------  -----------------
         N            1.666326395299     0.628386121943    -0.460304968819    14.003074004430
         C            0.342592395299     0.168003121943    -0.197602968819    12.000000000000
         C           -0.731112604701     1.075526121943    -0.075172968819    12.000000000000
         C            0.120094395299    -1.221099878057    -0.106104968819    12.000000000000
         C           -2.018422604701     0.577626121943     0.150692031181    12.000000000000
         C           -1.178111604701    -1.679487878057     0.143262031181    12.000000000000
         C           -2.253694404701    -0.841736378057     0.275469131181    12.000000000000
         C           -0.501198604701     2.562052121943    -0.190208968819    12.000000000000
         C            1.246722395299    -2.200356878057    -0.300237968819    12.000000000000
         C            2.541790395299     0.632607121943     0.718848031181    12.000000000000
         H           -2.849075604701     1.275481121943     0.244163031181     1.007825032230
         H           -1.354285604701    -2.751987878057     0.212062031181     1.007825032230
         H            1.631127395299     1.569544121943    -0.844973968819     1.007825032230
         H           -3.250110604701    -1.166734878057     0.454096031181     1.007825032230
         H            0.274609395299     2.908009121943     0.501449031181     1.007825032230
         H           -0.198532604701     2.855986121943    -1.202734968819     1.007825032230
         H           -1.420050604701     3.106250121943     0.042946031181     1.007825032230
         H            1.981063395299    -1.794211878057    -1.000388968819     1.007825032230
         H            1.765950395299    -2.422365878057     0.639154031181     1.007825032230
         H            0.863251395299    -3.146866878057    -0.691960968819     1.007825032230
         H            2.133035395299     1.202823121943     1.566196031181     1.007825032230
         H            3.507096395299     1.061279121943     0.436278031181     1.007825032230
         H            2.712950395299    -0.392182878057     1.051066031181     1.007825032230

  Basis Set: AUG-CC-PVTZ
    Blend: AUG-CC-PVTZ
  Basis Set: (AUG-CC-PVTZ AUX)
    Blend: AUG-CC-PVTZ-JKFIT
	 Reference Energy          =    -402.9585750197528000 [Eh]
	 Singles Energy            =      -0.0000000000000000 [Eh]
	 Same-Spin Energy          =      -0.4479196664615386 [Eh]
	 Opposite-Spin Energy      =      -1.4662198303955751 [Eh]
	 Correlation Energy        =      -1.9141394968571137 [Eh]
	 Total Energy              =    -404.8727145166099035 [Eh]

	 ================> DF-SCS-MP2 Energies <==================
	-----------------------------------------------------------
	 SCS Same-Spin Scale       =       0.3333333333333333 [-]
	 SCS Opposite-Spin Scale   =       1.2000000000000000 [-]
	 SCS Same-Spin Energy      =      -0.1493065554871795 [Eh]
	 SCS Opposite-Spin Energy  =      -1.7594637964746902 [Eh]
	 SCS Correlation Energy    =      -1.9087703519618697 [Eh]
	 SCS Total Energy          =    -404.8673453717146913 [Eh]
	-----------------------------------------------------------

  Dipole Moment: [D]
     X:     0.5334      Y:     1.0839      Z:     0.5211     Total:     1.3156

*** Psi4 exiting successfully. Buy a developer a beer!
