                               Psi4 1.4a3.dev225

  ==> Input File <==

--------------------------------------------------------------------------
#psi4
#
memory 32 gb

molecule  {
0 1
  N        1.6268380     0.6089620    -0.4693990
  C        0.3031040     0.1485790    -0.2066970
  C       -0.7706010     1.0561020    -0.0842670
  C        0.0806060    -1.2405240    -0.1151990
  C       -2.0579110     0.5582020     0.1415980
  C       -1.2176000    -1.6989120     0.1341680
  C       -2.2850370    -0.8120180     0.2620550
  C       -0.5406870     2.5426280    -0.1993030
  C        1.2072340    -2.2197810    -0.3093320
  C        2.5023020     0.6131830     0.7097540
  H       -2.8885640     1.2560570     0.2350690
  H       -1.3937740    -2.7714120     0.2029680
  H        1.5916390     1.5501200    -0.8540680
  H       -3.2895990    -1.1861590     0.4450020
  H        0.2351210     2.8885850     0.4923550
  H       -0.2380210     2.8365620    -1.2118290
  H       -1.4595390     3.0868260     0.0338520
  H        1.9415750    -1.8136360    -1.0094830
  H        1.7264620    -2.4417900     0.6300600
  H        0.8237630    -3.1662910    -0.7010550
  H        2.0935470     1.1833990     1.5571020
  H        3.4676080     1.0418550     0.4271840
  H        2.6703238    -0.3928174     1.0358808
units angstrom
no_reorient  #important for SAPT in psi4, default
symmetry c1  #important for SAPT in psi4, default
}

set PROPERTIES_ORIGIN ["COM"]
properties('MP2/aug-cc-pvtz', properties = ['dipole'])
--------------------------------------------------------------------------

    Molecular point group: c1
  Charge       = 0
  Multiplicity = 1
  Basis Set: AUG-CC-PVTZ
    Blend: AUG-CC-PVTZ
  Basis Set: (AUG-CC-PVTZ AUX)
    Blend: AUG-CC-PVTZ-JKFIT

    Orbital Energies [Eh]
    ---------------------

    Doubly Occupied:

       1A    -15.553541     2A    -11.258174     3A    -11.247241
       4A    -11.235854     5A    -11.232017     6A    -11.228318
       7A    -11.225364     8A    -11.224202     9A    -11.222998
      10A    -11.214171    11A     -1.226517    12A     -1.130850
      13A     -1.054386    14A     -1.012516    15A     -0.945965
      16A     -0.922198    17A     -0.893425    18A     -0.794773
      19A     -0.781292    20A     -0.692730    21A     -0.660671
      22A     -0.629523    23A     -0.603490    24A     -0.592474
      25A     -0.578865    26A     -0.569128    27A     -0.565525
      28A     -0.556785    29A     -0.552249    30A     -0.532280
      31A     -0.521166    32A     -0.485581    33A     -0.477039
      34A     -0.470865    35A     -0.402474    36A     -0.317073
      37A     -0.302701

  @DF-RHF Final Energy:  -402.96181775791490

   => Energetics <=

    Nuclear Repulsion Energy =            521.3926320462219337
    One-Electron Energy =               -1578.8800598532995991
    Two-Electron Energy =                 654.5256100491627649
    Total Energy =                       -402.9618177579149005
  Basis Set: (AUG-CC-PVTZ AUX)
    Blend: AUG-CC-PVTZ-RI
    Molecular point group: c1

    Geometry (in Angstrom), charge = 0, multiplicity = 1:

       Center              X                  Y                   Z               Mass
    ------------   -----------------  -----------------  -----------------  -----------------
         N            1.665626295496     0.623881125586    -0.459875820010    14.003074004430
         C            0.341892295496     0.163498125586    -0.197173820010    12.000000000000
         C           -0.731812704504     1.071021125586    -0.074743820010    12.000000000000
         C            0.119394295496    -1.225604874414    -0.105675820010    12.000000000000
         C           -2.019122704504     0.573121125586     0.151121179990    12.000000000000
         C           -1.178811704504    -1.683992874414     0.143691179990    12.000000000000
         C           -2.246248704504    -0.797098874414     0.271578179990    12.000000000000
         C           -0.501898704504     2.557547125586    -0.189779820010    12.000000000000
         C            1.246022295496    -2.204861874414    -0.299808820010    12.000000000000
         C            2.541090295496     0.628102125586     0.719277179990    12.000000000000
         H           -2.849775704504     1.270976125586     0.244592179990     1.007825032230
         H           -1.354985704504    -2.756492874414     0.212491179990     1.007825032230
         H            1.630427295496     1.565039125586    -0.844544820010     1.007825032230
         H           -3.250810704504    -1.171239874414     0.454525179990     1.007825032230
         H            0.273909295496     2.903504125586     0.501878179990     1.007825032230
         H           -0.199232704504     2.851481125586    -1.202305820010     1.007825032230
         H           -1.420750704504     3.101745125586     0.043375179990     1.007825032230
         H            1.980363295496    -1.798716874414    -0.999959820010     1.007825032230
         H            1.765250295496    -2.426870874414     0.639583179990     1.007825032230
         H            0.862551295496    -3.151371874414    -0.691531820010     1.007825032230
         H            2.132335295496     1.198318125586     1.566625179990     1.007825032230
         H            3.506396295496     1.056774125586     0.436707179990     1.007825032230
         H            2.709112095496    -0.377898274414     1.045403979990     1.007825032230

  Basis Set: AUG-CC-PVTZ
    Blend: AUG-CC-PVTZ
  Basis Set: (AUG-CC-PVTZ AUX)
    Blend: AUG-CC-PVTZ-JKFIT
	 Reference Energy          =    -402.9618177579149005 [Eh]
	 Singles Energy            =      -0.0000000000000000 [Eh]
	 Same-Spin Energy          =      -0.4479599575384556 [Eh]
	 Opposite-Spin Energy      =      -1.4657734692220263 [Eh]
	 Correlation Energy        =      -1.9137334267604820 [Eh]
	 Total Energy              =    -404.8755511846753734 [Eh]

	 ================> DF-SCS-MP2 Energies <==================
	-----------------------------------------------------------
	 SCS Same-Spin Scale       =       0.3333333333333333 [-]
	 SCS Opposite-Spin Scale   =       1.2000000000000000 [-]
	 SCS Same-Spin Energy      =      -0.1493199858461519 [Eh]
	 SCS Opposite-Spin Energy  =      -1.7589281630664315 [Eh]
	 SCS Correlation Energy    =      -1.9082481489125833 [Eh]
	 SCS Total Energy          =    -404.8700659068275058 [Eh]
	-----------------------------------------------------------

  Dipole Moment: [D]
     X:     0.5444      Y:     1.0659      Z:     0.5258     Total:     1.3073

*** Psi4 exiting successfully. Buy a developer a beer!
