                               Psi4 1.4a3.dev225

  ==> Input File <==

--------------------------------------------------------------------------
#psi4
#
memory 32 gb

molecule  {
0 1
  N        1.6268380     0.6089620    -0.4693990
  C        0.3031040     0.1485790    -0.2066970
  C       -0.7706010     1.0561020    -0.0842670
  C        0.0806060    -1.2405240    -0.1151990
  C       -2.0579110     0.5582020     0.1415980
  C       -1.2176000    -1.6989120     0.1341680
  C       -2.2850370    -0.8120180     0.2620550
  C       -0.5406870     2.5426280    -0.1993030
  C        1.2072340    -2.2197810    -0.3093320
  C        2.5023020     0.6131830     0.7097540
  H       -2.8885640     1.2560570     0.2350690
  H       -1.3937740    -2.7714120     0.2029680
  H        1.5916390     1.5501200    -0.8540680
  H       -3.2895990    -1.1861590     0.4450020
  H        0.2351210     2.8885850     0.4923550
  H       -0.2380210     2.8365620    -1.2118290
  H       -1.4595390     3.0868260     0.0338520
  H        1.9550134    -1.8062035    -1.0222958
  H        1.7264620    -2.4417900     0.6300600
  H        0.8237630    -3.1662910    -0.7010550
  H        2.0935470     1.1833990     1.5571020
  H        3.4676080     1.0418550     0.4271840
  H        2.6734620    -0.4116070     1.0419720
units angstrom
no_reorient  #important for SAPT in psi4, default
symmetry c1  #important for SAPT in psi4, default
}

set PROPERTIES_ORIGIN ["COM"]
properties('MP2/aug-cc-pvtz', properties = ['dipole'])
--------------------------------------------------------------------------

    Molecular point group: c1
  Charge       = 0
  Multiplicity = 1
  Basis Set: AUG-CC-PVTZ
    Blend: AUG-CC-PVTZ
  Basis Set: (AUG-CC-PVTZ AUX)
    Blend: AUG-CC-PVTZ-JKFIT

    Orbital Energies [Eh]
    ---------------------

    Doubly Occupied:

       1A    -15.553787     2A    -11.258275     3A    -11.249613
       4A    -11.235939     5A    -11.232191     6A    -11.228403
       7A    -11.225453     8A    -11.224303     9A    -11.223123
      10A    -11.216366    11A     -1.226544    12A     -1.130883
      13A     -1.054224    14A     -1.012214    15A     -0.944983
      16A     -0.921614    17A     -0.891715    18A     -0.794672
      19A     -0.780962    20A     -0.692607    21A     -0.660454
      22A     -0.629561    23A     -0.603192    24A     -0.591495
      25A     -0.578849    26A     -0.568824    27A     -0.565096
      28A     -0.556708    29A     -0.551103    30A     -0.530458
      31A     -0.519592    32A     -0.485335    33A     -0.476859
      34A     -0.470728    35A     -0.402347    36A     -0.317136
      37A     -0.302797

  @DF-RHF Final Energy:  -402.96117481449932

   => Energetics <=

    Nuclear Repulsion Energy =            521.2337293519346986
    One-Electron Energy =               -1578.5730057637708796
    Two-Electron Energy =                 654.3781015973368085
    Total Energy =                       -402.9611748144993726
  Basis Set: (AUG-CC-PVTZ AUX)
    Blend: AUG-CC-PVTZ-RI
    Molecular point group: c1

    Geometry (in Angstrom), charge = 0, multiplicity = 1:

       Center              X                  Y                   Z               Mass
    ------------   -----------------  -----------------  -----------------  -----------------
         N            1.665502641026     0.623965844779    -0.459825679698    14.003074004430
         C            0.341768641026     0.163582844779    -0.197123679698    12.000000000000
         C           -0.731936358974     1.071105844779    -0.074693679698    12.000000000000
         C            0.119270641026    -1.225520155221    -0.105625679698    12.000000000000
         C           -2.019246358974     0.573205844779     0.151171320302    12.000000000000
         C           -1.178935358974    -1.683908155221     0.143741320302    12.000000000000
         C           -2.246372358974    -0.797014155221     0.271628320302    12.000000000000
         C           -0.502022358974     2.557631844779    -0.189729679698    12.000000000000
         C            1.245898641026    -2.204777155221    -0.299758679698    12.000000000000
         C            2.540966641026     0.628186844779     0.719327320302    12.000000000000
         H           -2.849899358974     1.271060844779     0.244642320302     1.007825032230
         H           -1.355109358974    -2.756408155221     0.212541320302     1.007825032230
         H            1.630303641026     1.565123844779    -0.844494679698     1.007825032230
         H           -3.250934358974    -1.171155155221     0.454575320302     1.007825032230
         H            0.273785641026     2.903588844779     0.501928320302     1.007825032230
         H           -0.199356358974     2.851565844779    -1.202255679698     1.007825032230
         H           -1.420874358974     3.101829844779     0.043425320302     1.007825032230
         H            1.993678041026    -1.791199655221    -1.012722479698     1.007825032230
         H            1.765126641026    -2.426786155221     0.639633320302     1.007825032230
         H            0.862427641026    -3.151287155221    -0.691481679698     1.007825032230
         H            2.132211641026     1.198402844779     1.566675320302     1.007825032230
         H            3.506272641026     1.056858844779     0.436757320302     1.007825032230
         H            2.712126641026    -0.396603155221     1.051545320302     1.007825032230

  Basis Set: AUG-CC-PVTZ
    Blend: AUG-CC-PVTZ
  Basis Set: (AUG-CC-PVTZ AUX)
    Blend: AUG-CC-PVTZ-JKFIT
	 Reference Energy          =    -402.9611748144993157 [Eh]
	 Singles Energy            =      -0.0000000000000000 [Eh]
	 Same-Spin Energy          =      -0.4480304578077845 [Eh]
	 Opposite-Spin Energy      =      -1.4660861887274130 [Eh]
	 Correlation Energy        =      -1.9141166465351975 [Eh]
	 Total Energy              =    -404.8752914610345215 [Eh]

	 ================> DF-SCS-MP2 Energies <==================
	-----------------------------------------------------------
	 SCS Same-Spin Scale       =       0.3333333333333333 [-]
	 SCS Opposite-Spin Scale   =       1.2000000000000000 [-]
	 SCS Same-Spin Energy      =      -0.1493434859359282 [Eh]
	 SCS Opposite-Spin Energy  =      -1.7593034264728955 [Eh]
	 SCS Correlation Energy    =      -1.9086469124088237 [Eh]
	 SCS Total Energy          =    -404.8698217269081283 [Eh]
	-----------------------------------------------------------

  Dipole Moment: [D]
     X:     0.5323      Y:     1.0770      Z:     0.5242     Total:     1.3107

*** Psi4 exiting successfully. Buy a developer a beer!
