                               Psi4 1.4a3.dev225

  ==> Input File <==

--------------------------------------------------------------------------
#psi4
#
memory 32 gb

molecule  {
0 1
  N        1.6268380     0.6089620    -0.4693990
  C        0.3031040     0.1485790    -0.2066970
  C       -0.7706010     1.0561020    -0.0842670
  C        0.0806060    -1.2405240    -0.1151990
  C       -2.0579110     0.5582020     0.1415980
  C       -1.2176000    -1.6989120     0.1341680
  C       -2.2850370    -0.8120180     0.2620550
  C       -0.5406870     2.5426280    -0.1993030
  C        1.2072340    -2.2197810    -0.3093320
  C        2.5023020     0.6131830     0.7097540
  H       -2.9648470     1.3201445     0.2436529
  H       -1.3937740    -2.7714120     0.2029680
  H        1.5916390     1.5501200    -0.8540680
  H       -3.2895990    -1.1861590     0.4450020
  H        0.2351210     2.8885850     0.4923550
  H       -0.2380210     2.8365620    -1.2118290
  H       -1.4595390     3.0868260     0.0338520
  H        1.9415750    -1.8136360    -1.0094830
  H        1.7264620    -2.4417900     0.6300600
  H        0.8237630    -3.1662910    -0.7010550
  H        2.0935470     1.1833990     1.5571020
  H        3.4676080     1.0418550     0.4271840
  H        2.6734620    -0.4116070     1.0419720
units angstrom
no_reorient  #important for SAPT in psi4, default
symmetry c1  #important for SAPT in psi4, default
}

set PROPERTIES_ORIGIN ["COM"]
properties('MP2/aug-cc-pvtz', properties = ['dipole'])
--------------------------------------------------------------------------

    Molecular point group: c1
  Charge       = 0
  Multiplicity = 1
  Basis Set: AUG-CC-PVTZ
    Blend: AUG-CC-PVTZ
  Basis Set: (AUG-CC-PVTZ AUX)
    Blend: AUG-CC-PVTZ-JKFIT

    Orbital Energies [Eh]
    ---------------------

    Doubly Occupied:

       1A    -15.554309     2A    -11.259132     3A    -11.249961
       4A    -11.237464     5A    -11.236181     6A    -11.232572
       7A    -11.228273     8A    -11.225653     9A    -11.223965
      10A    -11.214513    11A     -1.227080    12A     -1.130963
      13A     -1.054036    14A     -1.012459    15A     -0.945559
      16A     -0.919980    17A     -0.892203    18A     -0.795195
      19A     -0.776749    20A     -0.691014    21A     -0.656627
      22A     -0.630100    23A     -0.602559    24A     -0.591783
      25A     -0.576664    26A     -0.568490    27A     -0.565352
      28A     -0.556834    29A     -0.544204    30A     -0.531156
      31A     -0.520805    32A     -0.483012    33A     -0.477328
      34A     -0.471154    35A     -0.402716    36A     -0.317798
      37A     -0.303422

  @DF-RHF Final Energy:  -402.95437195031633

   => Energetics <=

    Nuclear Repulsion Energy =            520.8178318528052841
    One-Electron Energy =               -1577.7298805511029514
    Two-Electron Energy =                 653.9576767479812816
    Total Energy =                       -402.9543719503163857
  Basis Set: (AUG-CC-PVTZ AUX)
    Blend: AUG-CC-PVTZ-RI
    Molecular point group: c1

    Geometry (in Angstrom), charge = 0, multiplicity = 1:

       Center              X                  Y                   Z               Mass
    ------------   -----------------  -----------------  -----------------  -----------------
         N            1.666171924969     0.623543222286    -0.459985290089    14.003074004430
         C            0.342437924969     0.163160222286    -0.197283290089    12.000000000000
         C           -0.731267075031     1.070683222286    -0.074853290089    12.000000000000
         C            0.119939924969    -1.225942777714    -0.105785290089    12.000000000000
         C           -2.018577075031     0.572783222286     0.151011709911    12.000000000000
         C           -1.178266075031    -1.684330777714     0.143581709911    12.000000000000
         C           -2.245703075031    -0.797436777714     0.271468709911    12.000000000000
         C           -0.501353075031     2.557209222286    -0.189889290089    12.000000000000
         C            1.246567924969    -2.205199777714    -0.299918290089    12.000000000000
         C            2.541635924969     0.627764222286     0.719167709911    12.000000000000
         H           -2.925513075031     1.334725722286     0.253066609911     1.007825032230
         H           -1.354440075031    -2.756830777714     0.212381709911     1.007825032230
         H            1.630972924969     1.564701222286    -0.844654290089     1.007825032230
         H           -3.250265075031    -1.171577777714     0.454415709911     1.007825032230
         H            0.274454924969     2.903166222286     0.501768709911     1.007825032230
         H           -0.198687075031     2.851143222286    -1.202415290089     1.007825032230
         H           -1.420205075031     3.101407222286     0.043265709911     1.007825032230
         H            1.980908924969    -1.799054777714    -1.000069290089     1.007825032230
         H            1.765795924969    -2.427208777714     0.639473709911     1.007825032230
         H            0.863096924969    -3.151709777714    -0.691641290089     1.007825032230
         H            2.132880924969     1.197980222286     1.566515709911     1.007825032230
         H            3.506941924969     1.056436222286     0.436597709911     1.007825032230
         H            2.712795924969    -0.397025777714     1.051385709911     1.007825032230

  Basis Set: AUG-CC-PVTZ
    Blend: AUG-CC-PVTZ
  Basis Set: (AUG-CC-PVTZ AUX)
    Blend: AUG-CC-PVTZ-JKFIT
	 Reference Energy          =    -402.9543719503163288 [Eh]
	 Singles Energy            =      -0.0000000000000000 [Eh]
	 Same-Spin Energy          =      -0.4482546224186537 [Eh]
	 Opposite-Spin Energy      =      -1.4668815378725002 [Eh]
	 Correlation Energy        =      -1.9151361602911539 [Eh]
	 Total Energy              =    -404.8695081106074554 [Eh]

	 ================> DF-SCS-MP2 Energies <==================
	-----------------------------------------------------------
	 SCS Same-Spin Scale       =       0.3333333333333333 [-]
	 SCS Opposite-Spin Scale   =       1.2000000000000000 [-]
	 SCS Same-Spin Energy      =      -0.1494182074728845 [Eh]
	 SCS Opposite-Spin Energy  =      -1.7602578454470001 [Eh]
	 SCS Correlation Energy    =      -1.9096760529198846 [Eh]
	 SCS Total Energy          =    -404.8640480032362348 [Eh]
	-----------------------------------------------------------

  Dipole Moment: [D]
     X:     0.5886      Y:     1.0342      Z:     0.5169     Total:     1.2974

*** Psi4 exiting successfully. Buy a developer a beer!
