                               Psi4 1.4a3.dev225

  ==> Input File <==

--------------------------------------------------------------------------
#psi4
#
memory 32 gb

molecule  {
0 1
  N        1.6268380     0.6089620    -0.4693990
  C        0.3031040     0.1485790    -0.2066970
  C       -0.7706010     1.0561020    -0.0842670
  C        0.0806060    -1.2405240    -0.1151990
  C       -2.0579110     0.5582020     0.1415980
  C       -1.2176000    -1.6989120     0.1341680
  C       -2.2850370    -0.8120180     0.2620550
  C       -0.5406870     2.5426280    -0.1993030
  C        1.2072340    -2.2197810    -0.3093320
  C        2.5023020     0.6131830     0.7097540
  H       -2.8885640     1.2560570     0.2350690
  H       -1.3937740    -2.7714120     0.2029680
  H        1.5916390     1.5501200    -0.8540680
  H       -3.2895990    -1.1861590     0.4450020
  H        0.2351210     2.8885850     0.4923550
  H       -0.2380210     2.8365620    -1.2118290
  H       -1.4595390     3.0868260     0.0338520
  H        1.9415750    -1.8136360    -1.0094830
  H        1.7264620    -2.4417900     0.6300600
  H        0.8237630    -3.1662910    -0.7010550
  H        2.0935470     1.1833990     1.5571020
  H        3.5117523     1.0614585     0.4142618
  H        2.6734620    -0.4116070     1.0419720
units angstrom
no_reorient  #important for SAPT in psi4, default
symmetry c1  #important for SAPT in psi4, default
}

set PROPERTIES_ORIGIN ["COM"]
properties('MP2/aug-cc-pvtz', properties = ['dipole'])
--------------------------------------------------------------------------

    Molecular point group: c1
  Charge       = 0
  Multiplicity = 1
  Basis Set: AUG-CC-PVTZ
    Blend: AUG-CC-PVTZ
  Basis Set: (AUG-CC-PVTZ AUX)
    Blend: AUG-CC-PVTZ-JKFIT

    Orbital Energies [Eh]
    ---------------------

    Doubly Occupied:

       1A    -15.554289     2A    -11.258568     3A    -11.255682
       4A    -11.236231     5A    -11.232374     6A    -11.228561
       7A    -11.225653     8A    -11.224498     9A    -11.223273
      10A    -11.214349    11A     -1.226748    12A     -1.130970
      13A     -1.054665    14A     -1.012268    15A     -0.944073
      16A     -0.922290    17A     -0.889406    18A     -0.794930
      19A     -0.781460    20A     -0.692148    21A     -0.661004
      22A     -0.628244    23A     -0.602625    24A     -0.591828
      25A     -0.578471    26A     -0.569166    27A     -0.565175
      28A     -0.556590    29A     -0.552234    30A     -0.525584
      31A     -0.521255    32A     -0.485544    33A     -0.476587
      34A     -0.471019    35A     -0.402534    36A     -0.317344
      37A     -0.303097

  @DF-RHF Final Energy:  -402.95963552011796

   => Energetics <=

    Nuclear Repulsion Energy =            521.0774871017853229
    One-Electron Energy =               -1578.2527669787489231
    Two-Electron Energy =                 654.2156443568455870
    Total Energy =                       -402.9596355201178994
  Basis Set: (AUG-CC-PVTZ AUX)
    Blend: AUG-CC-PVTZ-RI
    Molecular point group: c1

    Geometry (in Angstrom), charge = 0, multiplicity = 1:

       Center              X                  Y                   Z               Mass
    ------------   -----------------  -----------------  -----------------  -----------------
         N            1.665273587915     0.623875054234    -0.459824863620    14.003074004430
         C            0.341539587915     0.163492054234    -0.197122863620    12.000000000000
         C           -0.732165412085     1.071015054234    -0.074692863620    12.000000000000
         C            0.119041587915    -1.225610945766    -0.105624863620    12.000000000000
         C           -2.019475412085     0.573115054234     0.151172136380    12.000000000000
         C           -1.179164412085    -1.683998945766     0.143742136380    12.000000000000
         C           -2.246601412085    -0.797104945766     0.271629136380    12.000000000000
         C           -0.502251412085     2.557541054234    -0.189728863620    12.000000000000
         C            1.245669587915    -2.204867945766    -0.299757863620    12.000000000000
         C            2.540737587915     0.628096054234     0.719328136380    12.000000000000
         H           -2.850128412085     1.270970054234     0.244643136380     1.007825032230
         H           -1.355338412085    -2.756498945766     0.212542136380     1.007825032230
         H            1.630074587915     1.565033054234    -0.844493863620     1.007825032230
         H           -3.251163412085    -1.171245945766     0.454576136380     1.007825032230
         H            0.273556587915     2.903498054234     0.501929136380     1.007825032230
         H           -0.199585412085     2.851475054234    -1.202254863620     1.007825032230
         H           -1.421103412085     3.101739054234     0.043426136380     1.007825032230
         H            1.980010587915    -1.798722945766    -0.999908863620     1.007825032230
         H            1.764897587915    -2.426876945766     0.639634136380     1.007825032230
         H            0.862198587915    -3.151377945766    -0.691480863620     1.007825032230
         H            2.131982587915     1.198312054234     1.566676136380     1.007825032230
         H            3.550187887915     1.076371554234     0.423835936380     1.007825032230
         H            2.711897587915    -0.396693945766     1.051546136380     1.007825032230

  Basis Set: AUG-CC-PVTZ
    Blend: AUG-CC-PVTZ
  Basis Set: (AUG-CC-PVTZ AUX)
    Blend: AUG-CC-PVTZ-JKFIT
	 Reference Energy          =    -402.9596355201179563 [Eh]
	 Singles Energy            =      -0.0000000000000000 [Eh]
	 Same-Spin Energy          =      -0.4479994965497871 [Eh]
	 Opposite-Spin Energy      =      -1.4662639089923630 [Eh]
	 Correlation Energy        =      -1.9142634055421501 [Eh]
	 Total Energy              =    -404.8738989256601144 [Eh]

	 ================> DF-SCS-MP2 Energies <==================
	-----------------------------------------------------------
	 SCS Same-Spin Scale       =       0.3333333333333333 [-]
	 SCS Opposite-Spin Scale   =       1.2000000000000000 [-]
	 SCS Same-Spin Energy      =      -0.1493331655165957 [Eh]
	 SCS Opposite-Spin Energy  =      -1.7595166907908355 [Eh]
	 SCS Correlation Energy    =      -1.9088498563074312 [Eh]
	 SCS Total Energy          =    -404.8684853764253830 [Eh]
	-----------------------------------------------------------

  Dipole Moment: [D]
     X:     0.4964      Y:     1.0579      Z:     0.5179     Total:     1.2782

*** Psi4 exiting successfully. Buy a developer a beer!
