                               Psi4 1.4a3.dev225

  ==> Input File <==

--------------------------------------------------------------------------
#psi4
#
memory 32 gb

molecule  {
0 1
  N        1.6268380     0.6089620    -0.4693990
  C        0.3031040     0.1485790    -0.2066970
  C       -0.8466866     1.1204115    -0.0755913
  C        0.0806060    -1.2405240    -0.1151990
  C       -2.0579110     0.5582020     0.1415980
  C       -1.2176000    -1.6989120     0.1341680
  C       -2.2850370    -0.8120180     0.2620550
  C       -0.5406870     2.5426280    -0.1993030
  C        1.2072340    -2.2197810    -0.3093320
  C        2.5023020     0.6131830     0.7097540
  H       -2.8885640     1.2560570     0.2350690
  H       -1.3937740    -2.7714120     0.2029680
  H        1.5916390     1.5501200    -0.8540680
  H       -3.2895990    -1.1861590     0.4450020
  H        0.2351210     2.8885850     0.4923550
  H       -0.2380210     2.8365620    -1.2118290
  H       -1.4595390     3.0868260     0.0338520
  H        1.9415750    -1.8136360    -1.0094830
  H        1.7264620    -2.4417900     0.6300600
  H        0.8237630    -3.1662910    -0.7010550
  H        2.0935470     1.1833990     1.5571020
  H        3.4676080     1.0418550     0.4271840
  H        2.6734620    -0.4116070     1.0419720
units angstrom
no_reorient  #important for SAPT in psi4, default
symmetry c1  #important for SAPT in psi4, default
}

set PROPERTIES_ORIGIN ["COM"]
properties('MP2/aug-cc-pvtz', properties = ['dipole'])
--------------------------------------------------------------------------

    Molecular point group: c1
  Charge       = 0
  Multiplicity = 1
  Basis Set: AUG-CC-PVTZ
    Blend: AUG-CC-PVTZ
  Basis Set: (AUG-CC-PVTZ AUX)
    Blend: AUG-CC-PVTZ-JKFIT

    Orbital Energies [Eh]
    ---------------------

    Doubly Occupied:

       1A    -15.555690     2A    -11.266455     3A    -11.250282
       4A    -11.238495     5A    -11.229491     6A    -11.227744
       7A    -11.225124     8A    -11.223311     9A    -11.220549
      10A    -11.213478    11A     -1.223916    12A     -1.131153
      13A     -1.061965    14A     -1.012015    15A     -0.942295
      16A     -0.928005    17A     -0.888738    18A     -0.800684
      19A     -0.768037    20A     -0.694653    21A     -0.657628
      22A     -0.632895    23A     -0.605756    24A     -0.593325
      25A     -0.578590    26A     -0.569136    27A     -0.567400
      28A     -0.559504    29A     -0.553953    30A     -0.531636
      31A     -0.520865    32A     -0.487064    33A     -0.475234
      34A     -0.466346    35A     -0.399507    36A     -0.323736
      37A     -0.292808

  @DF-RHF Final Energy:  -402.94935410388536

   => Energetics <=

    Nuclear Repulsion Energy =            520.3617720046562454
    One-Electron Energy =               -1576.7873246419242150
    Two-Electron Energy =                 653.4761985333827852
    Total Energy =                       -402.9493541038852982
  Basis Set: (AUG-CC-PVTZ AUX)
    Blend: AUG-CC-PVTZ-RI
    Molecular point group: c1

    Geometry (in Angstrom), charge = 0, multiplicity = 1:

       Center              X                  Y                   Z               Mass
    ------------   -----------------  -----------------  -----------------  -----------------
         N            1.672360804169     0.618309322260    -0.460691832944    14.003074004430
         C            0.348626804169     0.157926322260    -0.197989832944    12.000000000000
         C           -0.801163795831     1.129758822260    -0.066884132944    12.000000000000
         C            0.126128804169    -1.231176677740    -0.106491832944    12.000000000000
         C           -2.012388195831     0.567549322260     0.150305167056    12.000000000000
         C           -1.172077195831    -1.689564677740     0.142875167056    12.000000000000
         C           -2.239514195831    -0.802670677740     0.270762167056    12.000000000000
         C           -0.495164195831     2.551975322260    -0.190595832944    12.000000000000
         C            1.252756804169    -2.210433677740    -0.300624832944    12.000000000000
         C            2.547824804169     0.622530322260     0.718461167056    12.000000000000
         H           -2.843041195831     1.265404322260     0.243776167056     1.007825032230
         H           -1.348251195831    -2.762064677740     0.211675167056     1.007825032230
         H            1.637161804169     1.559467322260    -0.845360832944     1.007825032230
         H           -3.244076195831    -1.176811677740     0.453709167056     1.007825032230
         H            0.280643804169     2.897932322260     0.501062167056     1.007825032230
         H           -0.192498195831     2.845909322260    -1.203121832944     1.007825032230
         H           -1.414016195831     3.096173322260     0.042559167056     1.007825032230
         H            1.987097804169    -1.804288677740    -1.000775832944     1.007825032230
         H            1.771984804169    -2.432442677740     0.638767167056     1.007825032230
         H            0.869285804169    -3.156943677740    -0.692347832944     1.007825032230
         H            2.139069804169     1.192746322260     1.565809167056     1.007825032230
         H            3.513130804169     1.051202322260     0.435891167056     1.007825032230
         H            2.718984804169    -0.402259677740     1.050679167056     1.007825032230

  Basis Set: AUG-CC-PVTZ
    Blend: AUG-CC-PVTZ
  Basis Set: (AUG-CC-PVTZ AUX)
    Blend: AUG-CC-PVTZ-JKFIT
	 Reference Energy          =    -402.9493541038853550 [Eh]
	 Singles Energy            =      -0.0000000000000000 [Eh]
	 Same-Spin Energy          =      -0.4484884205204922 [Eh]
	 Opposite-Spin Energy      =      -1.4671965145658195 [Eh]
	 Correlation Energy        =      -1.9156849350863117 [Eh]
	 Total Energy              =    -404.8650390389716449 [Eh]

	 ================> DF-SCS-MP2 Energies <==================
	-----------------------------------------------------------
	 SCS Same-Spin Scale       =       0.3333333333333333 [-]
	 SCS Opposite-Spin Scale   =       1.2000000000000000 [-]
	 SCS Same-Spin Energy      =      -0.1494961401734974 [Eh]
	 SCS Opposite-Spin Energy  =      -1.7606358174789833 [Eh]
	 SCS Correlation Energy    =      -1.9101319576524807 [Eh]
	 SCS Total Energy          =    -404.8594860615378366 [Eh]
	-----------------------------------------------------------

  Dipole Moment: [D]
     X:     0.6226      Y:     1.1524      Z:     0.5030     Total:     1.4031

*** Psi4 exiting successfully. Buy a developer a beer!
