                               Psi4 1.4a3.dev225

  ==> Input File <==

--------------------------------------------------------------------------
#psi4
#
memory 32 gb

molecule  {
0 1
  N        1.6268380     0.6089620    -0.4693990
  C        0.3031040     0.1485790    -0.2066970
  C       -0.7706010     1.0561020    -0.0842670
  C        0.0806060    -1.2405240    -0.1151990
  C       -2.0579110     0.5582020     0.1415980
  C       -1.2176000    -1.6989120     0.1341680
  C       -2.2850370    -0.8120180     0.2620550
  C       -0.5406870     2.5426280    -0.1993030
  C        1.2072340    -2.2197810    -0.3093320
  C        2.5023020     0.6131830     0.7097540
  H       -2.8885640     1.2560570     0.2350690
  H       -1.3937740    -2.7714120     0.2029680
  H        1.5916390     1.5501200    -0.8540680
  H       -3.2895990    -1.1861590     0.4450020
  H        0.2351210     2.8885850     0.4923550
  H       -0.2380210     2.8365620    -1.2118290
  H       -1.4595390     3.0868260     0.0338520
  H        1.9415750    -1.8136360    -1.0094830
  H        1.7264620    -2.4417900     0.6300600
  H        0.8167512    -3.1835980    -0.7082177
  H        2.0935470     1.1833990     1.5571020
  H        3.4676080     1.0418550     0.4271840
  H        2.6734620    -0.4116070     1.0419720
units angstrom
no_reorient  #important for SAPT in psi4, default
symmetry c1  #important for SAPT in psi4, default
}

set PROPERTIES_ORIGIN ["COM"]
properties('MP2/aug-cc-pvtz', properties = ['dipole'])
--------------------------------------------------------------------------

    Molecular point group: c1
  Charge       = 0
  Multiplicity = 1
  Basis Set: AUG-CC-PVTZ
    Blend: AUG-CC-PVTZ
  Basis Set: (AUG-CC-PVTZ AUX)
    Blend: AUG-CC-PVTZ-JKFIT

    Orbital Energies [Eh]
    ---------------------

    Doubly Occupied:

       1A    -15.553921     2A    -11.258371     3A    -11.249760
       4A    -11.235969     5A    -11.232202     6A    -11.228445
       7A    -11.225445     8A    -11.224264     9A    -11.223045
      10A    -11.216556    11A     -1.226675    12A     -1.130885
      13A     -1.054211    14A     -1.012290    15A     -0.944941
      16A     -0.921789    17A     -0.891787    18A     -0.794644
      19A     -0.780914    20A     -0.692609    21A     -0.660796
      22A     -0.629425    23A     -0.603590    24A     -0.591620
      25A     -0.578911    26A     -0.567902    27A     -0.565289
      28A     -0.555790    29A     -0.552333    30A     -0.530845
      31A     -0.519537    32A     -0.485479    33A     -0.476876
      34A     -0.470758    35A     -0.402585    36A     -0.317110
      37A     -0.302836

  @DF-RHF Final Energy:  -402.96121666131683

   => Energetics <=

    Nuclear Repulsion Energy =            521.2210662415322986
    One-Electron Energy =               -1578.5437632950661282
    Two-Electron Energy =                 654.3614803922170040
    Total Energy =                       -402.9612166613168256
  Basis Set: (AUG-CC-PVTZ AUX)
    Blend: AUG-CC-PVTZ-RI
    Molecular point group: c1

    Geometry (in Angstrom), charge = 0, multiplicity = 1:

       Center              X                  Y                   Z               Mass
    ------------   -----------------  -----------------  -----------------  -----------------
         N            1.665655190925     0.624150391054    -0.459867827070    14.003074004430
         C            0.341921190925     0.163767391054    -0.197165827070    12.000000000000
         C           -0.731783809075     1.071290391054    -0.074735827070    12.000000000000
         C            0.119423190925    -1.225335608946    -0.105667827070    12.000000000000
         C           -2.019093809075     0.573390391054     0.151129172930    12.000000000000
         C           -1.178782809075    -1.683723608946     0.143699172930    12.000000000000
         C           -2.246219809075    -0.796829608946     0.271586172930    12.000000000000
         C           -0.501869809075     2.557816391054    -0.189771827070    12.000000000000
         C            1.246051190925    -2.204592608946    -0.299800827070    12.000000000000
         C            2.541119190925     0.628371391054     0.719285172930    12.000000000000
         H           -2.849746809075     1.271245391054     0.244600172930     1.007825032230
         H           -1.354956809075    -2.756223608946     0.212499172930     1.007825032230
         H            1.630456190925     1.565308391054    -0.844536827070     1.007825032230
         H           -3.250781809075    -1.170970608946     0.454533172930     1.007825032230
         H            0.273938190925     2.903773391054     0.501886172930     1.007825032230
         H           -0.199203809075     2.851750391054    -1.202297827070     1.007825032230
         H           -1.420721809075     3.102014391054     0.043383172930     1.007825032230
         H            1.980392190925    -1.798447608946    -0.999951827070     1.007825032230
         H            1.765279190925    -2.426601608946     0.639591172930     1.007825032230
         H            0.855568390925    -3.168409608946    -0.698686527070     1.007825032230
         H            2.132364190925     1.198587391054     1.566633172930     1.007825032230
         H            3.506425190925     1.057043391054     0.436715172930     1.007825032230
         H            2.712279190925    -0.396418608946     1.051503172930     1.007825032230

  Basis Set: AUG-CC-PVTZ
    Blend: AUG-CC-PVTZ
  Basis Set: (AUG-CC-PVTZ AUX)
    Blend: AUG-CC-PVTZ-JKFIT
	 Reference Energy          =    -402.9612166613168256 [Eh]
	 Singles Energy            =      -0.0000000000000000 [Eh]
	 Same-Spin Energy          =      -0.4479962876879338 [Eh]
	 Opposite-Spin Energy      =      -1.4660614931033373 [Eh]
	 Correlation Energy        =      -1.9140577807912711 [Eh]
	 Total Energy              =    -404.8752744421080934 [Eh]

	 ================> DF-SCS-MP2 Energies <==================
	-----------------------------------------------------------
	 SCS Same-Spin Scale       =       0.3333333333333333 [-]
	 SCS Opposite-Spin Scale   =       1.2000000000000000 [-]
	 SCS Same-Spin Energy      =      -0.1493320958959779 [Eh]
	 SCS Opposite-Spin Energy  =      -1.7592737917240047 [Eh]
	 SCS Correlation Energy    =      -1.9086058876199825 [Eh]
	 SCS Total Energy          =    -404.8698225489367815 [Eh]
	-----------------------------------------------------------

  Dipole Moment: [D]
     X:     0.5382      Y:     1.0860      Z:     0.5246     Total:     1.3207

*** Psi4 exiting successfully. Buy a developer a beer!
