                               Psi4 1.4a3.dev225

  ==> Input File <==

--------------------------------------------------------------------------
#psi4
#
memory 32 gb

molecule  {
0 1
  N        1.6268380     0.6089620    -0.4693990
  C        0.3031040     0.1485790    -0.2066970
  C       -0.7706010     1.0561020    -0.0842670
  C        0.0806060    -1.2405240    -0.1151990
  C       -2.0579110     0.5582020     0.1415980
  C       -1.2176000    -1.6989120     0.1341680
  C       -2.2850370    -0.8120180     0.2620550
  C       -0.5406870     2.5426280    -0.1993030
  C        1.2072340    -2.2197810    -0.3093320
  C        2.5023020     0.6131830     0.7097540
  H       -2.8885640     1.2560570     0.2350690
  H       -1.3937740    -2.7714120     0.2029680
  H        1.5916390     1.5501200    -0.8540680
  H       -3.2895990    -1.1861590     0.4450020
  H        0.2351210     2.8885850     0.4923550
  H       -0.2380210     2.8365620    -1.2118290
  H       -1.4595390     3.0868260     0.0338520
  H        1.8560321    -1.8052026    -1.0849657
  H        1.7264620    -2.4417900     0.6300600
  H        0.8237630    -3.1662910    -0.7010550
  H        2.0935470     1.1833990     1.5571020
  H        3.4676080     1.0418550     0.4271840
  H        2.6734620    -0.4116070     1.0419720
units angstrom
no_reorient  #important for SAPT in psi4, default
symmetry c1  #important for SAPT in psi4, default
}

set PROPERTIES_ORIGIN ["COM"]
properties('MP2/aug-cc-pvtz', properties = ['dipole'])
--------------------------------------------------------------------------

    Molecular point group: c1
  Charge       = 0
  Multiplicity = 1
  Basis Set: AUG-CC-PVTZ
    Blend: AUG-CC-PVTZ
  Basis Set: (AUG-CC-PVTZ AUX)
    Blend: AUG-CC-PVTZ-JKFIT

    Orbital Energies [Eh]
    ---------------------

    Doubly Occupied:

       1A    -15.553724     2A    -11.258058     3A    -11.249362
       4A    -11.235798     5A    -11.231288     6A    -11.228323
       7A    -11.225196     8A    -11.223925     9A    -11.222567
      10A    -11.214022    11A     -1.226467    12A     -1.130670
      13A     -1.054526    14A     -1.012500    15A     -0.945159
      16A     -0.921876    17A     -0.891862    18A     -0.794453
      19A     -0.780491    20A     -0.692383    21A     -0.659637
      22A     -0.629688    23A     -0.603678    24A     -0.591262
      25A     -0.578292    26A     -0.574813    27A     -0.565560
      28A     -0.556613    29A     -0.551048    30A     -0.530703
      31A     -0.517927    32A     -0.483282    33A     -0.476381
      34A     -0.471305    35A     -0.402222    36A     -0.317168
      37A     -0.302706

  @DF-RHF Final Energy:  -402.96040044053871

   => Energetics <=

    Nuclear Repulsion Energy =            521.3765303170268908
    One-Electron Energy =               -1578.8639992623766375
    Two-Electron Energy =                 654.5270685048110408
    Total Energy =                       -402.9604004405387059
  Basis Set: (AUG-CC-PVTZ AUX)
    Blend: AUG-CC-PVTZ-RI
    Molecular point group: c1

    Geometry (in Angstrom), charge = 0, multiplicity = 1:

       Center              X                  Y                   Z               Mass
    ------------   -----------------  -----------------  -----------------  -----------------
         N            1.666240999932     0.623958378486    -0.459358188578    14.003074004430
         C            0.342506999932     0.163575378486    -0.196656188578    12.000000000000
         C           -0.731198000068     1.071098378486    -0.074226188578    12.000000000000
         C            0.120008999932    -1.225527621514    -0.105158188578    12.000000000000
         C           -2.018508000068     0.573198378486     0.151638811422    12.000000000000
         C           -1.178197000068    -1.683915621514     0.144208811422    12.000000000000
         C           -2.245634000068    -0.797021621514     0.272095811422    12.000000000000
         C           -0.501284000068     2.557624378486    -0.189262188578    12.000000000000
         C            1.246636999932    -2.204784621514    -0.299291188578    12.000000000000
         C            2.541704999932     0.628179378486     0.719794811422    12.000000000000
         H           -2.849161000068     1.271053378486     0.245109811422     1.007825032230
         H           -1.354371000068    -2.756415621514     0.213008811422     1.007825032230
         H            1.631041999932     1.565116378486    -0.844027188578     1.007825032230
         H           -3.250196000068    -1.171162621514     0.455042811422     1.007825032230
         H            0.274523999932     2.903581378486     0.502395811422     1.007825032230
         H           -0.198618000068     2.851558378486    -1.201788188578     1.007825032230
         H           -1.420136000068     3.101822378486     0.043892811422     1.007825032230
         H            1.895435099932    -1.790206221514    -1.074924888578     1.007825032230
         H            1.765864999932    -2.426793621514     0.640100811422     1.007825032230
         H            0.863165999932    -3.151294621514    -0.691014188578     1.007825032230
         H            2.132949999932     1.198395378486     1.567142811422     1.007825032230
         H            3.507010999932     1.056851378486     0.437224811422     1.007825032230
         H            2.712864999932    -0.396610621514     1.052012811422     1.007825032230

  Basis Set: AUG-CC-PVTZ
    Blend: AUG-CC-PVTZ
  Basis Set: (AUG-CC-PVTZ AUX)
    Blend: AUG-CC-PVTZ-JKFIT
	 Reference Energy          =    -402.9604004405387059 [Eh]
	 Singles Energy            =      -0.0000000000000000 [Eh]
	 Same-Spin Energy          =      -0.4480447017631637 [Eh]
	 Opposite-Spin Energy      =      -1.4660636973398848 [Eh]
	 Correlation Energy        =      -1.9141083991030485 [Eh]
	 Total Energy              =    -404.8745088396417486 [Eh]

	 ================> DF-SCS-MP2 Energies <==================
	-----------------------------------------------------------
	 SCS Same-Spin Scale       =       0.3333333333333333 [-]
	 SCS Opposite-Spin Scale   =       1.2000000000000000 [-]
	 SCS Same-Spin Energy      =      -0.1493482339210546 [Eh]
	 SCS Opposite-Spin Energy  =      -1.7592764368078617 [Eh]
	 SCS Correlation Energy    =      -1.9086246707289163 [Eh]
	 SCS Total Energy          =    -404.8690251112676037 [Eh]
	-----------------------------------------------------------

  Dipole Moment: [D]
     X:     0.5179      Y:     1.0615      Z:     0.5032     Total:     1.2838

*** Psi4 exiting successfully. Buy a developer a beer!
