                               Psi4 1.4a3.dev225

  ==> Input File <==

--------------------------------------------------------------------------
#psi4
#
memory 32 gb

molecule  {
0 1
  N        1.6268380     0.6089620    -0.4693990
  C        0.3031040     0.1485790    -0.2066970
  C       -0.7706010     1.0561020    -0.0842670
  C        0.0806060    -1.2405240    -0.1151990
  C       -2.0579110     0.5582020     0.1415980
  C       -1.2176000    -1.6989120     0.1341680
  C       -2.2850370    -0.8120180     0.2620550
  C       -0.5406870     2.5426280    -0.1993030
  C        1.2072340    -2.2197810    -0.3093320
  C        2.5023020     0.6131830     0.7097540
  H       -2.7359979     1.1278819     0.2179012
  H       -1.3937740    -2.7714120     0.2029680
  H        1.5916390     1.5501200    -0.8540680
  H       -3.2895990    -1.1861590     0.4450020
  H        0.2351210     2.8885850     0.4923550
  H       -0.2380210     2.8365620    -1.2118290
  H       -1.4595390     3.0868260     0.0338520
  H        1.9415750    -1.8136360    -1.0094830
  H        1.7264620    -2.4417900     0.6300600
  H        0.8237630    -3.1662910    -0.7010550
  H        2.0935470     1.1833990     1.5571020
  H        3.4676080     1.0418550     0.4271840
  H        2.6734620    -0.4116070     1.0419720
units angstrom
no_reorient  #important for SAPT in psi4, default
symmetry c1  #important for SAPT in psi4, default
}

set PROPERTIES_ORIGIN ["COM"]
properties('MP2/aug-cc-pvtz', properties = ['dipole'])
--------------------------------------------------------------------------

    Molecular point group: c1
  Charge       = 0
  Multiplicity = 1
  Basis Set: AUG-CC-PVTZ
    Blend: AUG-CC-PVTZ
  Basis Set: (AUG-CC-PVTZ AUX)
    Blend: AUG-CC-PVTZ-JKFIT

    Orbital Energies [Eh]
    ---------------------

    Doubly Occupied:

       1A    -15.553105     2A    -11.256896     3A    -11.249228
       4A    -11.234410     5A    -11.231528     6A    -11.228677
       7A    -11.223219     8A    -11.221804     9A    -11.213700
      10A    -11.200550    11A     -1.225894    12A     -1.132396
      13A     -1.056989    14A     -1.013842    15A     -0.945686
      16A     -0.931017    17A     -0.892276    18A     -0.798888
      19A     -0.792339    20A     -0.699924    21A     -0.670015
      22A     -0.628728    23A     -0.607913    24A     -0.591545
      25A     -0.586113    26A     -0.569849    27A     -0.565376
      28A     -0.559962    29A     -0.556061    30A     -0.530150
      31A     -0.521108    32A     -0.488153    33A     -0.476299
      34A     -0.470198    35A     -0.402161    36A     -0.316383
      37A     -0.301868

  @DF-RHF Final Energy:  -402.92763415025746

   => Energetics <=

    Nuclear Repulsion Energy =            522.5013868100982108
    One-Electron Energy =               -1580.9695426472476356
    Two-Electron Energy =                 655.5405216868919069
    Total Energy =                       -402.9276341502575178
  Basis Set: (AUG-CC-PVTZ AUX)
    Blend: AUG-CC-PVTZ-RI
    Molecular point group: c1

    Geometry (in Angstrom), charge = 0, multiplicity = 1:

       Center              X                  Y                   Z               Mass
    ------------   -----------------  -----------------  -----------------  -----------------
         N            1.664464806846     0.624977420493    -0.459793193228    14.003074004430
         C            0.340730806846     0.164594420493    -0.197091193228    12.000000000000
         C           -0.732974193154     1.072117420493    -0.074661193228    12.000000000000
         C            0.118232806846    -1.224508579507    -0.105593193228    12.000000000000
         C           -2.020284193154     0.574217420493     0.151203806772    12.000000000000
         C           -1.179973193154    -1.682896579507     0.143773806772    12.000000000000
         C           -2.247410193154    -0.796002579507     0.271660806772    12.000000000000
         C           -0.503060193154     2.558643420493    -0.189697193228    12.000000000000
         C            1.244860806846    -2.203765579507    -0.299726193228    12.000000000000
         C            2.539928806846     0.629198420493     0.719359806772    12.000000000000
         H           -2.698371093154     1.143897320493     0.227507006772     1.007825032230
         H           -1.356147193154    -2.755396579507     0.212573806772     1.007825032230
         H            1.629265806846     1.566135420493    -0.844462193228     1.007825032230
         H           -3.251972193154    -1.170143579507     0.454607806772     1.007825032230
         H            0.272747806846     2.904600420493     0.501960806772     1.007825032230
         H           -0.200394193154     2.852577420493    -1.202223193228     1.007825032230
         H           -1.421912193154     3.102841420493     0.043457806772     1.007825032230
         H            1.979201806846    -1.797620579507    -0.999877193228     1.007825032230
         H            1.764088806846    -2.425774579507     0.639665806772     1.007825032230
         H            0.861389806846    -3.150275579507    -0.691449193228     1.007825032230
         H            2.131173806846     1.199414420493     1.566707806772     1.007825032230
         H            3.505234806846     1.057870420493     0.436789806772     1.007825032230
         H            2.711088806846    -0.395591579507     1.051577806772     1.007825032230

  Basis Set: AUG-CC-PVTZ
    Blend: AUG-CC-PVTZ
  Basis Set: (AUG-CC-PVTZ AUX)
    Blend: AUG-CC-PVTZ-JKFIT
	 Reference Energy          =    -402.9276341502574610 [Eh]
	 Singles Energy            =      -0.0000000000000000 [Eh]
	 Same-Spin Energy          =      -0.4477270948910656 [Eh]
	 Opposite-Spin Energy      =      -1.4652432371231661 [Eh]
	 Correlation Energy        =      -1.9129703320142317 [Eh]
	 Total Energy              =    -404.8406044822717149 [Eh]

	 ================> DF-SCS-MP2 Energies <==================
	-----------------------------------------------------------
	 SCS Same-Spin Scale       =       0.3333333333333333 [-]
	 SCS Opposite-Spin Scale   =       1.2000000000000000 [-]
	 SCS Same-Spin Energy      =      -0.1492423649636885 [Eh]
	 SCS Opposite-Spin Energy  =      -1.7582918845477993 [Eh]
	 SCS Correlation Energy    =      -1.9075342495114878 [Eh]
	 SCS Total Energy          =    -404.8351683997689747 [Eh]
	-----------------------------------------------------------

  Dipole Moment: [D]
     X:     0.4853      Y:     1.1178      Z:     0.5238     Total:     1.3264

*** Psi4 exiting successfully. Buy a developer a beer!
