                               Psi4 1.4a3.dev225

  ==> Input File <==

--------------------------------------------------------------------------
#psi4
#
memory 32 gb

molecule  {
0 1
  N        1.6268380     0.6089620    -0.4693990
  C        0.3031040     0.1485790    -0.2066970
  C       -0.7706010     1.0561020    -0.0842670
  C        0.0806060    -1.2405240    -0.1151990
  C       -2.0579110     0.5582020     0.1415980
  C       -1.2176000    -1.6989120     0.1341680
  C       -2.2850370    -0.8120180     0.2620550
  C       -0.5406870     2.5426280    -0.1993030
  C        1.2072340    -2.2197810    -0.3093320
  C        2.5023020     0.6131830     0.7097540
  H       -2.8885640     1.2560570     0.2350690
  H       -1.3937740    -2.7714120     0.2029680
  H        1.5916390     1.5501200    -0.8540680
  H       -3.2895990    -1.1861590     0.4450020
  H        0.2351210     2.8885850     0.4923550
  H       -0.2380210     2.8365620    -1.2118290
  H       -1.4595390     3.0868260     0.0338520
  H        1.9415750    -1.8136360    -1.0094830
  H        1.7264620    -2.4417900     0.6300600
  H        0.7887041    -3.2528258    -0.7368683
  H        2.0935470     1.1833990     1.5571020
  H        3.4676080     1.0418550     0.4271840
  H        2.6734620    -0.4116070     1.0419720
units angstrom
no_reorient  #important for SAPT in psi4, default
symmetry c1  #important for SAPT in psi4, default
}

set PROPERTIES_ORIGIN ["COM"]
properties('MP2/aug-cc-pvtz', properties = ['dipole'])
--------------------------------------------------------------------------

    Molecular point group: c1
  Charge       = 0
  Multiplicity = 1
  Basis Set: AUG-CC-PVTZ
    Blend: AUG-CC-PVTZ
  Basis Set: (AUG-CC-PVTZ AUX)
    Blend: AUG-CC-PVTZ-JKFIT

    Orbital Energies [Eh]
    ---------------------

    Doubly Occupied:

       1A    -15.554477     2A    -11.259049     3A    -11.250295
       4A    -11.236315     5A    -11.232952     6A    -11.228741
       7A    -11.225996     8A    -11.225736     9A    -11.224478
      10A    -11.223226    11A     -1.227231    12A     -1.131146
      13A     -1.053726    14A     -1.012022    15A     -0.943762
      16A     -0.920645    17A     -0.890828    18A     -0.794745
      19A     -0.779732    20A     -0.692833    21A     -0.661119
      22A     -0.629253    23A     -0.604060    24A     -0.592066
      25A     -0.579316    26A     -0.567115    27A     -0.564757
      28A     -0.553007    29A     -0.551413    30A     -0.531416
      31A     -0.512179    32A     -0.486137    33A     -0.476195
      34A     -0.469912    35A     -0.403098    36A     -0.317233
      37A     -0.303258

  @DF-RHF Final Energy:  -402.95514499100227

   => Energetics <=

    Nuclear Repulsion Energy =            520.8707047356402882
    One-Electron Energy =               -1577.8327592224909495
    Two-Electron Energy =                 654.0069094958485039
    Total Energy =                       -402.9551449910022711
  Basis Set: (AUG-CC-PVTZ AUX)
    Blend: AUG-CC-PVTZ-RI
    Molecular point group: c1

    Geometry (in Angstrom), charge = 0, multiplicity = 1:

       Center              X                  Y                   Z               Mass
    ------------   -----------------  -----------------  -----------------  -----------------
         N            1.665864410505     0.624666801352    -0.459654105633    14.003074004430
         C            0.342130410505     0.164283801352    -0.196952105633    12.000000000000
         C           -0.731574589495     1.071806801352    -0.074522105633    12.000000000000
         C            0.119632410505    -1.224819198648    -0.105454105633    12.000000000000
         C           -2.018884589495     0.573906801352     0.151342894367    12.000000000000
         C           -1.178573589495    -1.683207198648     0.143912894367    12.000000000000
         C           -2.246010589495    -0.796313198648     0.271799894367    12.000000000000
         C           -0.501660589495     2.558332801352    -0.189558105633    12.000000000000
         C            1.246260410505    -2.204076198648    -0.299587105633    12.000000000000
         C            2.541328410505     0.628887801352     0.719498894367    12.000000000000
         H           -2.849537589495     1.271761801352     0.244813894367     1.007825032230
         H           -1.354747589495    -2.755707198648     0.212712894367     1.007825032230
         H            1.630665410505     1.565824801352    -0.844323105633     1.007825032230
         H           -3.250572589495    -1.170454198648     0.454746894367     1.007825032230
         H            0.274147410505     2.904289801352     0.502099894367     1.007825032230
         H           -0.198994589495     2.852266801352    -1.202084105633     1.007825032230
         H           -1.420512589495     3.102530801352     0.043596894367     1.007825032230
         H            1.980601410505    -1.797931198648    -0.999738105633     1.007825032230
         H            1.765488410505    -2.426085198648     0.639804894367     1.007825032230
         H            0.827730510505    -3.237120998648    -0.727123405633     1.007825032230
         H            2.132573410505     1.199103801352     1.566846894367     1.007825032230
         H            3.506634410505     1.057559801352     0.436928894367     1.007825032230
         H            2.712488410505    -0.395902198648     1.051716894367     1.007825032230

  Basis Set: AUG-CC-PVTZ
    Blend: AUG-CC-PVTZ
  Basis Set: (AUG-CC-PVTZ AUX)
    Blend: AUG-CC-PVTZ-JKFIT
	 Reference Energy          =    -402.9551449910022711 [Eh]
	 Singles Energy            =      -0.0000000000000000 [Eh]
	 Same-Spin Energy          =      -0.4480187014701889 [Eh]
	 Opposite-Spin Energy      =      -1.4666939540938002 [Eh]
	 Correlation Energy        =      -1.9147126555639891 [Eh]
	 Total Energy              =    -404.8698576465662882 [Eh]

	 ================> DF-SCS-MP2 Energies <==================
	-----------------------------------------------------------
	 SCS Same-Spin Scale       =       0.3333333333333333 [-]
	 SCS Opposite-Spin Scale   =       1.2000000000000000 [-]
	 SCS Same-Spin Energy      =      -0.1493395671567296 [Eh]
	 SCS Opposite-Spin Energy  =      -1.7600327449125601 [Eh]
	 SCS Correlation Energy    =      -1.9093723120692898 [Eh]
	 SCS Total Energy          =    -404.8645173030715796 [Eh]
	-----------------------------------------------------------

  Dipole Moment: [D]
     X:     0.5351      Y:     1.1464      Z:     0.5431     Total:     1.3768

*** Psi4 exiting successfully. Buy a developer a beer!
