                               Psi4 1.4a3.dev225

  ==> Input File <==

--------------------------------------------------------------------------
#psi4
#
memory 32 gb

molecule  {
0 1
  N        1.6268380     0.6089620    -0.4693990
  C        0.3031040     0.1485790    -0.2066970
  C       -0.7706010     1.0561020    -0.0842670
  C        0.0806060    -1.2405240    -0.1151990
  C       -2.0579110     0.5582020     0.1415980
  C       -1.2176000    -1.6989120     0.1341680
  C       -2.2850370    -0.8120180     0.2620550
  C       -0.5406870     2.5426280    -0.1993030
  C        1.2072340    -2.2197810    -0.3093320
  C        2.5023020     0.6131830     0.7097540
  H       -2.8885640     1.2560570     0.2350690
  H       -1.3937740    -2.7714120     0.2029680
  H        1.5916390     1.5501200    -0.8540680
  H       -3.2895990    -1.1861590     0.4450020
  H        0.0934758     2.8254210     0.3660737
  H       -0.2380210     2.8365620    -1.2118290
  H       -1.4595390     3.0868260     0.0338520
  H        1.9415750    -1.8136360    -1.0094830
  H        1.7264620    -2.4417900     0.6300600
  H        0.8237630    -3.1662910    -0.7010550
  H        2.0935470     1.1833990     1.5571020
  H        3.4676080     1.0418550     0.4271840
  H        2.6734620    -0.4116070     1.0419720
units angstrom
no_reorient  #important for SAPT in psi4, default
symmetry c1  #important for SAPT in psi4, default
}

set PROPERTIES_ORIGIN ["COM"]
properties('MP2/aug-cc-pvtz', properties = ['dipole'])
--------------------------------------------------------------------------

    Molecular point group: c1
  Charge       = 0
  Multiplicity = 1
  Basis Set: AUG-CC-PVTZ
    Blend: AUG-CC-PVTZ
  Basis Set: (AUG-CC-PVTZ AUX)
    Blend: AUG-CC-PVTZ-JKFIT

    Orbital Energies [Eh]
    ---------------------

    Doubly Occupied:

       1A    -15.554242     2A    -11.257818     3A    -11.249957
       4A    -11.234644     5A    -11.231722     6A    -11.224561
       7A    -11.223496     8A    -11.222447     9A    -11.213976
      10A    -11.203634    11A     -1.226929    12A     -1.130781
      13A     -1.059688    14A     -1.015659    15A     -0.955753
      16A     -0.927639    17A     -0.892663    18A     -0.798911
      19A     -0.781369    20A     -0.694424    21A     -0.660477
      22A     -0.636430    23A     -0.607292    24A     -0.597485
      25A     -0.589643    26A     -0.571162    27A     -0.568721
      28A     -0.556620    29A     -0.551437    30A     -0.530930
      31A     -0.523838    32A     -0.485687    33A     -0.476925
      34A     -0.471469    35A     -0.402703    36A     -0.316971
      37A     -0.302608

  @DF-RHF Final Energy:  -402.92834549863346

   => Energetics <=

    Nuclear Repulsion Energy =            522.2569145256788943
    One-Electron Energy =               -1580.4690991011329970
    Two-Electron Energy =                 655.2838390768206409
    Total Energy =                       -402.9283454986334618
  Basis Set: (AUG-CC-PVTZ AUX)
    Blend: AUG-CC-PVTZ-RI
    Molecular point group: c1

    Geometry (in Angstrom), charge = 0, multiplicity = 1:

       Center              X                  Y                   Z               Mass
    ------------   -----------------  -----------------  -----------------  -----------------
         N            1.666659499515     0.624492465004    -0.458979252368    14.003074004430
         C            0.342925499515     0.164109465004    -0.196277252368    12.000000000000
         C           -0.730779500485     1.071632465004    -0.073847252368    12.000000000000
         C            0.120427499515    -1.224993534996    -0.104779252368    12.000000000000
         C           -2.018089500485     0.573732465004     0.152017747632    12.000000000000
         C           -1.177778500485    -1.683381534996     0.144587747632    12.000000000000
         C           -2.245215500485    -0.796487534996     0.272474747632    12.000000000000
         C           -0.500865500485     2.558158465004    -0.188883252368    12.000000000000
         C            1.247055499515    -2.204250534996    -0.298912252368    12.000000000000
         C            2.542123499515     0.628713465004     0.720173747632    12.000000000000
         H           -2.848742500485     1.271587465004     0.245488747632     1.007825032230
         H           -1.353952500485    -2.755881534996     0.213387747632     1.007825032230
         H            1.631460499515     1.565650465004    -0.843648252368     1.007825032230
         H           -3.249777500485    -1.170628534996     0.455421747632     1.007825032230
         H            0.133297299515     2.840951465004     0.376493447632     1.007825032230
         H           -0.198199500485     2.852092465004    -1.201409252368     1.007825032230
         H           -1.419717500485     3.102356465004     0.044271747632     1.007825032230
         H            1.981396499515    -1.798105534996    -0.999063252368     1.007825032230
         H            1.766283499515    -2.426259534996     0.640479747632     1.007825032230
         H            0.863584499515    -3.150760534996    -0.690635252368     1.007825032230
         H            2.133368499515     1.198929465004     1.567521747632     1.007825032230
         H            3.507429499515     1.057385465004     0.437603747632     1.007825032230
         H            2.713283499515    -0.396076534996     1.052391747632     1.007825032230

  Basis Set: AUG-CC-PVTZ
    Blend: AUG-CC-PVTZ
  Basis Set: (AUG-CC-PVTZ AUX)
    Blend: AUG-CC-PVTZ-JKFIT
	 Reference Energy          =    -402.9283454986334618 [Eh]
	 Singles Energy            =      -0.0000000000000000 [Eh]
	 Same-Spin Energy          =      -0.4479545002861871 [Eh]
	 Opposite-Spin Energy      =      -1.4652003783497085 [Eh]
	 Correlation Energy        =      -1.9131548786358956 [Eh]
	 Total Energy              =    -404.8415003772693694 [Eh]

	 ================> DF-SCS-MP2 Energies <==================
	-----------------------------------------------------------
	 SCS Same-Spin Scale       =       0.3333333333333333 [-]
	 SCS Opposite-Spin Scale   =       1.2000000000000000 [-]
	 SCS Same-Spin Energy      =      -0.1493181667620624 [Eh]
	 SCS Opposite-Spin Energy  =      -1.7582404540196501 [Eh]
	 SCS Correlation Energy    =      -1.9075586207817126 [Eh]
	 SCS Total Energy          =    -404.8359041194151473 [Eh]
	-----------------------------------------------------------

  Dipole Moment: [D]
     X:     0.5844      Y:     1.1293      Z:     0.5527     Total:     1.3865

*** Psi4 exiting successfully. Buy a developer a beer!
