                               Psi4 1.4a3.dev225

  ==> Input File <==

--------------------------------------------------------------------------
#psi4
#
memory 32 gb

molecule  {
0 1
  N        1.6268380     0.6089620    -0.4693990
  C        0.3031040     0.1485790    -0.2066970
  C       -0.7706010     1.0561020    -0.0842670
  C        0.0806060    -1.2405240    -0.1151990
  C       -2.0579110     0.5582020     0.1415980
  C       -1.2176000    -1.6989120     0.1341680
  C       -2.2850370    -0.8120180     0.2620550
  C       -0.5406870     2.5426280    -0.1993030
  C        1.1698119    -2.1872540    -0.3028837
  C        2.5023020     0.6131830     0.7097540
  H       -2.8885640     1.2560570     0.2350690
  H       -1.3937740    -2.7714120     0.2029680
  H        1.5916390     1.5501200    -0.8540680
  H       -3.2895990    -1.1861590     0.4450020
  H        0.2351210     2.8885850     0.4923550
  H       -0.2380210     2.8365620    -1.2118290
  H       -1.4595390     3.0868260     0.0338520
  H        1.9415750    -1.8136360    -1.0094830
  H        1.7264620    -2.4417900     0.6300600
  H        0.8237630    -3.1662910    -0.7010550
  H        2.0935470     1.1833990     1.5571020
  H        3.4676080     1.0418550     0.4271840
  H        2.6734620    -0.4116070     1.0419720
units angstrom
no_reorient  #important for SAPT in psi4, default
symmetry c1  #important for SAPT in psi4, default
}

set PROPERTIES_ORIGIN ["COM"]
properties('MP2/aug-cc-pvtz', properties = ['dipole'])
--------------------------------------------------------------------------

    Molecular point group: c1
  Charge       = 0
  Multiplicity = 1
  Basis Set: AUG-CC-PVTZ
    Blend: AUG-CC-PVTZ
  Basis Set: (AUG-CC-PVTZ AUX)
    Blend: AUG-CC-PVTZ-JKFIT

    Orbital Energies [Eh]
    ---------------------

    Doubly Occupied:

       1A    -15.553956     2A    -11.258402     3A    -11.249543
       4A    -11.236083     5A    -11.229636     6A    -11.228493
       7A    -11.225592     8A    -11.224377     9A    -11.223115
      10A    -11.215728    11A     -1.227157    12A     -1.132102
      13A     -1.058738    14A     -1.014443    15A     -0.945415
      16A     -0.921662    17A     -0.891129    18A     -0.795626
      19A     -0.780702    20A     -0.692759    21A     -0.662130
      22A     -0.631438    23A     -0.605046    24A     -0.591725
      25A     -0.581978    26A     -0.565800    27A     -0.564487
      28A     -0.558799    29A     -0.551409    30A     -0.530622
      31A     -0.514854    32A     -0.490366    33A     -0.475204
      34A     -0.468950    35A     -0.402541    36A     -0.316307
      37A     -0.302630

  @DF-RHF Final Energy:  -402.95839315214414

   => Energetics <=

    Nuclear Repulsion Energy =            522.2264682955765238
    One-Electron Energy =               -1580.5318351210953551
    Two-Electron Energy =                 655.3469736733746913
    Total Energy =                       -402.9583931521441400
  Basis Set: (AUG-CC-PVTZ AUX)
    Blend: AUG-CC-PVTZ-RI
    Molecular point group: c1

    Geometry (in Angstrom), charge = 0, multiplicity = 1:

       Center              X                  Y                   Z               Mass
    ------------   -----------------  -----------------  -----------------  -----------------
         N            1.668926714470     0.621132241961    -0.460493995413    14.003074004430
         C            0.345192714470     0.160749241961    -0.197791995413    12.000000000000
         C           -0.728512285530     1.068272241961    -0.075361995413    12.000000000000
         C            0.122694714470    -1.228353758039    -0.106293995413    12.000000000000
         C           -2.015822285530     0.570372241961     0.150503004587    12.000000000000
         C           -1.175511285530    -1.686741758039     0.143073004587    12.000000000000
         C           -2.242948285530    -0.799847758039     0.270960004587    12.000000000000
         C           -0.498598285530     2.554798241961    -0.190397995413    12.000000000000
         C            1.211900614470    -2.175083758039    -0.293978695413    12.000000000000
         C            2.544390714470     0.625353241961     0.718659004587    12.000000000000
         H           -2.846475285530     1.268227241961     0.243974004587     1.007825032230
         H           -1.351685285530    -2.759241758039     0.211873004587     1.007825032230
         H            1.633727714470     1.562290241961    -0.845162995413     1.007825032230
         H           -3.247510285530    -1.173988758039     0.453907004587     1.007825032230
         H            0.277209714470     2.900755241961     0.501260004587     1.007825032230
         H           -0.195932285530     2.848732241961    -1.202923995413     1.007825032230
         H           -1.417450285530     3.098996241961     0.042757004587     1.007825032230
         H            1.983663714470    -1.801465758039    -1.000577995413     1.007825032230
         H            1.768550714470    -2.429619758039     0.638965004587     1.007825032230
         H            0.865851714470    -3.154120758039    -0.692149995413     1.007825032230
         H            2.135635714470     1.195569241961     1.566007004587     1.007825032230
         H            3.509696714470     1.054025241961     0.436089004587     1.007825032230
         H            2.715550714470    -0.399436758039     1.050877004587     1.007825032230

  Basis Set: AUG-CC-PVTZ
    Blend: AUG-CC-PVTZ
  Basis Set: (AUG-CC-PVTZ AUX)
    Blend: AUG-CC-PVTZ-JKFIT
	 Reference Energy          =    -402.9583931521441400 [Eh]
	 Singles Energy            =      -0.0000000000000000 [Eh]
	 Same-Spin Energy          =      -0.4485843189068764 [Eh]
	 Opposite-Spin Energy      =      -1.4665298587642084 [Eh]
	 Correlation Energy        =      -1.9151141776710849 [Eh]
	 Total Energy              =    -404.8735073298151974 [Eh]

	 ================> DF-SCS-MP2 Energies <==================
	-----------------------------------------------------------
	 SCS Same-Spin Scale       =       0.3333333333333333 [-]
	 SCS Opposite-Spin Scale   =       1.2000000000000000 [-]
	 SCS Same-Spin Energy      =      -0.1495281063022921 [Eh]
	 SCS Opposite-Spin Energy  =      -1.7598358305170501 [Eh]
	 SCS Correlation Energy    =      -1.9093639368193422 [Eh]
	 SCS Total Energy          =    -404.8677570889634580 [Eh]
	-----------------------------------------------------------

  Dipole Moment: [D]
     X:     0.5453      Y:     1.0755      Z:     0.5175     Total:     1.3122

*** Psi4 exiting successfully. Buy a developer a beer!
