                               Psi4 1.4a3.dev225

  ==> Input File <==

--------------------------------------------------------------------------
#psi4
#
memory 32 gb

molecule  {
0 1
  N        1.6268380     0.6089620    -0.4693990
  C        0.3124678     0.1270724    -0.1983826
  C       -0.7706010     1.0561020    -0.0842670
  C        0.0806060    -1.2405240    -0.1151990
  C       -2.0579110     0.5582020     0.1415980
  C       -1.2176000    -1.6989120     0.1341680
  C       -2.2850370    -0.8120180     0.2620550
  C       -0.5406870     2.5426280    -0.1993030
  C        1.2072340    -2.2197810    -0.3093320
  C        2.5023020     0.6131830     0.7097540
  H       -2.8885640     1.2560570     0.2350690
  H       -1.3937740    -2.7714120     0.2029680
  H        1.5916390     1.5501200    -0.8540680
  H       -3.2895990    -1.1861590     0.4450020
  H        0.2351210     2.8885850     0.4923550
  H       -0.2380210     2.8365620    -1.2118290
  H       -1.4595390     3.0868260     0.0338520
  H        1.9415750    -1.8136360    -1.0094830
  H        1.7264620    -2.4417900     0.6300600
  H        0.8237630    -3.1662910    -0.7010550
  H        2.0935470     1.1833990     1.5571020
  H        3.4676080     1.0418550     0.4271840
  H        2.6734620    -0.4116070     1.0419720
units angstrom
no_reorient  #important for SAPT in psi4, default
symmetry c1  #important for SAPT in psi4, default
}

set PROPERTIES_ORIGIN ["COM"]
properties('MP2/aug-cc-pvtz', properties = ['dipole'])
--------------------------------------------------------------------------

    Molecular point group: c1
  Charge       = 0
  Multiplicity = 1
  Basis Set: AUG-CC-PVTZ
    Blend: AUG-CC-PVTZ
  Basis Set: (AUG-CC-PVTZ AUX)
    Blend: AUG-CC-PVTZ-JKFIT

    Orbital Energies [Eh]
    ---------------------

    Doubly Occupied:

       1A    -15.553612     2A    -11.258252     3A    -11.249278
       4A    -11.238098     5A    -11.229762     6A    -11.228867
       7A    -11.225330     8A    -11.224310     9A    -11.223273
      10A    -11.213758    11A     -1.226376    12A     -1.130906
      13A     -1.054577    14A     -1.012615    15A     -0.945022
      16A     -0.922112    17A     -0.892023    18A     -0.796863
      19A     -0.778786    20A     -0.693470    21A     -0.659950
      22A     -0.631086    23A     -0.602957    24A     -0.591342
      25A     -0.578474    26A     -0.568923    27A     -0.565445
      28A     -0.556888    29A     -0.552375    30A     -0.530780
      31A     -0.520728    32A     -0.483788    33A     -0.479902
      34A     -0.470441    35A     -0.401265    36A     -0.317304
      37A     -0.302746

  @DF-RHF Final Energy:  -402.96109821813877

   => Energetics <=

    Nuclear Repulsion Energy =            521.3435989281770162
    One-Electron Energy =               -1578.7860291782797049
    Two-Electron Energy =                 654.4813320319639161
    Total Energy =                       -402.9610982181387726
  Basis Set: (AUG-CC-PVTZ AUX)
    Blend: AUG-CC-PVTZ-RI
    Molecular point group: c1

    Geometry (in Angstrom), charge = 0, multiplicity = 1:

       Center              X                  Y                   Z               Mass
    ------------   -----------------  -----------------  -----------------  -----------------
         N            1.664771193701     0.625931502999    -0.460659742300    14.003074004430
         C            0.350400993701     0.144041902999    -0.189643342300    12.000000000000
         C           -0.732667806299     1.073071502999    -0.075527742300    12.000000000000
         C            0.118539193701    -1.223554497001    -0.106459742300    12.000000000000
         C           -2.019977806299     0.575171502999     0.150337257700    12.000000000000
         C           -1.179666806299    -1.681942497001     0.142907257700    12.000000000000
         C           -2.247103806299    -0.795048497001     0.270794257700    12.000000000000
         C           -0.502753806299     2.559597502999    -0.190563742300    12.000000000000
         C            1.245167193701    -2.202811497001    -0.300592742300    12.000000000000
         C            2.540235193701     0.630152502999     0.718493257700    12.000000000000
         H           -2.850630806299     1.273026502999     0.243808257700     1.007825032230
         H           -1.355840806299    -2.754442497001     0.211707257700     1.007825032230
         H            1.629572193701     1.567089502999    -0.845328742300     1.007825032230
         H           -3.251665806299    -1.169189497001     0.453741257700     1.007825032230
         H            0.273054193701     2.905554502999     0.501094257700     1.007825032230
         H           -0.200087806299     2.853531502999    -1.203089742300     1.007825032230
         H           -1.421605806299     3.103795502999     0.042591257700     1.007825032230
         H            1.979508193701    -1.796666497001    -1.000743742300     1.007825032230
         H            1.764395193701    -2.424820497001     0.638799257700     1.007825032230
         H            0.861696193701    -3.149321497001    -0.692315742300     1.007825032230
         H            2.131480193701     1.200368502999     1.565841257700     1.007825032230
         H            3.505541193701     1.058824502999     0.435923257700     1.007825032230
         H            2.711395193701    -0.394637497001     1.050711257700     1.007825032230

  Basis Set: AUG-CC-PVTZ
    Blend: AUG-CC-PVTZ
  Basis Set: (AUG-CC-PVTZ AUX)
    Blend: AUG-CC-PVTZ-JKFIT
	 Reference Energy          =    -402.9610982181387726 [Eh]
	 Singles Energy            =      -0.0000000000000000 [Eh]
	 Same-Spin Energy          =      -0.4479638032420854 [Eh]
	 Opposite-Spin Energy      =      -1.4659241506967353 [Eh]
	 Correlation Energy        =      -1.9138879539388207 [Eh]
	 Total Energy              =    -404.8749861720775698 [Eh]

	 ================> DF-SCS-MP2 Energies <==================
	-----------------------------------------------------------
	 SCS Same-Spin Scale       =       0.3333333333333333 [-]
	 SCS Opposite-Spin Scale   =       1.2000000000000000 [-]
	 SCS Same-Spin Energy      =      -0.1493212677473618 [Eh]
	 SCS Opposite-Spin Energy  =      -1.7591089808360822 [Eh]
	 SCS Correlation Energy    =      -1.9084302485834441 [Eh]
	 SCS Total Energy          =    -404.8695284667222154 [Eh]
	-----------------------------------------------------------

  Dipole Moment: [D]
     X:     0.5259      Y:     1.0790      Z:     0.5145     Total:     1.3060

*** Psi4 exiting successfully. Buy a developer a beer!
