                               Psi4 1.4a3.dev225

  ==> Input File <==

--------------------------------------------------------------------------
#psi4
#
memory 32 gb

molecule  {
0 1
  N        1.6268380     0.6089620    -0.4693990
  C        0.3652309     0.0218706    -0.1580987
  C       -0.7706010     1.0561020    -0.0842670
  C        0.0806060    -1.2405240    -0.1151990
  C       -2.0579110     0.5582020     0.1415980
  C       -1.2176000    -1.6989120     0.1341680
  C       -2.2850370    -0.8120180     0.2620550
  C       -0.5406870     2.5426280    -0.1993030
  C        1.2072340    -2.2197810    -0.3093320
  C        2.5023020     0.6131830     0.7097540
  H       -2.8885640     1.2560570     0.2350690
  H       -1.3937740    -2.7714120     0.2029680
  H        1.5916390     1.5501200    -0.8540680
  H       -3.2895990    -1.1861590     0.4450020
  H        0.2351210     2.8885850     0.4923550
  H       -0.2380210     2.8365620    -1.2118290
  H       -1.4595390     3.0868260     0.0338520
  H        1.9415750    -1.8136360    -1.0094830
  H        1.7264620    -2.4417900     0.6300600
  H        0.8237630    -3.1662910    -0.7010550
  H        2.0935470     1.1833990     1.5571020
  H        3.4676080     1.0418550     0.4271840
  H        2.6734620    -0.4116070     1.0419720
units angstrom
no_reorient  #important for SAPT in psi4, default
symmetry c1  #important for SAPT in psi4, default
}

set PROPERTIES_ORIGIN ["COM"]
properties('MP2/aug-cc-pvtz', properties = ['dipole'])
--------------------------------------------------------------------------

    Molecular point group: c1
  Charge       = 0
  Multiplicity = 1
  Basis Set: AUG-CC-PVTZ
    Blend: AUG-CC-PVTZ
  Basis Set: (AUG-CC-PVTZ AUX)
    Blend: AUG-CC-PVTZ-JKFIT

    Orbital Energies [Eh]
    ---------------------

    Doubly Occupied:

       1A    -15.553094     2A    -11.257037     3A    -11.247737
       4A    -11.247106     5A    -11.230838     6A    -11.226058
       7A    -11.224875     8A    -11.223527     9A    -11.217423
      10A    -11.211981    11A     -1.226180    12A     -1.132777
      13A     -1.058020    14A     -1.013458    15A     -0.942861
      16A     -0.922047    17A     -0.893061    18A     -0.806675
      19A     -0.765508    20A     -0.698142    21A     -0.655815
      22A     -0.640056    23A     -0.601139    24A     -0.592087
      25A     -0.576010    26A     -0.570249    27A     -0.564629
      28A     -0.557766    29A     -0.552732    30A     -0.530899
      31A     -0.518890    32A     -0.491039    33A     -0.476304
      34A     -0.464662    35A     -0.393905    36A     -0.326194
      37A     -0.297707

  @DF-RHF Final Energy:  -402.93678633242723

   => Energetics <=

    Nuclear Repulsion Energy =            521.5403269132717696
    One-Electron Energy =               -1579.1372496594547101
    Two-Electron Energy =                 654.6601364137555947
    Total Energy =                       -402.9367863324272321
  Basis Set: (AUG-CC-PVTZ AUX)
    Blend: AUG-CC-PVTZ-RI
    Molecular point group: c1

    Geometry (in Angstrom), charge = 0, multiplicity = 1:

       Center              X                  Y                   Z               Mass
    ------------   -----------------  -----------------  -----------------  -----------------
         N            1.660084778395     0.635275520424    -0.464237755828    14.003074004430
         C            0.398477678395     0.048184120424    -0.152937455828    12.000000000000
         C           -0.737354221605     1.082415520424    -0.079105755828    12.000000000000
         C            0.113852778395    -1.214210479576    -0.110037755828    12.000000000000
         C           -2.024664221605     0.584515520424     0.146759244172    12.000000000000
         C           -1.184353221605    -1.672598479576     0.139329244172    12.000000000000
         C           -2.251790221605    -0.785704479576     0.267216244172    12.000000000000
         C           -0.507440221605     2.568941520424    -0.194141755828    12.000000000000
         C            1.240480778395    -2.193467479576    -0.304170755828    12.000000000000
         C            2.535548778395     0.639496520424     0.714915244172    12.000000000000
         H           -2.855317221605     1.282370520424     0.240230244172     1.007825032230
         H           -1.360527221605    -2.745098479576     0.208129244172     1.007825032230
         H            1.624885778395     1.576433520424    -0.848906755828     1.007825032230
         H           -3.256352221605    -1.159845479576     0.450163244172     1.007825032230
         H            0.268367778395     2.914898520424     0.497516244172     1.007825032230
         H           -0.204774221605     2.862875520424    -1.206667755828     1.007825032230
         H           -1.426292221605     3.113139520424     0.039013244172     1.007825032230
         H            1.974821778395    -1.787322479576    -1.004321755828     1.007825032230
         H            1.759708778395    -2.415476479576     0.635221244172     1.007825032230
         H            0.857009778395    -3.139977479576    -0.695893755828     1.007825032230
         H            2.126793778395     1.209712520424     1.562263244172     1.007825032230
         H            3.500854778395     1.068168520424     0.432345244172     1.007825032230
         H            2.706708778395    -0.385293479576     1.047133244172     1.007825032230

  Basis Set: AUG-CC-PVTZ
    Blend: AUG-CC-PVTZ
  Basis Set: (AUG-CC-PVTZ AUX)
    Blend: AUG-CC-PVTZ-JKFIT
	 Reference Energy          =    -402.9367863324272321 [Eh]
	 Singles Energy            =      -0.0000000000000000 [Eh]
	 Same-Spin Energy          =      -0.4474651524011070 [Eh]
	 Opposite-Spin Energy      =      -1.4667354365293828 [Eh]
	 Correlation Energy        =      -1.9142005889304898 [Eh]
	 Total Energy              =    -404.8509869213577304 [Eh]

	 ================> DF-SCS-MP2 Energies <==================
	-----------------------------------------------------------
	 SCS Same-Spin Scale       =       0.3333333333333333 [-]
	 SCS Opposite-Spin Scale   =       1.2000000000000000 [-]
	 SCS Same-Spin Energy      =      -0.1491550508003690 [Eh]
	 SCS Opposite-Spin Energy  =      -1.7600825238352593 [Eh]
	 SCS Correlation Energy    =      -1.9092375746356283 [Eh]
	 SCS Total Energy          =    -404.8460239070628859 [Eh]
	-----------------------------------------------------------

  Dipole Moment: [D]
     X:     0.4591      Y:     1.1007      Z:     0.4890     Total:     1.2890

*** Psi4 exiting successfully. Buy a developer a beer!
