                               Psi4 1.4a3.dev225

  ==> Input File <==

--------------------------------------------------------------------------
#psi4
#
memory 32 gb

molecule  {
0 1
  N        1.6268380     0.6089620    -0.4693990
  C        0.3031040     0.1485790    -0.2066970
  C       -0.7706010     1.0561020    -0.0842670
  C        0.0806060    -1.2405240    -0.1151990
  C       -2.0579110     0.5582020     0.1415980
  C       -1.2176000    -1.6989120     0.1341680
  C       -2.2850370    -0.8120180     0.2620550
  C       -0.5406870     2.5426280    -0.1993030
  C        1.2072340    -2.2197810    -0.3093320
  C        2.5023020     0.6131830     0.7097540
  H       -2.8885640     1.2560570     0.2350690
  H       -1.3937740    -2.7714120     0.2029680
  H        1.5916390     1.5501200    -0.8540680
  H       -3.2895990    -1.1861590     0.4450020
  H        0.2351210     2.8885850     0.4923550
  H       -0.2380210     2.8365620    -1.2118290
  H       -1.4595390     3.0868260     0.0338520
  H        1.9415750    -1.8136360    -1.0094830
  H        1.7264620    -2.4417900     0.6300600
  H        0.8237630    -3.1662910    -0.7010550
  H        2.0935470     1.1833990     1.5571020
  H        3.4676080     1.0418550     0.4271840
  H        2.6813076    -0.4585810     1.0572001
units angstrom
no_reorient  #important for SAPT in psi4, default
symmetry c1  #important for SAPT in psi4, default
}

set PROPERTIES_ORIGIN ["COM"]
properties('MP2/aug-cc-pvtz', properties = ['dipole'])
--------------------------------------------------------------------------

    Molecular point group: c1
  Charge       = 0
  Multiplicity = 1
  Basis Set: AUG-CC-PVTZ
    Blend: AUG-CC-PVTZ
  Basis Set: (AUG-CC-PVTZ AUX)
    Blend: AUG-CC-PVTZ-JKFIT

    Orbital Energies [Eh]
    ---------------------

    Doubly Occupied:

       1A    -15.554497     2A    -11.258355     3A    -11.255515
       4A    -11.236004     5A    -11.232091     6A    -11.228549
       7A    -11.225449     8A    -11.224275     9A    -11.223051
      10A    -11.213999    11A     -1.226716    12A     -1.130846
      13A     -1.054451    14A     -1.012228    15A     -0.944181
      16A     -0.922048    17A     -0.888936    18A     -0.794351
      19A     -0.781230    20A     -0.692253    21A     -0.660902
      22A     -0.629599    23A     -0.603637    24A     -0.589699
      25A     -0.578786    26A     -0.568388    27A     -0.564573
      28A     -0.556688    29A     -0.552157    30A     -0.526708
      31A     -0.520275    32A     -0.484577    33A     -0.476954
      34A     -0.470776    35A     -0.402455    36A     -0.317138
      37A     -0.302868

  @DF-RHF Final Energy:  -402.95951546208209

   => Energetics <=

    Nuclear Repulsion Energy =            521.1246355654164972
    One-Electron Energy =               -1578.3578873972614929
    Two-Electron Energy =                 654.2737363697627870
    Total Energy =                       -402.9595154620820949
  Basis Set: (AUG-CC-PVTZ AUX)
    Blend: AUG-CC-PVTZ-RI
    Molecular point group: c1

    Geometry (in Angstrom), charge = 0, multiplicity = 1:

       Center              X                  Y                   Z               Mass
    ------------   -----------------  -----------------  -----------------  -----------------
         N            1.665544360964     0.624371694407    -0.460034853029    14.003074004430
         C            0.341810360964     0.163988694407    -0.197332853029    12.000000000000
         C           -0.731894639036     1.071511694407    -0.074902853029    12.000000000000
         C            0.119312360964    -1.225114305593    -0.105834853029    12.000000000000
         C           -2.019204639036     0.573611694407     0.150962146971    12.000000000000
         C           -1.178893639036    -1.683502305593     0.143532146971    12.000000000000
         C           -2.246330639036    -0.796608305593     0.271419146971    12.000000000000
         C           -0.501980639036     2.558037694407    -0.189938853029    12.000000000000
         C            1.245940360964    -2.204371305593    -0.299967853029    12.000000000000
         C            2.541008360964     0.628592694407     0.719118146971    12.000000000000
         H           -2.849857639036     1.271466694407     0.244433146971     1.007825032230
         H           -1.355067639036    -2.756002305593     0.212332146971     1.007825032230
         H            1.630345360964     1.565529694407    -0.844703853029     1.007825032230
         H           -3.250892639036    -1.170749305593     0.454366146971     1.007825032230
         H            0.273827360964     2.903994694407     0.501719146971     1.007825032230
         H           -0.199314639036     2.851971694407    -1.202464853029     1.007825032230
         H           -1.420832639036     3.102235694407     0.043216146971     1.007825032230
         H            1.980281360964    -1.798226305593    -1.000118853029     1.007825032230
         H            1.765168360964    -2.426380305593     0.639424146971     1.007825032230
         H            0.862469360964    -3.150881305593    -0.691690853029     1.007825032230
         H            2.132253360964     1.198808694407     1.566466146971     1.007825032230
         H            3.506314360964     1.057264694407     0.436548146971     1.007825032230
         H            2.720013960964    -0.443171305593     1.066564246971     1.007825032230

  Basis Set: AUG-CC-PVTZ
    Blend: AUG-CC-PVTZ
  Basis Set: (AUG-CC-PVTZ AUX)
    Blend: AUG-CC-PVTZ-JKFIT
	 Reference Energy          =    -402.9595154620820949 [Eh]
	 Singles Energy            =      -0.0000000000000000 [Eh]
	 Same-Spin Energy          =      -0.4480803020897486 [Eh]
	 Opposite-Spin Energy      =      -1.4663396175866896 [Eh]
	 Correlation Energy        =      -1.9144199196764382 [Eh]
	 Total Energy              =    -404.8739353817585425 [Eh]

	 ================> DF-SCS-MP2 Energies <==================
	-----------------------------------------------------------
	 SCS Same-Spin Scale       =       0.3333333333333333 [-]
	 SCS Opposite-Spin Scale   =       1.2000000000000000 [-]
	 SCS Same-Spin Energy      =      -0.1493601006965829 [Eh]
	 SCS Opposite-Spin Energy  =      -1.7596075411040275 [Eh]
	 SCS Correlation Energy    =      -1.9089676418006103 [Eh]
	 SCS Total Energy          =    -404.8684831038826815 [Eh]
	-----------------------------------------------------------

  Dipole Moment: [D]
     X:     0.5235      Y:     1.0913      Z:     0.5058     Total:     1.3118

*** Psi4 exiting successfully. Buy a developer a beer!
