                               Psi4 1.4a3.dev225

  ==> Input File <==

--------------------------------------------------------------------------
#psi4
#
memory 32 gb

molecule  {
0 1
  N        1.6268380     0.6089620    -0.4693990
  C        0.3031040     0.1485790    -0.2066970
  C       -0.7706010     1.0561020    -0.0842670
  C        0.0806060    -1.2405240    -0.1151990
  C       -2.0579110     0.5582020     0.1415980
  C       -1.2176000    -1.6989120     0.1341680
  C       -2.2850370    -0.8120180     0.2620550
  C       -0.5406870     2.5426280    -0.1993030
  C        1.1323898    -2.1547270    -0.2964354
  C        2.5023020     0.6131830     0.7097540
  H       -2.8885640     1.2560570     0.2350690
  H       -1.3937740    -2.7714120     0.2029680
  H        1.5916390     1.5501200    -0.8540680
  H       -3.2895990    -1.1861590     0.4450020
  H        0.2351210     2.8885850     0.4923550
  H       -0.2380210     2.8365620    -1.2118290
  H       -1.4595390     3.0868260     0.0338520
  H        1.9415750    -1.8136360    -1.0094830
  H        1.7264620    -2.4417900     0.6300600
  H        0.8237630    -3.1662910    -0.7010550
  H        2.0935470     1.1833990     1.5571020
  H        3.4676080     1.0418550     0.4271840
  H        2.6734620    -0.4116070     1.0419720
units angstrom
no_reorient  #important for SAPT in psi4, default
symmetry c1  #important for SAPT in psi4, default
}

set PROPERTIES_ORIGIN ["COM"]
properties('MP2/aug-cc-pvtz', properties = ['dipole'])
--------------------------------------------------------------------------

    Molecular point group: c1
  Charge       = 0
  Multiplicity = 1
  Basis Set: AUG-CC-PVTZ
    Blend: AUG-CC-PVTZ
  Basis Set: (AUG-CC-PVTZ AUX)
    Blend: AUG-CC-PVTZ-JKFIT

    Orbital Energies [Eh]
    ---------------------

    Doubly Occupied:

       1A    -15.554160     2A    -11.258662     3A    -11.249450
       4A    -11.236302     5A    -11.228623     6A    -11.226861
       7A    -11.225842     8A    -11.224559     9A    -11.223253
      10A    -11.217910    11A     -1.227903    12A     -1.133778
      13A     -1.064054    14A     -1.016425    15A     -0.945613
      16A     -0.921340    17A     -0.890163    18A     -0.796759
      19A     -0.779802    20A     -0.692991    21A     -0.663944
      22A     -0.634049    23A     -0.607227    24A     -0.591981
      25A     -0.585700    26A     -0.566379    27A     -0.563277
      28A     -0.558782    29A     -0.550297    30A     -0.530586
      31A     -0.508867    32A     -0.494247    33A     -0.471601
      34A     -0.466215    35A     -0.402576    36A     -0.315329
      37A     -0.302343

  @DF-RHF Final Energy:  -402.94923440422406

   => Energetics <=

    Nuclear Repulsion Energy =            523.1720594445724828
    One-Electron Energy =               -1582.3868858885587088
    Two-Electron Energy =                 656.2655920397620548
    Total Energy =                       -402.9492344042240575
  Basis Set: (AUG-CC-PVTZ AUX)
    Blend: AUG-CC-PVTZ-RI
    Molecular point group: c1

    Geometry (in Angstrom), charge = 0, multiplicity = 1:

       Center              X                  Y                   Z               Mass
    ------------   -----------------  -----------------  -----------------  -----------------
         N            1.672250543097     0.618243195815    -0.461066733023    14.003074004430
         C            0.348516543097     0.157860195815    -0.198364733023    12.000000000000
         C           -0.725188456903     1.065383195815    -0.075934733023    12.000000000000
         C            0.126018543097    -1.231242804185    -0.106866733023    12.000000000000
         C           -2.012498456903     0.567483195815     0.149930266977    12.000000000000
         C           -1.172187456903    -1.689630804185     0.142500266977    12.000000000000
         C           -2.239624456903    -0.802736804185     0.270387266977    12.000000000000
         C           -0.495274456903     2.551909195815    -0.190970733023    12.000000000000
         C            1.177802343097    -2.145445804185    -0.288103133023    12.000000000000
         C            2.547714543097     0.622464195815     0.718086266977    12.000000000000
         H           -2.843151456903     1.265338195815     0.243401266977     1.007825032230
         H           -1.348361456903    -2.762130804185     0.211300266977     1.007825032230
         H            1.637051543097     1.559401195815    -0.845735733023     1.007825032230
         H           -3.244186456903    -1.176877804185     0.453334266977     1.007825032230
         H            0.280533543097     2.897866195815     0.500687266977     1.007825032230
         H           -0.192608456903     2.845843195815    -1.203496733023     1.007825032230
         H           -1.414126456903     3.096107195815     0.042184266977     1.007825032230
         H            1.986987543097    -1.804354804185    -1.001150733023     1.007825032230
         H            1.771874543097    -2.432508804185     0.638392266977     1.007825032230
         H            0.869175543097    -3.157009804185    -0.692722733023     1.007825032230
         H            2.138959543097     1.192680195815     1.565434266977     1.007825032230
         H            3.513020543097     1.051136195815     0.435516266977     1.007825032230
         H            2.718874543097    -0.402325804185     1.050304266977     1.007825032230

  Basis Set: AUG-CC-PVTZ
    Blend: AUG-CC-PVTZ
  Basis Set: (AUG-CC-PVTZ AUX)
    Blend: AUG-CC-PVTZ-JKFIT
	 Reference Energy          =    -402.9492344042240575 [Eh]
	 Singles Energy            =      -0.0000000000000000 [Eh]
	 Same-Spin Energy          =      -0.4494170699486707 [Eh]
	 Opposite-Spin Energy      =      -1.4675286537851968 [Eh]
	 Correlation Energy        =      -1.9169457237338676 [Eh]
	 Total Energy              =    -404.8661801279579322 [Eh]

	 ================> DF-SCS-MP2 Energies <==================
	-----------------------------------------------------------
	 SCS Same-Spin Scale       =       0.3333333333333333 [-]
	 SCS Opposite-Spin Scale   =       1.2000000000000000 [-]
	 SCS Same-Spin Energy      =      -0.1498056899828902 [Eh]
	 SCS Opposite-Spin Energy  =      -1.7610343845422360 [Eh]
	 SCS Correlation Energy    =      -1.9108400745251262 [Eh]
	 SCS Total Energy          =    -404.8600744787491976 [Eh]
	-----------------------------------------------------------

  Dipole Moment: [D]
     X:     0.5481      Y:     1.0836      Z:     0.5148     Total:     1.3190

*** Psi4 exiting successfully. Buy a developer a beer!
