                               Psi4 1.4a3.dev225

  ==> Input File <==

--------------------------------------------------------------------------
#psi4
#
memory 32 gb

molecule  {
0 1
  N        1.6268380     0.6089620    -0.4693990
  C        0.3031040     0.1485790    -0.2066970
  C       -0.7706010     1.0561020    -0.0842670
  C        0.0806060    -1.2405240    -0.1151990
  C       -2.0579110     0.5582020     0.1415980
  C       -1.2176000    -1.6989120     0.1341680
  C       -2.2850370    -0.8120180     0.2620550
  C       -0.5406870     2.5426280    -0.1993030
  C        1.2072340    -2.2197810    -0.3093320
  C        2.5023020     0.6131830     0.7097540
  H       -2.8885640     1.2560570     0.2350690
  H       -1.3937740    -2.7714120     0.2029680
  H        1.5916390     1.5501200    -0.8540680
  H       -3.2895990    -1.1861590     0.4450020
  H        0.2351210     2.8885850     0.4923550
  H       -0.2380210     2.8365620    -1.2118290
  H       -1.4595390     3.0868260     0.0338520
  H        1.9415750    -1.8136360    -1.0094830
  H        1.7264620    -2.4417900     0.6300600
  H        0.8237630    -3.1662910    -0.7010550
  H        2.0935470     1.1833990     1.5571020
  H        3.4676080     1.0418550     0.4271840
  H        2.6891531    -0.5055549     1.0724282
units angstrom
no_reorient  #important for SAPT in psi4, default
symmetry c1  #important for SAPT in psi4, default
}

set PROPERTIES_ORIGIN ["COM"]
properties('MP2/aug-cc-pvtz', properties = ['dipole'])
--------------------------------------------------------------------------

    Molecular point group: c1
  Charge       = 0
  Multiplicity = 1
  Basis Set: AUG-CC-PVTZ
    Blend: AUG-CC-PVTZ
  Basis Set: (AUG-CC-PVTZ AUX)
    Blend: AUG-CC-PVTZ-JKFIT

    Orbital Energies [Eh]
    ---------------------

    Doubly Occupied:

       1A    -15.555279     2A    -11.261193     3A    -11.258509
       4A    -11.236137     5A    -11.232158     6A    -11.228743
       7A    -11.225525     8A    -11.224343     9A    -11.223101
      10A    -11.213854    11A     -1.226982    12A     -1.130905
      13A     -1.054513    14A     -1.012129    15A     -0.943346
      16A     -0.921983    17A     -0.886233    18A     -0.794113
      19A     -0.781214    20A     -0.692035    21A     -0.661101
      22A     -0.629753    23A     -0.603910    24A     -0.588576
      25A     -0.578779    26A     -0.568168    27A     -0.563835
      28A     -0.556668    29A     -0.552142    30A     -0.523917
      31A     -0.517794    32A     -0.483579    33A     -0.476795
      34A     -0.470613    35A     -0.402407    36A     -0.317196
      37A     -0.303018

  @DF-RHF Final Energy:  -402.95489847452433

   => Energetics <=

    Nuclear Repulsion Energy =            520.9468504400609845
    One-Electron Energy =               -1578.0024084635037980
    Two-Electron Energy =                 654.1006595489183155
    Total Energy =                       -402.9548984745243843
  Basis Set: (AUG-CC-PVTZ AUX)
    Blend: AUG-CC-PVTZ-RI
    Molecular point group: c1

    Geometry (in Angstrom), charge = 0, multiplicity = 1:

       Center              X                  Y                   Z               Mass
    ------------   -----------------  -----------------  -----------------  -----------------
         N            1.665485836830     0.624722099963    -0.460148448256    14.003074004430
         C            0.341751836830     0.164339099963    -0.197446448256    12.000000000000
         C           -0.731953163170     1.071862099963    -0.075016448256    12.000000000000
         C            0.119253836830    -1.224763900037    -0.105948448256    12.000000000000
         C           -2.019263163170     0.573962099963     0.150848551744    12.000000000000
         C           -1.178952163170    -1.683151900037     0.143418551744    12.000000000000
         C           -2.246389163170    -0.796257900037     0.271305551744    12.000000000000
         C           -0.502039163170     2.558388099963    -0.190052448256    12.000000000000
         C            1.245881836830    -2.204020900037    -0.300081448256    12.000000000000
         C            2.540949836830     0.628943099963     0.719004551744    12.000000000000
         H           -2.849916163170     1.271817099963     0.244319551744     1.007825032230
         H           -1.355126163170    -2.755651900037     0.212218551744     1.007825032230
         H            1.630286836830     1.565880099963    -0.844817448256     1.007825032230
         H           -3.250951163170    -1.170398900037     0.454252551744     1.007825032230
         H            0.273768836830     2.904345099963     0.501605551744     1.007825032230
         H           -0.199373163170     2.852322099963    -1.202578448256     1.007825032230
         H           -1.420891163170     3.102586099963     0.043102551744     1.007825032230
         H            1.980222836830    -1.797875900037    -1.000232448256     1.007825032230
         H            1.765109836830    -2.426029900037     0.639310551744     1.007825032230
         H            0.862410836830    -3.150530900037    -0.691804448256     1.007825032230
         H            2.132194836830     1.199159099963     1.566352551744     1.007825032230
         H            3.506255836830     1.057615099963     0.436434551744     1.007825032230
         H            2.727800936830    -0.489794800037     1.081678751744     1.007825032230

  Basis Set: AUG-CC-PVTZ
    Blend: AUG-CC-PVTZ
  Basis Set: (AUG-CC-PVTZ AUX)
    Blend: AUG-CC-PVTZ-JKFIT
	 Reference Energy          =    -402.9548984745243274 [Eh]
	 Singles Energy            =      -0.0000000000000000 [Eh]
	 Same-Spin Energy          =      -0.4481796284042801 [Eh]
	 Opposite-Spin Energy      =      -1.4668173057849188 [Eh]
	 Correlation Energy        =      -1.9149969341891988 [Eh]
	 Total Energy              =    -404.8698954087135462 [Eh]

	 ================> DF-SCS-MP2 Energies <==================
	-----------------------------------------------------------
	 SCS Same-Spin Scale       =       0.3333333333333333 [-]
	 SCS Opposite-Spin Scale   =       1.2000000000000000 [-]
	 SCS Same-Spin Energy      =      -0.1493932094680933 [Eh]
	 SCS Opposite-Spin Energy  =      -1.7601807669419025 [Eh]
	 SCS Correlation Energy    =      -1.9095739764099959 [Eh]
	 SCS Total Energy          =    -404.8644724509343291 [Eh]
	-----------------------------------------------------------

  Dipole Moment: [D]
     X:     0.5057      Y:     1.1126      Z:     0.4892     Total:     1.3164

*** Psi4 exiting successfully. Buy a developer a beer!
