                               Psi4 1.4a3.dev225

  ==> Input File <==

--------------------------------------------------------------------------
#psi4
#
memory 32 gb

molecule  {
0 1
  N        1.6268380     0.6089620    -0.4693990
  C        0.3031040     0.1485790    -0.2066970
  C       -0.7706010     1.0561020    -0.0842670
  C        0.0806060    -1.2405240    -0.1151990
  C       -2.0816458     0.5622306     0.1451288
  C       -1.2176000    -1.6989120     0.1341680
  C       -2.2850370    -0.8120180     0.2620550
  C       -0.5406870     2.5426280    -0.1993030
  C        1.2072340    -2.2197810    -0.3093320
  C        2.5023020     0.6131830     0.7097540
  H       -2.8885640     1.2560570     0.2350690
  H       -1.3937740    -2.7714120     0.2029680
  H        1.5916390     1.5501200    -0.8540680
  H       -3.2895990    -1.1861590     0.4450020
  H        0.2351210     2.8885850     0.4923550
  H       -0.2380210     2.8365620    -1.2118290
  H       -1.4595390     3.0868260     0.0338520
  H        1.9415750    -1.8136360    -1.0094830
  H        1.7264620    -2.4417900     0.6300600
  H        0.8237630    -3.1662910    -0.7010550
  H        2.0935470     1.1833990     1.5571020
  H        3.4676080     1.0418550     0.4271840
  H        2.6734620    -0.4116070     1.0419720
units angstrom
no_reorient  #important for SAPT in psi4, default
symmetry c1  #important for SAPT in psi4, default
}

set PROPERTIES_ORIGIN ["COM"]
properties('MP2/aug-cc-pvtz', properties = ['dipole'])
--------------------------------------------------------------------------

    Molecular point group: c1
  Charge       = 0
  Multiplicity = 1
  Basis Set: AUG-CC-PVTZ
    Blend: AUG-CC-PVTZ
  Basis Set: (AUG-CC-PVTZ AUX)
    Blend: AUG-CC-PVTZ-JKFIT

    Orbital Energies [Eh]
    ---------------------

    Doubly Occupied:

       1A    -15.553795     2A    -11.258056     3A    -11.249584
       4A    -11.238098     5A    -11.232781     6A    -11.228214
       7A    -11.225789     8A    -11.224533     9A    -11.222995
      10A    -11.214340    11A     -1.226306    12A     -1.129062
      13A     -1.053241    14A     -1.012649    15A     -0.945336
      16A     -0.921923    17A     -0.891960    18A     -0.793006
      19A     -0.782959    20A     -0.692737    21A     -0.661201
      22A     -0.628515    23A     -0.604200    24A     -0.591443
      25A     -0.580423    26A     -0.569220    27A     -0.565220
      28A     -0.556401    29A     -0.553755    30A     -0.530290
      31A     -0.520573    32A     -0.486727    33A     -0.475467
      34A     -0.469802    35A     -0.402653    36A     -0.314960
      37A     -0.303419

  @DF-RHF Final Energy:  -402.96080088808958

   => Energetics <=

    Nuclear Repulsion Energy =            520.8604271039305331
    One-Electron Energy =               -1577.8191935914192072
    Two-Electron Energy =                 653.9979655993990946
    Total Energy =                       -402.9608008880895795
  Basis Set: (AUG-CC-PVTZ AUX)
    Blend: AUG-CC-PVTZ-RI
    Molecular point group: c1

    Geometry (in Angstrom), charge = 0, multiplicity = 1:

       Center              X                  Y                   Z               Mass
    ------------   -----------------  -----------------  -----------------  -----------------
         N            1.667711009324     0.623663468101    -0.460234863242    14.003074004430
         C            0.343977009324     0.163280468101    -0.197532863242    12.000000000000
         C           -0.729727990676     1.070803468101    -0.075102863242    12.000000000000
         C            0.121479009324    -1.225822531899    -0.106034863242    12.000000000000
         C           -2.040772790676     0.576932068101     0.154292936758    12.000000000000
         C           -1.176726990676    -1.684210531899     0.143332136758    12.000000000000
         C           -2.244163990676    -0.797316531899     0.271219136758    12.000000000000
         C           -0.499813990676     2.557329468101    -0.190138863242    12.000000000000
         C            1.248107009324    -2.205079531899    -0.300167863242    12.000000000000
         C            2.543175009324     0.627884468101     0.718918136758    12.000000000000
         H           -2.847690990676     1.270758468101     0.244233136758     1.007825032230
         H           -1.352900990676    -2.756710531899     0.212132136758     1.007825032230
         H            1.632512009324     1.564821468101    -0.844903863242     1.007825032230
         H           -3.248725990676    -1.171457531899     0.454166136758     1.007825032230
         H            0.275994009324     2.903286468101     0.501519136758     1.007825032230
         H           -0.197147990676     2.851263468101    -1.202664863242     1.007825032230
         H           -1.418665990676     3.101527468101     0.043016136758     1.007825032230
         H            1.982448009324    -1.798934531899    -1.000318863242     1.007825032230
         H            1.767335009324    -2.427088531899     0.639224136758     1.007825032230
         H            0.864636009324    -3.151589531899    -0.691890863242     1.007825032230
         H            2.134420009324     1.198100468101     1.566266136758     1.007825032230
         H            3.508481009324     1.056556468101     0.436348136758     1.007825032230
         H            2.714335009324    -0.396905531899     1.051136136758     1.007825032230

  Basis Set: AUG-CC-PVTZ
    Blend: AUG-CC-PVTZ
  Basis Set: (AUG-CC-PVTZ AUX)
    Blend: AUG-CC-PVTZ-JKFIT
	 Reference Energy          =    -402.9608008880895795 [Eh]
	 Singles Energy            =      -0.0000000000000000 [Eh]
	 Same-Spin Energy          =      -0.4479749505267119 [Eh]
	 Opposite-Spin Energy      =      -1.4660070159028153 [Eh]
	 Correlation Energy        =      -1.9139819664295272 [Eh]
	 Total Energy              =    -404.8747828545190828 [Eh]

	 ================> DF-SCS-MP2 Energies <==================
	-----------------------------------------------------------
	 SCS Same-Spin Scale       =       0.3333333333333333 [-]
	 SCS Opposite-Spin Scale   =       1.2000000000000000 [-]
	 SCS Same-Spin Energy      =      -0.1493249835089039 [Eh]
	 SCS Opposite-Spin Energy  =      -1.7592084190833783 [Eh]
	 SCS Correlation Energy    =      -1.9085334025922822 [Eh]
	 SCS Total Energy          =    -404.8693342906818771 [Eh]
	-----------------------------------------------------------

  Dipole Moment: [D]
     X:     0.5381      Y:     1.0753      Z:     0.5209     Total:     1.3103

*** Psi4 exiting successfully. Buy a developer a beer!
