                               Psi4 1.4a3.dev225

  ==> Input File <==

--------------------------------------------------------------------------
#psi4
#
memory 32 gb

molecule  {
0 1
  N        1.6268380     0.6089620    -0.4693990
  C        0.3031040     0.1485790    -0.2066970
  C       -0.7706010     1.0561020    -0.0842670
  C        0.0806060    -1.2405240    -0.1151990
  C       -2.0579110     0.5582020     0.1415980
  C       -1.2176000    -1.6989120     0.1341680
  C       -2.2850370    -0.8120180     0.2620550
  C       -0.5406870     2.5426280    -0.1993030
  C        1.2072340    -2.2197810    -0.3093320
  C        2.5023020     0.6131830     0.7097540
  H       -2.8885640     1.2560570     0.2350690
  H       -1.3937740    -2.7714120     0.2029680
  H        1.5916390     1.5501200    -0.8540680
  H       -3.2895990    -1.1861590     0.4450020
  H        0.2351210     2.8885850     0.4923550
  H       -0.2380210     2.8365620    -1.2118290
  H       -1.4595390     3.0868260     0.0338520
  H        1.9415750    -1.8136360    -1.0094830
  H        1.7264620    -2.4417900     0.6300600
  H        0.8237630    -3.1662910    -0.7010550
  H        2.0935470     1.1833990     1.5571020
  H        3.4499503     1.0340136     0.4323529
  H        2.6734620    -0.4116070     1.0419720
units angstrom
no_reorient  #important for SAPT in psi4, default
symmetry c1  #important for SAPT in psi4, default
}

set PROPERTIES_ORIGIN ["COM"]
properties('MP2/aug-cc-pvtz', properties = ['dipole'])
--------------------------------------------------------------------------

    Molecular point group: c1
  Charge       = 0
  Multiplicity = 1
  Basis Set: AUG-CC-PVTZ
    Blend: AUG-CC-PVTZ
  Basis Set: (AUG-CC-PVTZ AUX)
    Blend: AUG-CC-PVTZ-JKFIT

    Orbital Energies [Eh]
    ---------------------

    Doubly Occupied:

       1A    -15.553621     2A    -11.258098     3A    -11.247181
       4A    -11.235768     5A    -11.231911     6A    -11.228314
       7A    -11.225288     8A    -11.224118     9A    -11.222916
      10A    -11.214044    11A     -1.226506    12A     -1.130807
      13A     -1.054306    14A     -1.012513    15A     -0.946020
      16A     -0.922105    17A     -0.893221    18A     -0.794539
      19A     -0.781208    20A     -0.692789    21A     -0.660641
      22A     -0.630166    23A     -0.603922    24A     -0.591419
      25A     -0.579017    26A     -0.568747    27A     -0.565367
      28A     -0.556858    29A     -0.552226    30A     -0.532550
      31A     -0.520953    32A     -0.485258    33A     -0.477160
      34A     -0.470778    35A     -0.402450    36A     -0.316996
      37A     -0.302614

  @DF-RHF Final Energy:  -402.96178886934752

   => Energetics <=

    Nuclear Repulsion Energy =            521.4119138824166839
    One-Electron Energy =               -1578.9226117378123035
    Two-Electron Energy =                 654.5489089860481045
    Total Energy =                       -402.9617888693475152
  Basis Set: (AUG-CC-PVTZ AUX)
    Blend: AUG-CC-PVTZ-RI
    Molecular point group: c1

    Geometry (in Angstrom), charge = 0, multiplicity = 1:

       Center              X                  Y                   Z               Mass
    ------------   -----------------  -----------------  -----------------  -----------------
         N            1.665734604865     0.624079781655    -0.459959815624    14.003074004430
         C            0.342000604865     0.163696781655    -0.197257815624    12.000000000000
         C           -0.731704395135     1.071219781655    -0.074827815624    12.000000000000
         C            0.119502604865    -1.225406218345    -0.105759815624    12.000000000000
         C           -2.019014395135     0.573319781655     0.151037184376    12.000000000000
         C           -1.178703395135    -1.683794218345     0.143607184376    12.000000000000
         C           -2.246140395135    -0.796900218345     0.271494184376    12.000000000000
         C           -0.501790395135     2.557745781655    -0.189863815624    12.000000000000
         C            1.246130604865    -2.204663218345    -0.299892815624    12.000000000000
         C            2.541198604865     0.628300781655     0.719193184376    12.000000000000
         H           -2.849667395135     1.271174781655     0.244508184376     1.007825032230
         H           -1.354877395135    -2.756294218345     0.212407184376     1.007825032230
         H            1.630535604865     1.565237781655    -0.844628815624     1.007825032230
         H           -3.250702395135    -1.171041218345     0.454441184376     1.007825032230
         H            0.274017604865     2.903702781655     0.501794184376     1.007825032230
         H           -0.199124395135     2.851679781655    -1.202389815624     1.007825032230
         H           -1.420642395135     3.101943781655     0.043291184376     1.007825032230
         H            1.980471604865    -1.798518218345    -1.000043815624     1.007825032230
         H            1.765358604865    -2.426672218345     0.639499184376     1.007825032230
         H            0.862659604865    -3.151173218345    -0.691615815624     1.007825032230
         H            2.132443604865     1.198516781655     1.566541184376     1.007825032230
         H            3.488846904865     1.049131381655     0.441792084376     1.007825032230
         H            2.712358604865    -0.396489218345     1.051411184376     1.007825032230

  Basis Set: AUG-CC-PVTZ
    Blend: AUG-CC-PVTZ
  Basis Set: (AUG-CC-PVTZ AUX)
    Blend: AUG-CC-PVTZ-JKFIT
	 Reference Energy          =    -402.9617888693475152 [Eh]
	 Singles Energy            =      -0.0000000000000000 [Eh]
	 Same-Spin Energy          =      -0.4479901002161366 [Eh]
	 Opposite-Spin Energy      =      -1.4657997028173360 [Eh]
	 Correlation Energy        =      -1.9137898030334726 [Eh]
	 Total Energy              =    -404.8755786723809820 [Eh]

	 ================> DF-SCS-MP2 Energies <==================
	-----------------------------------------------------------
	 SCS Same-Spin Scale       =       0.3333333333333333 [-]
	 SCS Opposite-Spin Scale   =       1.2000000000000000 [-]
	 SCS Same-Spin Energy      =      -0.1493300334053789 [Eh]
	 SCS Opposite-Spin Energy  =      -1.7589596433808030 [Eh]
	 SCS Correlation Energy    =      -1.9082896767861819 [Eh]
	 SCS Total Energy          =    -404.8700785461336977 [Eh]
	-----------------------------------------------------------

  Dipole Moment: [D]
     X:     0.5544      Y:     1.0780      Z:     0.5217     Total:     1.3197

*** Psi4 exiting successfully. Buy a developer a beer!
