                               Psi4 1.4a3.dev225

  ==> Input File <==

--------------------------------------------------------------------------
#psi4
#
memory 32 gb

molecule  {
0 1
  N        1.6268380     0.6089620    -0.4693990
  C        0.3031040     0.1485790    -0.2066970
  C       -0.7706010     1.0561020    -0.0842670
  C        0.0806060    -1.2405240    -0.1151990
  C       -2.0579110     0.5582020     0.1415980
  C       -1.2176000    -1.6989120     0.1341680
  C       -2.2850370    -0.8120180     0.2620550
  C       -0.5406870     2.5426280    -0.1993030
  C        1.2072340    -2.2197810    -0.3093320
  C        2.5023020     0.6131830     0.7097540
  H       -2.8885640     1.2560570     0.2350690
  H       -1.3937740    -2.7714120     0.2029680
  H        1.5916390     1.5501200    -0.8540680
  H       -3.2895990    -1.1861590     0.4450020
  H        0.2351210     2.8885850     0.4923550
  H       -0.2380210     2.8365620    -1.2118290
  H       -1.4595390     3.0868260     0.0338520
  H        1.9139101    -1.8103249    -1.0355389
  H        1.7264620    -2.4417900     0.6300600
  H        0.8237630    -3.1662910    -0.7010550
  H        2.0935470     1.1833990     1.5571020
  H        3.4676080     1.0418550     0.4271840
  H        2.6734620    -0.4116070     1.0419720
units angstrom
no_reorient  #important for SAPT in psi4, default
symmetry c1  #important for SAPT in psi4, default
}

set PROPERTIES_ORIGIN ["COM"]
properties('MP2/aug-cc-pvtz', properties = ['dipole'])
--------------------------------------------------------------------------

    Molecular point group: c1
  Charge       = 0
  Multiplicity = 1
  Basis Set: AUG-CC-PVTZ
    Blend: AUG-CC-PVTZ
  Basis Set: (AUG-CC-PVTZ AUX)
    Blend: AUG-CC-PVTZ-JKFIT

    Orbital Energies [Eh]
    ---------------------

    Doubly Occupied:

       1A    -15.553780     2A    -11.258172     3A    -11.249543
       4A    -11.235861     5A    -11.231770     6A    -11.228362
       7A    -11.225325     8A    -11.224124     9A    -11.222868
      10A    -11.214073    11A     -1.226528    12A     -1.130781
      13A     -1.054430    14A     -1.012433    15A     -0.945282
      16A     -0.922044    17A     -0.891990    18A     -0.794579
      19A     -0.780999    20A     -0.692512    21A     -0.660361
      22A     -0.629561    23A     -0.603518    24A     -0.591431
      25A     -0.578605    26A     -0.570376    27A     -0.565589
      28A     -0.556733    29A     -0.551992    30A     -0.530747
      31A     -0.520094    32A     -0.484667    33A     -0.476901
      34A     -0.471040    35A     -0.402399    36A     -0.317123
      37A     -0.302736

  @DF-RHF Final Energy:  -402.96159114530678

   => Energetics <=

    Nuclear Repulsion Energy =            521.3338648715191539
    One-Electron Energy =               -1578.7722542328262989
    Two-Electron Energy =                 654.4767982160003612
    Total Energy =                       -402.9615911453067838
  Basis Set: (AUG-CC-PVTZ AUX)
    Blend: AUG-CC-PVTZ-RI
    Molecular point group: c1

    Geometry (in Angstrom), charge = 0, multiplicity = 1:

       Center              X                  Y                   Z               Mass
    ------------   -----------------  -----------------  -----------------  -----------------
         N            1.665809254372     0.623996588691    -0.459726891737    14.003074004430
         C            0.342075254372     0.163613588691    -0.197024891737    12.000000000000
         C           -0.731629745628     1.071136588691    -0.074594891737    12.000000000000
         C            0.119577254372    -1.225489411309    -0.105526891737    12.000000000000
         C           -2.018939745628     0.573236588691     0.151270108263    12.000000000000
         C           -1.178628745628    -1.683877411309     0.143840108263    12.000000000000
         C           -2.246065745628    -0.796983411309     0.271727108263    12.000000000000
         C           -0.501715745628     2.557662588691    -0.189630891737    12.000000000000
         C            1.246205254372    -2.204746411309    -0.299659891737    12.000000000000
         C            2.541273254372     0.628217588691     0.719426108263    12.000000000000
         H           -2.849592745628     1.271091588691     0.244741108263     1.007825032230
         H           -1.354802745628    -2.756377411309     0.212640108263     1.007825032230
         H            1.630610254372     1.565154588691    -0.844395891737     1.007825032230
         H           -3.250627745628    -1.171124411309     0.454674108263     1.007825032230
         H            0.274092254372     2.903619588691     0.502027108263     1.007825032230
         H           -0.199049745628     2.851596588691    -1.202156891737     1.007825032230
         H           -1.420567745628     3.101860588691     0.043524108263     1.007825032230
         H            1.952881354372    -1.795290311309    -1.025866791737     1.007825032230
         H            1.765433254372    -2.426755411309     0.639732108263     1.007825032230
         H            0.862734254372    -3.151256411309    -0.691382891737     1.007825032230
         H            2.132518254372     1.198433588691     1.566774108263     1.007825032230
         H            3.506579254372     1.056889588691     0.436856108263     1.007825032230
         H            2.712433254372    -0.396572411309     1.051644108263     1.007825032230

  Basis Set: AUG-CC-PVTZ
    Blend: AUG-CC-PVTZ
  Basis Set: (AUG-CC-PVTZ AUX)
    Blend: AUG-CC-PVTZ-JKFIT
	 Reference Energy          =    -402.9615911453067838 [Eh]
	 Singles Energy            =      -0.0000000000000000 [Eh]
	 Same-Spin Energy          =      -0.4479966389010369 [Eh]
	 Opposite-Spin Energy      =      -1.4659508334889211 [Eh]
	 Correlation Energy        =      -1.9139474723899579 [Eh]
	 Total Energy              =    -404.8755386176967477 [Eh]

	 ================> DF-SCS-MP2 Energies <==================
	-----------------------------------------------------------
	 SCS Same-Spin Scale       =       0.3333333333333333 [-]
	 SCS Opposite-Spin Scale   =       1.2000000000000000 [-]
	 SCS Same-Spin Energy      =      -0.1493322129670123 [Eh]
	 SCS Opposite-Spin Energy  =      -1.7591410001867052 [Eh]
	 SCS Correlation Energy    =      -1.9084732131537174 [Eh]
	 SCS Total Energy          =    -404.8700643584605245 [Eh]
	-----------------------------------------------------------

  Dipole Moment: [D]
     X:     0.5319      Y:     1.0694      Z:     0.5142     Total:     1.3003

*** Psi4 exiting successfully. Buy a developer a beer!
