                               Psi4 1.4a3.dev225

  ==> Input File <==

--------------------------------------------------------------------------
#psi4
#
memory 32 gb

molecule  {
0 1
  N        1.6268380     0.6089620    -0.4693990
  C        0.3031040     0.1485790    -0.2066970
  C       -0.7706010     1.0561020    -0.0842670
  C        0.0806060    -1.2405240    -0.1151990
  C       -2.0579110     0.5582020     0.1415980
  C       -1.2176000    -1.6989120     0.1341680
  C       -2.2850370    -0.8120180     0.2620550
  C       -0.5406870     2.5426280    -0.1993030
  C        1.2072340    -2.2197810    -0.3093320
  C        2.5023020     0.6131830     0.7097540
  H       -2.8885640     1.2560570     0.2350690
  H       -1.3856856    -2.7221718     0.1998093
  H        1.5916390     1.5501200    -0.8540680
  H       -3.2895990    -1.1861590     0.4450020
  H        0.2351210     2.8885850     0.4923550
  H       -0.2380210     2.8365620    -1.2118290
  H       -1.4595390     3.0868260     0.0338520
  H        1.9415750    -1.8136360    -1.0094830
  H        1.7264620    -2.4417900     0.6300600
  H        0.8237630    -3.1662910    -0.7010550
  H        2.0935470     1.1833990     1.5571020
  H        3.4676080     1.0418550     0.4271840
  H        2.6734620    -0.4116070     1.0419720
units angstrom
no_reorient  #important for SAPT in psi4, default
symmetry c1  #important for SAPT in psi4, default
}

set PROPERTIES_ORIGIN ["COM"]
properties('MP2/aug-cc-pvtz', properties = ['dipole'])
--------------------------------------------------------------------------

    Molecular point group: c1
  Charge       = 0
  Multiplicity = 1
  Basis Set: AUG-CC-PVTZ
    Blend: AUG-CC-PVTZ
  Basis Set: (AUG-CC-PVTZ AUX)
    Blend: AUG-CC-PVTZ-JKFIT

    Orbital Energies [Eh]
    ---------------------

    Doubly Occupied:

       1A    -15.553595     2A    -11.257829     3A    -11.249526
       4A    -11.235695     5A    -11.231528     6A    -11.228229
       7A    -11.224959     8A    -11.223516     9A    -11.217267
      10A    -11.214171    11A     -1.226343    12A     -1.130945
      13A     -1.054854    14A     -1.012394    15A     -0.945424
      16A     -0.923893    17A     -0.891880    18A     -0.796646
      19A     -0.781295    20A     -0.696433    21A     -0.661134
      22A     -0.629354    23A     -0.604078    24A     -0.591460
      25A     -0.581075    26A     -0.568938    27A     -0.565177
      28A     -0.558860    29A     -0.552474    30A     -0.530551
      31A     -0.521490    32A     -0.485202    33A     -0.478172
      34A     -0.470580    35A     -0.402299    36A     -0.316832
      37A     -0.302459

  @DF-RHF Final Energy:  -402.96101973927159

   => Energetics <=

    Nuclear Repulsion Energy =            521.5831739684120976
    One-Electron Energy =               -1579.2552726778158103
    Two-Electron Energy =                 654.7110789701320073
    Total Energy =                       -402.9610197392715918
  Basis Set: (AUG-CC-PVTZ AUX)
    Blend: AUG-CC-PVTZ-RI
    Molecular point group: c1

    Geometry (in Angstrom), charge = 0, multiplicity = 1:

       Center              X                  Y                   Z               Mass
    ------------   -----------------  -----------------  -----------------  -----------------
         N            1.665542549778     0.623653976905    -0.459897695227    14.003074004430
         C            0.341808549778     0.163270976905    -0.197195695227    12.000000000000
         C           -0.731896450222     1.070793976905    -0.074765695227    12.000000000000
         C            0.119310549778    -1.225832023095    -0.105697695227    12.000000000000
         C           -2.019206450222     0.572893976905     0.151099304773    12.000000000000
         C           -1.178895450222    -1.684220023095     0.143669304773    12.000000000000
         C           -2.246332450222    -0.797326023095     0.271556304773    12.000000000000
         C           -0.501982450222     2.557319976905    -0.189801695227    12.000000000000
         C            1.245938549778    -2.205089023095    -0.299830695227    12.000000000000
         C            2.541006549778     0.627874976905     0.719255304773    12.000000000000
         H           -2.849859450222     1.270748976905     0.244570304773     1.007825032230
         H           -1.346981050222    -2.707479823095     0.209310604773     1.007825032230
         H            1.630343549778     1.564811976905    -0.844566695227     1.007825032230
         H           -3.250894450222    -1.171467023095     0.454503304773     1.007825032230
         H            0.273825549778     2.903276976905     0.501856304773     1.007825032230
         H           -0.199316450222     2.851253976905    -1.202327695227     1.007825032230
         H           -1.420834450222     3.101517976905     0.043353304773     1.007825032230
         H            1.980279549778    -1.798944023095    -0.999981695227     1.007825032230
         H            1.765166549778    -2.427098023095     0.639561304773     1.007825032230
         H            0.862467549778    -3.151599023095    -0.691553695227     1.007825032230
         H            2.132251549778     1.198090976905     1.566603304773     1.007825032230
         H            3.506312549778     1.056546976905     0.436685304773     1.007825032230
         H            2.712166549778    -0.396915023095     1.051473304773     1.007825032230

  Basis Set: AUG-CC-PVTZ
    Blend: AUG-CC-PVTZ
  Basis Set: (AUG-CC-PVTZ AUX)
    Blend: AUG-CC-PVTZ-JKFIT
	 Reference Energy          =    -402.9610197392715918 [Eh]
	 Singles Energy            =      -0.0000000000000000 [Eh]
	 Same-Spin Energy          =      -0.4478924733702113 [Eh]
	 Opposite-Spin Energy      =      -1.4655923122365073 [Eh]
	 Correlation Energy        =      -1.9134847856067188 [Eh]
	 Total Energy              =    -404.8745045248783185 [Eh]

	 ================> DF-SCS-MP2 Energies <==================
	-----------------------------------------------------------
	 SCS Same-Spin Scale       =       0.3333333333333333 [-]
	 SCS Opposite-Spin Scale   =       1.2000000000000000 [-]
	 SCS Same-Spin Energy      =      -0.1492974911234038 [Eh]
	 SCS Opposite-Spin Energy  =      -1.7587107746838087 [Eh]
	 SCS Correlation Energy    =      -1.9080082658072124 [Eh]
	 SCS Total Energy          =    -404.8690280050788033 [Eh]
	-----------------------------------------------------------

  Dipole Moment: [D]
     X:     0.5344      Y:     1.0500      Z:     0.5216     Total:     1.2884

*** Psi4 exiting successfully. Buy a developer a beer!
