                               Psi4 1.4a3.dev225

  ==> Input File <==

--------------------------------------------------------------------------
#psi4
#
memory 32 gb

molecule  {
0 1
  N        1.6268380     0.6089620    -0.4693990
  C        0.3031040     0.1485790    -0.2066970
  C       -0.7706010     1.0561020    -0.0842670
  C        0.0806060    -1.2405240    -0.1151990
  C       -2.0579110     0.5582020     0.1415980
  C       -1.2176000    -1.6989120     0.1341680
  C       -2.2850370    -0.8120180     0.2620550
  C       -0.5406870     2.5426280    -0.1993030
  C        1.2072340    -2.2197810    -0.3093320
  C        2.5023020     0.6131830     0.7097540
  H       -2.8885640     1.2560570     0.2350690
  H       -1.3970094    -2.7911081     0.2042315
  H        1.5916390     1.5501200    -0.8540680
  H       -3.2895990    -1.1861590     0.4450020
  H        0.2351210     2.8885850     0.4923550
  H       -0.2380210     2.8365620    -1.2118290
  H       -1.4595390     3.0868260     0.0338520
  H        1.9415750    -1.8136360    -1.0094830
  H        1.7264620    -2.4417900     0.6300600
  H        0.8237630    -3.1662910    -0.7010550
  H        2.0935470     1.1833990     1.5571020
  H        3.4676080     1.0418550     0.4271840
  H        2.6734620    -0.4116070     1.0419720
units angstrom
no_reorient  #important for SAPT in psi4, default
symmetry c1  #important for SAPT in psi4, default
}

set PROPERTIES_ORIGIN ["COM"]
properties('MP2/aug-cc-pvtz', properties = ['dipole'])
--------------------------------------------------------------------------

    Molecular point group: c1
  Charge       = 0
  Multiplicity = 1
  Basis Set: AUG-CC-PVTZ
    Blend: AUG-CC-PVTZ
  Basis Set: (AUG-CC-PVTZ AUX)
    Blend: AUG-CC-PVTZ-JKFIT

    Orbital Energies [Eh]
    ---------------------

    Doubly Occupied:

       1A    -15.553886     2A    -11.258391     3A    -11.249690
       4A    -11.235985     5A    -11.232267     6A    -11.228448
       7A    -11.226043     8A    -11.225353     9A    -11.223949
      10A    -11.214110    11A     -1.226645    12A     -1.130833
      13A     -1.054265    14A     -1.012446    15A     -0.945364
      16A     -0.921549    17A     -0.892146    18A     -0.793986
      19A     -0.781259    20A     -0.691195    21A     -0.660560
      22A     -0.629602    23A     -0.603324    24A     -0.591563
      25A     -0.578059    26A     -0.568819    27A     -0.565342
      28A     -0.555903    29A     -0.551919    30A     -0.530794
      31A     -0.520819    32A     -0.485411    33A     -0.476472
      34A     -0.470961    35A     -0.402548    36A     -0.317210
      37A     -0.302868

  @DF-RHF Final Energy:  -402.96110254740677

   => Energetics <=

    Nuclear Repulsion Energy =            521.2100020398179367
    One-Electron Energy =               -1578.5222418110849958
    Two-Electron Energy =                 654.3511372238602917
    Total Energy =                       -402.9611025474067674
  Basis Set: (AUG-CC-PVTZ AUX)
    Blend: AUG-CC-PVTZ-RI
    Molecular point group: c1

    Geometry (in Angstrom), charge = 0, multiplicity = 1:

       Center              X                  Y                   Z               Mass
    ------------   -----------------  -----------------  -----------------  -----------------
         N            1.665627020567     0.624168212736    -0.459930682981    14.003074004430
         C            0.341893020567     0.163785212736    -0.197228682981    12.000000000000
         C           -0.731811979433     1.071308212736    -0.074798682981    12.000000000000
         C            0.119395020567    -1.225317787264    -0.105730682981    12.000000000000
         C           -2.019121979433     0.573408212736     0.151066317019    12.000000000000
         C           -1.178810979433    -1.683705787264     0.143636317019    12.000000000000
         C           -2.246247979433    -0.796811787264     0.271523317019    12.000000000000
         C           -0.501897979433     2.557834212736    -0.189834682981    12.000000000000
         C            1.246023020567    -2.204574787264    -0.299863682981    12.000000000000
         C            2.541091020567     0.628389212736     0.719222317019    12.000000000000
         H           -2.849774979433     1.271263212736     0.244537317019     1.007825032230
         H           -1.358220379433    -2.775901887264     0.213699817019     1.007825032230
         H            1.630428020567     1.565326212736    -0.844599682981     1.007825032230
         H           -3.250809979433    -1.170952787264     0.454470317019     1.007825032230
         H            0.273910020567     2.903791212736     0.501823317019     1.007825032230
         H           -0.199231979433     2.851768212736    -1.202360682981     1.007825032230
         H           -1.420749979433     3.102032212736     0.043320317019     1.007825032230
         H            1.980364020567    -1.798429787264    -1.000014682981     1.007825032230
         H            1.765251020567    -2.426583787264     0.639528317019     1.007825032230
         H            0.862552020567    -3.151084787264    -0.691586682981     1.007825032230
         H            2.132336020567     1.198605212736     1.566570317019     1.007825032230
         H            3.506397020567     1.057061212736     0.436652317019     1.007825032230
         H            2.712251020567    -0.396400787264     1.051440317019     1.007825032230

  Basis Set: AUG-CC-PVTZ
    Blend: AUG-CC-PVTZ
  Basis Set: (AUG-CC-PVTZ AUX)
    Blend: AUG-CC-PVTZ-JKFIT
	 Reference Energy          =    -402.9611025474067674 [Eh]
	 Singles Energy            =      -0.0000000000000000 [Eh]
	 Same-Spin Energy          =      -0.4480367038241410 [Eh]
	 Opposite-Spin Energy      =      -1.4660819142035377 [Eh]
	 Correlation Energy        =      -1.9141186180276788 [Eh]
	 Total Energy              =    -404.8752211654344251 [Eh]

	 ================> DF-SCS-MP2 Energies <==================
	-----------------------------------------------------------
	 SCS Same-Spin Scale       =       0.3333333333333333 [-]
	 SCS Opposite-Spin Scale   =       1.2000000000000000 [-]
	 SCS Same-Spin Energy      =      -0.1493455679413803 [Eh]
	 SCS Opposite-Spin Energy  =      -1.7592982970442452 [Eh]
	 SCS Correlation Energy    =      -1.9086438649856257 [Eh]
	 SCS Total Energy          =    -404.8697464123923737 [Eh]
	-----------------------------------------------------------

  Dipole Moment: [D]
     X:     0.5410      Y:     1.0829      Z:     0.5200     Total:     1.3175

*** Psi4 exiting successfully. Buy a developer a beer!
