                               Psi4 1.4a3.dev225

  ==> Input File <==

--------------------------------------------------------------------------
#psi4
#
memory 32 gb

molecule  {
0 1
  N        1.6268380     0.6089620    -0.4693990
  C        0.3031040     0.1485790    -0.2066970
  C       -0.7706010     1.0561020    -0.0842670
  C        0.0806060    -1.2405240    -0.1151990
  C       -2.0579110     0.5582020     0.1415980
  C       -1.2176000    -1.6989120     0.1341680
  C       -2.2850370    -0.8120180     0.2620550
  C       -0.5406870     2.5426280    -0.1993030
  C        1.2072340    -2.2197810    -0.3093320
  C        2.5023020     0.6131830     0.7097540
  H       -2.8885640     1.2560570     0.2350690
  H       -1.3937740    -2.7714120     0.2029680
  H        1.5916390     1.5501200    -0.8540680
  H       -3.2895990    -1.1861590     0.4450020
  H        0.2351210     2.8885850     0.4923550
  H       -0.2380210     2.8365620    -1.2118290
  H       -1.4595390     3.0868260     0.0338520
  H        1.9415750    -1.8136360    -1.0094830
  H        1.7264620    -2.4417900     0.6300600
  H        0.8237630    -3.1662910    -0.7010550
  H        2.0935470     1.1833990     1.5571020
  H        3.4234637     1.0222515     0.4401062
  H        2.6734620    -0.4116070     1.0419720
units angstrom
no_reorient  #important for SAPT in psi4, default
symmetry c1  #important for SAPT in psi4, default
}

set PROPERTIES_ORIGIN ["COM"]
properties('MP2/aug-cc-pvtz', properties = ['dipole'])
--------------------------------------------------------------------------

    Molecular point group: c1
  Charge       = 0
  Multiplicity = 1
  Basis Set: AUG-CC-PVTZ
    Blend: AUG-CC-PVTZ
  Basis Set: (AUG-CC-PVTZ AUX)
    Blend: AUG-CC-PVTZ-JKFIT

    Orbital Energies [Eh]
    ---------------------

    Doubly Occupied:

       1A    -15.553376     2A    -11.257928     3A    -11.243457
       4A    -11.235593     5A    -11.231736     6A    -11.228223
       7A    -11.225151     8A    -11.223975     9A    -11.222781
      10A    -11.213931    11A     -1.226471    12A     -1.130785
      13A     -1.054172    14A     -1.012716    15A     -0.947172
      16A     -0.922059    17A     -0.895039    18A     -0.794395
      19A     -0.781129    20A     -0.693170    21A     -0.660528
      22A     -0.631281    23A     -0.604642    24A     -0.591288
      25A     -0.579321    26A     -0.568603    27A     -0.565522
      28A     -0.557065    29A     -0.552256    30A     -0.535016
      31A     -0.520837    32A     -0.485153    33A     -0.477332
      34A     -0.470672    35A     -0.402424    36A     -0.316866
      37A     -0.302432

  @DF-RHF Final Energy:  -402.96078797613887

   => Energetics <=

    Nuclear Repulsion Energy =            521.5639103104799688
    One-Electron Energy =               -1579.2204039931625630
    Two-Electron Energy =                 654.6957057065436629
    Total Energy =                       -402.9607879761389313
  Basis Set: (AUG-CC-PVTZ AUX)
    Blend: AUG-CC-PVTZ-RI
    Molecular point group: c1

    Geometry (in Angstrom), charge = 0, multiplicity = 1:

       Center              X                  Y                   Z               Mass
    ------------   -----------------  -----------------  -----------------  -----------------
         N            1.665932183771     0.624167521979    -0.460017651984    14.003074004430
         C            0.342198183771     0.163784521979    -0.197315651984    12.000000000000
         C           -0.731506816229     1.071307521979    -0.074885651984    12.000000000000
         C            0.119700183771    -1.225318478021    -0.105817651984    12.000000000000
         C           -2.018816816229     0.573407521979     0.150979348016    12.000000000000
         C           -1.178505816229    -1.683706478021     0.143549348016    12.000000000000
         C           -2.245942816229    -0.796812478021     0.271436348016    12.000000000000
         C           -0.501592816229     2.557833521979    -0.189921651984    12.000000000000
         C            1.246328183771    -2.204575478021    -0.299950651984    12.000000000000
         C            2.541396183771     0.628388521979     0.719135348016    12.000000000000
         H           -2.849469816229     1.271262521979     0.244450348016     1.007825032230
         H           -1.354679816229    -2.756206478021     0.212349348016     1.007825032230
         H            1.630733183771     1.565325521979    -0.844686651984     1.007825032230
         H           -3.250504816229    -1.170953478021     0.454383348016     1.007825032230
         H            0.274215183771     2.903790521979     0.501736348016     1.007825032230
         H           -0.198926816229     2.851767521979    -1.202447651984     1.007825032230
         H           -1.420444816229     3.102031521979     0.043233348016     1.007825032230
         H            1.980669183771    -1.798430478021    -1.000101651984     1.007825032230
         H            1.765556183771    -2.426584478021     0.639441348016     1.007825032230
         H            0.862857183771    -3.151085478021    -0.691673651984     1.007825032230
         H            2.132641183771     1.198604521979     1.566483348016     1.007825032230
         H            3.462557883771     1.037457021979     0.449487548016     1.007825032230
         H            2.712556183771    -0.396401478021     1.051353348016     1.007825032230

  Basis Set: AUG-CC-PVTZ
    Blend: AUG-CC-PVTZ
  Basis Set: (AUG-CC-PVTZ AUX)
    Blend: AUG-CC-PVTZ-JKFIT
	 Reference Energy          =    -402.9607879761388745 [Eh]
	 Singles Energy            =      -0.0000000000000000 [Eh]
	 Same-Spin Energy          =      -0.4479905864218532 [Eh]
	 Opposite-Spin Energy      =      -1.4656362891598600 [Eh]
	 Correlation Energy        =      -1.9136268755817132 [Eh]
	 Total Energy              =    -404.8744148517205872 [Eh]

	 ================> DF-SCS-MP2 Energies <==================
	-----------------------------------------------------------
	 SCS Same-Spin Scale       =       0.3333333333333333 [-]
	 SCS Opposite-Spin Scale   =       1.2000000000000000 [-]
	 SCS Same-Spin Energy      =      -0.1493301954739510 [Eh]
	 SCS Opposite-Spin Energy  =      -1.7587635469918319 [Eh]
	 SCS Correlation Energy    =      -1.9080937424657829 [Eh]
	 SCS Total Energy          =    -404.8688817186046549 [Eh]
	-----------------------------------------------------------

  Dipole Moment: [D]
     X:     0.5762      Y:     1.0855      Z:     0.5234     Total:     1.3357

*** Psi4 exiting successfully. Buy a developer a beer!
