                               Psi4 1.4a3.dev225

  ==> Input File <==

--------------------------------------------------------------------------
#psi4
#
memory 32 gb

molecule  {
0 1
  N        1.6268380     0.6089620    -0.4693990
  C        0.2554802     0.2803314    -0.2581735
  C       -0.7706010     1.0561020    -0.0842670
  C        0.0806060    -1.2405240    -0.1151990
  C       -2.0579110     0.5582020     0.1415980
  C       -1.2176000    -1.6989120     0.1341680
  C       -2.2850370    -0.8120180     0.2620550
  C       -0.5406870     2.5426280    -0.1993030
  C        1.2072340    -2.2197810    -0.3093320
  C        2.5023020     0.6131830     0.7097540
  H       -2.8885640     1.2560570     0.2350690
  H       -1.3937740    -2.7714120     0.2029680
  H        1.5916390     1.5501200    -0.8540680
  H       -3.2895990    -1.1861590     0.4450020
  H        0.2351210     2.8885850     0.4923550
  H       -0.2380210     2.8365620    -1.2118290
  H       -1.4595390     3.0868260     0.0338520
  H        1.9415750    -1.8136360    -1.0094830
  H        1.7264620    -2.4417900     0.6300600
  H        0.8237630    -3.1662910    -0.7010550
  H        2.0935470     1.1833990     1.5571020
  H        3.4676080     1.0418550     0.4271840
  H        2.6734620    -0.4116070     1.0419720
units angstrom
no_reorient  #important for SAPT in psi4, default
symmetry c1  #important for SAPT in psi4, default
}

set PROPERTIES_ORIGIN ["COM"]
properties('MP2/aug-cc-pvtz', properties = ['dipole'])
--------------------------------------------------------------------------

    Molecular point group: c1
  Charge       = 0
  Multiplicity = 1
  Basis Set: AUG-CC-PVTZ
    Blend: AUG-CC-PVTZ
  Basis Set: (AUG-CC-PVTZ AUX)
    Blend: AUG-CC-PVTZ-JKFIT

    Orbital Energies [Eh]
    ---------------------

    Doubly Occupied:

       1A    -15.555459     2A    -11.256057     3A    -11.252108
       4A    -11.242933     5A    -11.225969     6A    -11.225493
       7A    -11.224721     8A    -11.221281     9A    -11.220235
      10A    -11.215811    11A     -1.228545    12A     -1.132611
      13A     -1.057001    14A     -1.011068    15A     -0.946560
      16A     -0.922522    17A     -0.894642    18A     -0.797026
      19A     -0.776206    20A     -0.687537    21A     -0.664915
      22A     -0.623441    23A     -0.608395    24A     -0.594805
      25A     -0.578509    26A     -0.569417    27A     -0.563200
      28A     -0.556095    29A     -0.551217    30A     -0.530001
      31A     -0.521787    32A     -0.492119    33A     -0.473466
      34A     -0.452093    35A     -0.407935    36A     -0.327325
      37A     -0.295568

  @DF-RHF Final Energy:  -402.93642294799457

   => Energetics <=

    Nuclear Repulsion Energy =            521.1976962062490202
    One-Electron Energy =               -1578.4600935008531906
    Two-Electron Energy =                 654.3259743466095415
    Total Energy =                       -402.9364229479946289
  Basis Set: (AUG-CC-PVTZ AUX)
    Blend: AUG-CC-PVTZ-RI
    Molecular point group: c1

    Geometry (in Angstrom), charge = 0, multiplicity = 1:

       Center              X                  Y                   Z               Mass
    ------------   -----------------  -----------------  -----------------  -----------------
         N            1.669832828839     0.612319048017    -0.455349118229    14.003074004430
         C            0.298475028839     0.283688448017    -0.244123618229    12.000000000000
         C           -0.727606171161     1.059459048017    -0.070217118229    12.000000000000
         C            0.123600828839    -1.237166951983    -0.101149118229    12.000000000000
         C           -2.014916171161     0.561559048017     0.155647881771    12.000000000000
         C           -1.174605171161    -1.695554951983     0.148217881771    12.000000000000
         C           -2.242042171161    -0.808660951983     0.276104881771    12.000000000000
         C           -0.497692171161     2.545985048017    -0.185253118229    12.000000000000
         C            1.250228828839    -2.216423951983    -0.295282118229    12.000000000000
         C            2.545296828839     0.616540048017     0.723803881771    12.000000000000
         H           -2.845569171161     1.259414048017     0.249118881771     1.007825032230
         H           -1.350779171161    -2.768054951983     0.217017881771     1.007825032230
         H            1.634633828839     1.553477048017    -0.840018118229     1.007825032230
         H           -3.246604171161    -1.182801951983     0.459051881771     1.007825032230
         H            0.278115828839     2.891942048017     0.506404881771     1.007825032230
         H           -0.195026171161     2.839919048017    -1.197779118229     1.007825032230
         H           -1.416544171161     3.090183048017     0.047901881771     1.007825032230
         H            1.984569828839    -1.810278951983    -0.995433118229     1.007825032230
         H            1.769456828839    -2.438432951983     0.644109881771     1.007825032230
         H            0.866757828839    -3.162933951983    -0.687005118229     1.007825032230
         H            2.136541828839     1.186756048017     1.571151881771     1.007825032230
         H            3.510602828839     1.045212048017     0.441233881771     1.007825032230
         H            2.716456828839    -0.408249951983     1.056021881771     1.007825032230

  Basis Set: AUG-CC-PVTZ
    Blend: AUG-CC-PVTZ
  Basis Set: (AUG-CC-PVTZ AUX)
    Blend: AUG-CC-PVTZ-JKFIT
	 Reference Energy          =    -402.9364229479945720 [Eh]
	 Singles Energy            =      -0.0000000000000000 [Eh]
	 Same-Spin Energy          =      -0.4475893869731795 [Eh]
	 Opposite-Spin Energy      =      -1.4669790618251011 [Eh]
	 Correlation Energy        =      -1.9145684487982806 [Eh]
	 Total Energy              =    -404.8509913967928355 [Eh]

	 ================> DF-SCS-MP2 Energies <==================
	-----------------------------------------------------------
	 SCS Same-Spin Scale       =       0.3333333333333333 [-]
	 SCS Opposite-Spin Scale   =       1.2000000000000000 [-]
	 SCS Same-Spin Energy      =      -0.1491964623243932 [Eh]
	 SCS Opposite-Spin Energy  =      -1.7603748741901213 [Eh]
	 SCS Correlation Energy    =      -1.9095713365145144 [Eh]
	 SCS Total Energy          =    -404.8459942845090609 [Eh]
	-----------------------------------------------------------

  Dipole Moment: [D]
     X:     0.6032      Y:     1.0440      Z:     0.5623     Total:     1.3304

*** Psi4 exiting successfully. Buy a developer a beer!
