                               Psi4 1.4a3.dev225

  ==> Input File <==

--------------------------------------------------------------------------
#psi4
#
memory 32 gb

molecule  {
0 1
  N        1.6268380     0.6089620    -0.4693990
  C        0.3031040     0.1485790    -0.2066970
  C       -0.7706010     1.0561020    -0.0842670
  C        0.0806060    -1.2405240    -0.1151990
  C       -2.0579110     0.5582020     0.1415980
  C       -1.2176000    -1.6989120     0.1341680
  C       -2.2850370    -0.8120180     0.2620550
  C       -0.5406870     2.5426280    -0.1993030
  C        1.2072340    -2.2197810    -0.3093320
  C        2.5321076     0.6133267     0.7498988
  H       -2.8885640     1.2560570     0.2350690
  H       -1.3937740    -2.7714120     0.2029680
  H        1.5916390     1.5501200    -0.8540680
  H       -3.2895990    -1.1861590     0.4450020
  H        0.2351210     2.8885850     0.4923550
  H       -0.2380210     2.8365620    -1.2118290
  H       -1.4595390     3.0868260     0.0338520
  H        1.9415750    -1.8136360    -1.0094830
  H        1.7264620    -2.4417900     0.6300600
  H        0.8237630    -3.1662910    -0.7010550
  H        2.0935470     1.1833990     1.5571020
  H        3.4676080     1.0418550     0.4271840
  H        2.6734620    -0.4116070     1.0419720
units angstrom
no_reorient  #important for SAPT in psi4, default
symmetry c1  #important for SAPT in psi4, default
}

set PROPERTIES_ORIGIN ["COM"]
properties('MP2/aug-cc-pvtz', properties = ['dipole'])
--------------------------------------------------------------------------

    Molecular point group: c1
  Charge       = 0
  Multiplicity = 1
  Basis Set: AUG-CC-PVTZ
    Blend: AUG-CC-PVTZ
  Basis Set: (AUG-CC-PVTZ AUX)
    Blend: AUG-CC-PVTZ-JKFIT

    Orbital Energies [Eh]
    ---------------------

    Doubly Occupied:

       1A    -15.553097     2A    -11.257189     3A    -11.249369
       4A    -11.234788     5A    -11.231006     6A    -11.227792
       7A    -11.224659     8A    -11.223455     9A    -11.222302
      10A    -11.213737    11A     -1.217556    12A     -1.127554
      13A     -1.053628    14A     -1.010558    15A     -0.945896
      16A     -0.921649    17A     -0.895720    18A     -0.793095
      19A     -0.780356    20A     -0.689914    21A     -0.658607
      22A     -0.628527    23A     -0.597213    24A     -0.594857
      25A     -0.578896    26A     -0.567973    27A     -0.562139
      28A     -0.556161    29A     -0.549507    30A     -0.538805
      31A     -0.520578    32A     -0.485688    33A     -0.477090
      34A     -0.469567    35A     -0.404256    36A     -0.316450
      37A     -0.300750

  @DF-RHF Final Energy:  -402.95969947634990

   => Energetics <=

    Nuclear Repulsion Energy =            520.4345786473191993
    One-Electron Energy =               -1577.0277863182309375
    Two-Electron Energy =                 653.6335081945619550
    Total Energy =                       -402.9596994763498969
  Basis Set: (AUG-CC-PVTZ AUX)
    Blend: AUG-CC-PVTZ-RI
    Molecular point group: c1

    Geometry (in Angstrom), charge = 0, multiplicity = 1:

       Center              X                  Y                   Z               Mass
    ------------   -----------------  -----------------  -----------------  -----------------
         N            1.662955554279     0.624008524681    -0.463486916476    14.003074004430
         C            0.339221554279     0.163625524681    -0.200784916476    12.000000000000
         C           -0.734483445721     1.071148524681    -0.078354916476    12.000000000000
         C            0.116723554279    -1.225477475319    -0.109286916476    12.000000000000
         C           -2.021793445721     0.573248524681     0.147510083524    12.000000000000
         C           -1.181482445721    -1.683865475319     0.140080083524    12.000000000000
         C           -2.248919445721    -0.796971475319     0.267967083524    12.000000000000
         C           -0.504569445721     2.557674524681    -0.193390916476    12.000000000000
         C            1.243351554279    -2.204734475319    -0.303419916476    12.000000000000
         C            2.568225154279     0.628373224681     0.755810883524    12.000000000000
         H           -2.852446445721     1.271103524681     0.240981083524     1.007825032230
         H           -1.357656445721    -2.756365475319     0.208880083524     1.007825032230
         H            1.627756554279     1.565166524681    -0.848155916476     1.007825032230
         H           -3.253481445721    -1.171112475319     0.450914083524     1.007825032230
         H            0.271238554279     2.903631524681     0.498267083524     1.007825032230
         H           -0.201903445721     2.851608524681    -1.205916916476     1.007825032230
         H           -1.423421445721     3.101872524681     0.039764083524     1.007825032230
         H            1.977692554279    -1.798589475319    -1.003570916476     1.007825032230
         H            1.762579554279    -2.426743475319     0.635972083524     1.007825032230
         H            0.859880554279    -3.151244475319    -0.695142916476     1.007825032230
         H            2.129664554279     1.198445524681     1.563014083524     1.007825032230
         H            3.503725554279     1.056901524681     0.433096083524     1.007825032230
         H            2.709579554279    -0.396560475319     1.047884083524     1.007825032230

  Basis Set: AUG-CC-PVTZ
    Blend: AUG-CC-PVTZ
  Basis Set: (AUG-CC-PVTZ AUX)
    Blend: AUG-CC-PVTZ-JKFIT
	 Reference Energy          =    -402.9596994763498969 [Eh]
	 Singles Energy            =      -0.0000000000000000 [Eh]
	 Same-Spin Energy          =      -0.4478634839782005 [Eh]
	 Opposite-Spin Energy      =      -1.4661590685067938 [Eh]
	 Correlation Energy        =      -1.9140225524849943 [Eh]
	 Total Energy              =    -404.8737220288348908 [Eh]

	 ================> DF-SCS-MP2 Energies <==================
	-----------------------------------------------------------
	 SCS Same-Spin Scale       =       0.3333333333333333 [-]
	 SCS Opposite-Spin Scale   =       1.2000000000000000 [-]
	 SCS Same-Spin Energy      =      -0.1492878279927335 [Eh]
	 SCS Opposite-Spin Energy  =      -1.7593908822081525 [Eh]
	 SCS Correlation Energy    =      -1.9086787102008860 [Eh]
	 SCS Total Energy          =    -404.8683781865507854 [Eh]
	-----------------------------------------------------------

  Dipole Moment: [D]
     X:     0.6358      Y:     1.0965      Z:     0.6086     Total:     1.4061

*** Psi4 exiting successfully. Buy a developer a beer!
