                               Psi4 1.4a3.dev225

  ==> Input File <==

--------------------------------------------------------------------------
#psi4
#
memory 32 gb

molecule  {
0 1
  N        1.6268380     0.6089620    -0.4693990
  C        0.3031040     0.1485790    -0.2066970
  C       -0.7706010     1.0561020    -0.0842670
  C        0.0806060    -1.2405240    -0.1151990
  C       -2.0579110     0.5582020     0.1415980
  C       -1.2176000    -1.6989120     0.1341680
  C       -2.2850370    -0.8120180     0.2620550
  C       -0.5406870     2.5426280    -0.1993030
  C        1.2072340    -2.2197810    -0.3093320
  C        2.5023020     0.6131830     0.7097540
  H       -2.8885640     1.2560570     0.2350690
  H       -1.3937740    -2.7714120     0.2029680
  H        1.5916390     1.5501200    -0.8540680
  H       -3.2895990    -1.1861590     0.4450020
  H        0.1939153     2.8585908     0.5493506
  H       -0.2380210     2.8365620    -1.2118290
  H       -1.4595390     3.0868260     0.0338520
  H        1.9415750    -1.8136360    -1.0094830
  H        1.7264620    -2.4417900     0.6300600
  H        0.8237630    -3.1662910    -0.7010550
  H        2.0935470     1.1833990     1.5571020
  H        3.4676080     1.0418550     0.4271840
  H        2.6734620    -0.4116070     1.0419720
units angstrom
no_reorient  #important for SAPT in psi4, default
symmetry c1  #important for SAPT in psi4, default
}

set PROPERTIES_ORIGIN ["COM"]
properties('MP2/aug-cc-pvtz', properties = ['dipole'])
--------------------------------------------------------------------------

    Molecular point group: c1
  Charge       = 0
  Multiplicity = 1
  Basis Set: AUG-CC-PVTZ
    Blend: AUG-CC-PVTZ
  Basis Set: (AUG-CC-PVTZ AUX)
    Blend: AUG-CC-PVTZ-JKFIT

    Orbital Energies [Eh]
    ---------------------

    Doubly Occupied:

       1A    -15.553590     2A    -11.258005     3A    -11.249577
       4A    -11.235371     5A    -11.231923     6A    -11.228341
       7A    -11.225065     8A    -11.223960     9A    -11.222802
      10A    -11.214041    11A     -1.226393    12A     -1.130682
      13A     -1.054488    14A     -1.012365    15A     -0.945323
      16A     -0.921811    17A     -0.891883    18A     -0.794158
      19A     -0.781081    20A     -0.691854    21A     -0.660513
      22A     -0.628893    23A     -0.604545    24A     -0.592621
      25A     -0.579144    26A     -0.568818    27A     -0.568554
      28A     -0.554493    29A     -0.552141    30A     -0.530603
      31A     -0.518932    32A     -0.485190    33A     -0.476015
      34A     -0.471000    35A     -0.402314    36A     -0.317046
      37A     -0.302626

  @DF-RHF Final Energy:  -402.96118957607763

   => Energetics <=

    Nuclear Repulsion Energy =            521.3557878834596977
    One-Electron Energy =               -1578.8216293221134947
    Two-Electron Energy =                 654.5046518625761109
    Total Energy =                       -402.9611895760776861
  Basis Set: (AUG-CC-PVTZ AUX)
    Blend: AUG-CC-PVTZ-RI
    Molecular point group: c1

    Geometry (in Angstrom), charge = 0, multiplicity = 1:

       Center              X                  Y                   Z               Mass
    ------------   -----------------  -----------------  -----------------  -----------------
         N            1.665910263050     0.624245032234    -0.460346421028    14.003074004430
         C            0.342176263050     0.163862032234    -0.197644421028    12.000000000000
         C           -0.731528736950     1.071385032234    -0.075214421028    12.000000000000
         C            0.119678263050    -1.225240967766    -0.106146421028    12.000000000000
         C           -2.018838736950     0.573485032234     0.150650578972    12.000000000000
         C           -1.178527736950    -1.683628967766     0.143220578972    12.000000000000
         C           -2.245964736950    -0.796734967766     0.271107578972    12.000000000000
         C           -0.501614736950     2.557911032234    -0.190250421028    12.000000000000
         C            1.246306263050    -2.204497967766    -0.300279421028    12.000000000000
         C            2.541374263050     0.628466032234     0.718806578972    12.000000000000
         H           -2.849491736950     1.271340032234     0.244121578972     1.007825032230
         H           -1.354701736950    -2.756128967766     0.212020578972     1.007825032230
         H            1.630711263050     1.565403032234    -0.845015421028     1.007825032230
         H           -3.250526736950    -1.170875967766     0.454054578972     1.007825032230
         H            0.232987563050     2.873873832234     0.558403178972     1.007825032230
         H           -0.198948736950     2.851845032234    -1.202776421028     1.007825032230
         H           -1.420466736950     3.102109032234     0.042904578972     1.007825032230
         H            1.980647263050    -1.798352967766    -1.000430421028     1.007825032230
         H            1.765534263050    -2.426506967766     0.639112578972     1.007825032230
         H            0.862835263050    -3.151007967766    -0.692002421028     1.007825032230
         H            2.132619263050     1.198682032234     1.566154578972     1.007825032230
         H            3.506680263050     1.057138032234     0.436236578972     1.007825032230
         H            2.712534263050    -0.396323967766     1.051024578972     1.007825032230

  Basis Set: AUG-CC-PVTZ
    Blend: AUG-CC-PVTZ
  Basis Set: (AUG-CC-PVTZ AUX)
    Blend: AUG-CC-PVTZ-JKFIT
	 Reference Energy          =    -402.9611895760776292 [Eh]
	 Singles Energy            =      -0.0000000000000000 [Eh]
	 Same-Spin Energy          =      -0.4480114583551352 [Eh]
	 Opposite-Spin Energy      =      -1.4659992117980583 [Eh]
	 Correlation Energy        =      -1.9140106701531936 [Eh]
	 Total Energy              =    -404.8752002462308042 [Eh]

	 ================> DF-SCS-MP2 Energies <==================
	-----------------------------------------------------------
	 SCS Same-Spin Scale       =       0.3333333333333333 [-]
	 SCS Opposite-Spin Scale   =       1.2000000000000000 [-]
	 SCS Same-Spin Energy      =      -0.1493371527850451 [Eh]
	 SCS Opposite-Spin Energy  =      -1.7591990541576699 [Eh]
	 SCS Correlation Energy    =      -1.9085362069427150 [Eh]
	 SCS Total Energy          =    -404.8697257830203284 [Eh]
	-----------------------------------------------------------

  Dipole Moment: [D]
     X:     0.5236      Y:     1.0794      Z:     0.5310     Total:     1.3120

*** Psi4 exiting successfully. Buy a developer a beer!
