                               Psi4 1.4a3.dev225

  ==> Input File <==

--------------------------------------------------------------------------
#psi4
#
memory 32 gb

molecule  {
0 1
  N        1.6268380     0.6089620    -0.4693990
  C        0.3031040     0.1485790    -0.2066970
  C       -0.7706010     1.0561020    -0.0842670
  C        0.0806060    -1.2405240    -0.1151990
  C       -2.0579110     0.5582020     0.1415980
  C       -1.2176000    -1.6989120     0.1341680
  C       -2.2216661    -0.7392795     0.2495563
  C       -0.5406870     2.5426280    -0.1993030
  C        1.2072340    -2.2197810    -0.3093320
  C        2.5023020     0.6131830     0.7097540
  H       -2.8885640     1.2560570     0.2350690
  H       -1.3937740    -2.7714120     0.2029680
  H        1.5916390     1.5501200    -0.8540680
  H       -3.2895990    -1.1861590     0.4450020
  H        0.2351210     2.8885850     0.4923550
  H       -0.2380210     2.8365620    -1.2118290
  H       -1.4595390     3.0868260     0.0338520
  H        1.9415750    -1.8136360    -1.0094830
  H        1.7264620    -2.4417900     0.6300600
  H        0.8237630    -3.1662910    -0.7010550
  H        2.0935470     1.1833990     1.5571020
  H        3.4676080     1.0418550     0.4271840
  H        2.6734620    -0.4116070     1.0419720
units angstrom
no_reorient  #important for SAPT in psi4, default
symmetry c1  #important for SAPT in psi4, default
}

set PROPERTIES_ORIGIN ["COM"]
properties('MP2/aug-cc-pvtz', properties = ['dipole'])
--------------------------------------------------------------------------

    Molecular point group: c1
  Charge       = 0
  Multiplicity = 1
  Basis Set: AUG-CC-PVTZ
    Blend: AUG-CC-PVTZ
  Basis Set: (AUG-CC-PVTZ AUX)
    Blend: AUG-CC-PVTZ-JKFIT

    Orbital Energies [Eh]
    ---------------------

    Doubly Occupied:

       1A    -15.553131     2A    -11.256359     3A    -11.249188
       4A    -11.235763     5A    -11.232762     6A    -11.228228
       7A    -11.223120     8A    -11.221919     9A    -11.215160
      10A    -11.214090    11A     -1.226517    12A     -1.139861
      13A     -1.056242    14A     -1.016613    15A     -0.945232
      16A     -0.927178    17A     -0.891189    18A     -0.793801
      19A     -0.777161    20A     -0.696011    21A     -0.663683
      22A     -0.624849    23A     -0.597739    24A     -0.593807
      25A     -0.580373    26A     -0.570297    27A     -0.564685
      28A     -0.559959    29A     -0.552776    30A     -0.525560
      31A     -0.523717    32A     -0.486483    33A     -0.478761
      34A     -0.463444    35A     -0.403509    36A     -0.320082
      37A     -0.304507

  @DF-RHF Final Energy:  -402.94962297775413

   => Energetics <=

    Nuclear Repulsion Energy =            523.1014421219758788
    One-Electron Energy =               -1582.2746167453456110
    Two-Electron Energy =                 656.2235516456156574
    Total Energy =                       -402.9496229777540748
  Basis Set: (AUG-CC-PVTZ AUX)
    Blend: AUG-CC-PVTZ-RI
    Molecular point group: c1

    Geometry (in Angstrom), charge = 0, multiplicity = 1:

       Center              X                  Y                   Z               Mass
    ------------   -----------------  -----------------  -----------------  -----------------
         N            1.659974286391     0.617560658997    -0.458811124035    14.003074004430
         C            0.336240286391     0.157177658997    -0.196109124035    12.000000000000
         C           -0.737464713609     1.064700658997    -0.073679124035    12.000000000000
         C            0.113742286391    -1.231925341003    -0.104611124035    12.000000000000
         C           -2.024774713609     0.566800658997     0.152185875965    12.000000000000
         C           -1.184463713609    -1.690313341003     0.144755875965    12.000000000000
         C           -2.188529813609    -0.730680841003     0.260144175965    12.000000000000
         C           -0.507550713609     2.551226658997    -0.188715124035    12.000000000000
         C            1.240370286391    -2.211182341003    -0.298744124035    12.000000000000
         C            2.535438286391     0.621781658997     0.720341875965    12.000000000000
         H           -2.855427713609     1.264655658997     0.245656875965     1.007825032230
         H           -1.360637713609    -2.762813341003     0.213555875965     1.007825032230
         H            1.624775286391     1.558718658997    -0.843480124035     1.007825032230
         H           -3.256462713609    -1.177560341003     0.455589875965     1.007825032230
         H            0.268257286391     2.897183658997     0.502942875965     1.007825032230
         H           -0.204884713609     2.845160658997    -1.201241124035     1.007825032230
         H           -1.426402713609     3.095424658997     0.044439875965     1.007825032230
         H            1.974711286391    -1.805037341003    -0.998895124035     1.007825032230
         H            1.759598286391    -2.433191341003     0.640647875965     1.007825032230
         H            0.856899286391    -3.157692341003    -0.690467124035     1.007825032230
         H            2.126683286391     1.191997658997     1.567689875965     1.007825032230
         H            3.500744286391     1.050453658997     0.437771875965     1.007825032230
         H            2.706598286391    -0.403008341003     1.052559875965     1.007825032230

  Basis Set: AUG-CC-PVTZ
    Blend: AUG-CC-PVTZ
  Basis Set: (AUG-CC-PVTZ AUX)
    Blend: AUG-CC-PVTZ-JKFIT
	 Reference Energy          =    -402.9496229777541316 [Eh]
	 Singles Energy            =      -0.0000000000000000 [Eh]
	 Same-Spin Energy          =      -0.4481858184377606 [Eh]
	 Opposite-Spin Energy      =      -1.4659960926831341 [Eh]
	 Correlation Energy        =      -1.9141819111208946 [Eh]
	 Total Energy              =    -404.8638048888750518 [Eh]

	 ================> DF-SCS-MP2 Energies <==================
	-----------------------------------------------------------
	 SCS Same-Spin Scale       =       0.3333333333333333 [-]
	 SCS Opposite-Spin Scale   =       1.2000000000000000 [-]
	 SCS Same-Spin Energy      =      -0.1493952728125869 [Eh]
	 SCS Opposite-Spin Energy  =      -1.7591953112197609 [Eh]
	 SCS Correlation Energy    =      -1.9085905840323478 [Eh]
	 SCS Total Energy          =    -404.8582135617864992 [Eh]
	-----------------------------------------------------------

  Dipole Moment: [D]
     X:     0.5743      Y:     1.0708      Z:     0.5112     Total:     1.3182

*** Psi4 exiting successfully. Buy a developer a beer!
