                               Psi4 1.4a3.dev225

  ==> Input File <==

--------------------------------------------------------------------------
#psi4
#
memory 32 gb

molecule  {
0 1
  N        1.6268380     0.6089620    -0.4693990
  C        0.3031040     0.1485790    -0.2066970
  C       -0.7706010     1.0561020    -0.0842670
  C        0.0806060    -1.2405240    -0.1151990
  C       -2.0579110     0.5582020     0.1415980
  C       -1.2176000    -1.6989120     0.1341680
  C       -2.2850370    -0.8120180     0.2620550
  C       -0.5406870     2.5426280    -0.1993030
  C        1.2072340    -2.2197810    -0.3093320
  C        2.5023020     0.6131830     0.7097540
  H       -2.8885640     1.2560570     0.2350690
  H       -1.3937740    -2.7714120     0.2029680
  H        1.5916390     1.5501200    -0.8540680
  H       -3.2895990    -1.1861590     0.4450020
  H        0.2209565     2.8822686     0.4797269
  H       -0.2380210     2.8365620    -1.2118290
  H       -1.4595390     3.0868260     0.0338520
  H        1.9415750    -1.8136360    -1.0094830
  H        1.7264620    -2.4417900     0.6300600
  H        0.8237630    -3.1662910    -0.7010550
  H        2.0935470     1.1833990     1.5571020
  H        3.4676080     1.0418550     0.4271840
  H        2.6734620    -0.4116070     1.0419720
units angstrom
no_reorient  #important for SAPT in psi4, default
symmetry c1  #important for SAPT in psi4, default
}

set PROPERTIES_ORIGIN ["COM"]
properties('MP2/aug-cc-pvtz', properties = ['dipole'])
--------------------------------------------------------------------------

    Molecular point group: c1
  Charge       = 0
  Multiplicity = 1
  Basis Set: AUG-CC-PVTZ
    Blend: AUG-CC-PVTZ
  Basis Set: (AUG-CC-PVTZ AUX)
    Blend: AUG-CC-PVTZ-JKFIT

    Orbital Energies [Eh]
    ---------------------

    Doubly Occupied:

       1A    -15.553844     2A    -11.258151     3A    -11.249682
       4A    -11.235732     5A    -11.231988     6A    -11.225942
       7A    -11.225265     8A    -11.224123     9A    -11.222927
      10A    -11.214101    11A     -1.226582    12A     -1.130794
      13A     -1.054671    14A     -1.012601    15A     -0.945990
      16A     -0.922732    17A     -0.892126    18A     -0.794952
      19A     -0.781255    20A     -0.692686    21A     -0.660682
      22A     -0.629859    23A     -0.603583    24A     -0.591590
      25A     -0.579957    26A     -0.568834    27A     -0.566642
      28A     -0.556846    29A     -0.552105    30A     -0.530740
      31A     -0.521492    32A     -0.485364    33A     -0.477004
      34A     -0.470960    35A     -0.402494    36A     -0.317057
      37A     -0.302715

  @DF-RHF Final Energy:  -402.96180343146932

   => Energetics <=

    Nuclear Repulsion Energy =            521.3968494784893437
    One-Electron Energy =               -1578.8891704050095086
    Two-Electron Energy =                 654.5305174950509581
    Total Energy =                       -402.9618034314693205
  Basis Set: (AUG-CC-PVTZ AUX)
    Blend: AUG-CC-PVTZ-RI
    Molecular point group: c1

    Geometry (in Angstrom), charge = 0, multiplicity = 1:

       Center              X                  Y                   Z               Mass
    ------------   -----------------  -----------------  -----------------  -----------------
         N            1.665708547061     0.624068405796    -0.459827057482    14.003074004430
         C            0.341974547061     0.163685405796    -0.197125057482    12.000000000000
         C           -0.731730452939     1.071208405796    -0.074695057482    12.000000000000
         C            0.119476547061    -1.225417594204    -0.105627057482    12.000000000000
         C           -2.019040452939     0.573308405796     0.151169942518    12.000000000000
         C           -1.178729452939    -1.683805594204     0.143739942518    12.000000000000
         C           -2.246166452939    -0.796911594204     0.271626942518    12.000000000000
         C           -0.501816452939     2.557734405796    -0.189731057482    12.000000000000
         C            1.246104547061    -2.204674594204    -0.299760057482    12.000000000000
         C            2.541172547061     0.628289405796     0.719325942518    12.000000000000
         H           -2.849693452939     1.271163405796     0.244640942518     1.007825032230
         H           -1.354903452939    -2.756305594204     0.212539942518     1.007825032230
         H            1.630509547061     1.565226405796    -0.844496057482     1.007825032230
         H           -3.250728452939    -1.171052594204     0.454573942518     1.007825032230
         H            0.259827047061     2.897375005796     0.489298842518     1.007825032230
         H           -0.199150452939     2.851668405796    -1.202257057482     1.007825032230
         H           -1.420668452939     3.101932405796     0.043423942518     1.007825032230
         H            1.980445547061    -1.798529594204    -0.999911057482     1.007825032230
         H            1.765332547061    -2.426683594204     0.639631942518     1.007825032230
         H            0.862633547061    -3.151184594204    -0.691483057482     1.007825032230
         H            2.132417547061     1.198505405796     1.566673942518     1.007825032230
         H            3.506478547061     1.056961405796     0.436755942518     1.007825032230
         H            2.712332547061    -0.396500594204     1.051543942518     1.007825032230

  Basis Set: AUG-CC-PVTZ
    Blend: AUG-CC-PVTZ
  Basis Set: (AUG-CC-PVTZ AUX)
    Blend: AUG-CC-PVTZ-JKFIT
	 Reference Energy          =    -402.9618034314693205 [Eh]
	 Singles Energy            =      -0.0000000000000000 [Eh]
	 Same-Spin Energy          =      -0.4479781801866322 [Eh]
	 Opposite-Spin Energy      =      -1.4657946396053323 [Eh]
	 Correlation Energy        =      -1.9137728197919643 [Eh]
	 Total Energy              =    -404.8755762512612932 [Eh]

	 ================> DF-SCS-MP2 Energies <==================
	-----------------------------------------------------------
	 SCS Same-Spin Scale       =       0.3333333333333333 [-]
	 SCS Opposite-Spin Scale   =       1.2000000000000000 [-]
	 SCS Same-Spin Energy      =      -0.1493260600622107 [Eh]
	 SCS Opposite-Spin Energy  =      -1.7589535675263988 [Eh]
	 SCS Correlation Energy    =      -1.9082796275886094 [Eh]
	 SCS Total Energy          =    -404.8700830590579471 [Eh]
	-----------------------------------------------------------

  Dipole Moment: [D]
     X:     0.5453      Y:     1.0807      Z:     0.5252     Total:     1.3195

*** Psi4 exiting successfully. Buy a developer a beer!
