                               Psi4 1.4a3.dev225

  ==> Input File <==

--------------------------------------------------------------------------
#psi4
#
memory 32 gb

molecule  {
0 1
  N        1.6268380     0.6089620    -0.4693990
  C        0.3031040     0.1485790    -0.2066970
  C       -0.7706010     1.0561020    -0.0842670
  C        0.0806060    -1.2405240    -0.1151990
  C       -2.0579110     0.5582020     0.1415980
  C       -1.2176000    -1.6989120     0.1341680
  C       -2.2850370    -0.8120180     0.2620550
  C       -0.5406870     2.5426280    -0.1993030
  C        1.2072340    -2.2197810    -0.3093320
  C        2.5142242     0.6132405     0.7258119
  H       -2.8885640     1.2560570     0.2350690
  H       -1.3937740    -2.7714120     0.2029680
  H        1.5916390     1.5501200    -0.8540680
  H       -3.2895990    -1.1861590     0.4450020
  H        0.2351210     2.8885850     0.4923550
  H       -0.2380210     2.8365620    -1.2118290
  H       -1.4595390     3.0868260     0.0338520
  H        1.9415750    -1.8136360    -1.0094830
  H        1.7264620    -2.4417900     0.6300600
  H        0.8237630    -3.1662910    -0.7010550
  H        2.0935470     1.1833990     1.5571020
  H        3.4676080     1.0418550     0.4271840
  H        2.6734620    -0.4116070     1.0419720
units angstrom
no_reorient  #important for SAPT in psi4, default
symmetry c1  #important for SAPT in psi4, default
}

set PROPERTIES_ORIGIN ["COM"]
properties('MP2/aug-cc-pvtz', properties = ['dipole'])
--------------------------------------------------------------------------

    Molecular point group: c1
  Charge       = 0
  Multiplicity = 1
  Basis Set: AUG-CC-PVTZ
    Blend: AUG-CC-PVTZ
  Basis Set: (AUG-CC-PVTZ AUX)
    Blend: AUG-CC-PVTZ-JKFIT

    Orbital Energies [Eh]
    ---------------------

    Doubly Occupied:

       1A    -15.553532     2A    -11.257794     3A    -11.249424
       4A    -11.235441     5A    -11.231614     6A    -11.228141
       7A    -11.225087     8A    -11.223907     9A    -11.222724
      10A    -11.213965    11A     -1.222737    12A     -1.129514
      13A     -1.054085    14A     -1.011648    15A     -0.945518
      16A     -0.921941    17A     -0.893594    18A     -0.794004
      19A     -0.780898    20A     -0.691456    21A     -0.659801
      22A     -0.629061    23A     -0.600532    24A     -0.592689
      25A     -0.578774    26A     -0.568433    27A     -0.564263
      28A     -0.556562    29A     -0.551367    30A     -0.534089
      31A     -0.520857    32A     -0.485530    33A     -0.477099
      34A     -0.470367    35A     -0.403316    36A     -0.316828
      37A     -0.301958

  @DF-RHF Final Energy:  -402.96142983314985

   => Energetics <=

    Nuclear Repulsion Energy =            520.9586606169906418
    One-Electron Energy =               -1578.0430793167422507
    Two-Electron Energy =                 654.1229888666016450
    Total Energy =                       -402.9614298331498503
  Basis Set: (AUG-CC-PVTZ AUX)
    Blend: AUG-CC-PVTZ-RI
    Molecular point group: c1

    Geometry (in Angstrom), charge = 0, multiplicity = 1:

       Center              X                  Y                   Z               Mass
    ------------   -----------------  -----------------  -----------------  -----------------
         N            1.664543956770     0.624016180960    -0.461347519495    14.003074004430
         C            0.340809956770     0.163633180960    -0.198645519495    12.000000000000
         C           -0.732895043230     1.071156180960    -0.076215519495    12.000000000000
         C            0.118311956770    -1.225469819040    -0.107147519495    12.000000000000
         C           -2.020205043230     0.573256180960     0.149649480505    12.000000000000
         C           -1.179894043230    -1.683857819040     0.142219480505    12.000000000000
         C           -2.247331043230    -0.796963819040     0.270106480505    12.000000000000
         C           -0.502981043230     2.557682180960    -0.191251519495    12.000000000000
         C            1.244939956770    -2.204726819040    -0.301280519495    12.000000000000
         C            2.551930156770     0.628294680960     0.733863380505    12.000000000000
         H           -2.850858043230     1.271111180960     0.243120480505     1.007825032230
         H           -1.356068043230    -2.756357819040     0.211019480505     1.007825032230
         H            1.629344956770     1.565174180960    -0.846016519495     1.007825032230
         H           -3.251893043230    -1.171104819040     0.453053480505     1.007825032230
         H            0.272826956770     2.903639180960     0.500406480505     1.007825032230
         H           -0.200315043230     2.851616180960    -1.203777519495     1.007825032230
         H           -1.421833043230     3.101880180960     0.041903480505     1.007825032230
         H            1.979280956770    -1.798581819040    -1.001431519495     1.007825032230
         H            1.764167956770    -2.426735819040     0.638111480505     1.007825032230
         H            0.861468956770    -3.151236819040    -0.693003519495     1.007825032230
         H            2.131252956770     1.198453180960     1.565153480505     1.007825032230
         H            3.505313956770     1.056909180960     0.435235480505     1.007825032230
         H            2.711167956770    -0.396552819040     1.050023480505     1.007825032230

  Basis Set: AUG-CC-PVTZ
    Blend: AUG-CC-PVTZ
  Basis Set: (AUG-CC-PVTZ AUX)
    Blend: AUG-CC-PVTZ-JKFIT
	 Reference Energy          =    -402.9614298331498503 [Eh]
	 Singles Energy            =      -0.0000000000000000 [Eh]
	 Same-Spin Energy          =      -0.4479203576537950 [Eh]
	 Opposite-Spin Energy      =      -1.4659835407673314 [Eh]
	 Correlation Energy        =      -1.9139038984211263 [Eh]
	 Total Energy              =    -404.8753337315710041 [Eh]

	 ================> DF-SCS-MP2 Energies <==================
	-----------------------------------------------------------
	 SCS Same-Spin Scale       =       0.3333333333333333 [-]
	 SCS Opposite-Spin Scale   =       1.2000000000000000 [-]
	 SCS Same-Spin Energy      =      -0.1493067858845983 [Eh]
	 SCS Opposite-Spin Energy  =      -1.7591802489207977 [Eh]
	 SCS Correlation Energy    =      -1.9084870348053959 [Eh]
	 SCS Total Energy          =    -404.8699168679552258 [Eh]
	-----------------------------------------------------------

  Dipole Moment: [D]
     X:     0.5792      Y:     1.0827      Z:     0.5573     Total:     1.3484

*** Psi4 exiting successfully. Buy a developer a beer!
