                               Psi4 1.4a3.dev225

  ==> Input File <==

--------------------------------------------------------------------------
#psi4
#
memory 32 gb

molecule  {
0 1
  N        1.6268380     0.6089620    -0.4693990
  C        0.3031040     0.1485790    -0.2066970
  C       -0.7706010     1.0561020    -0.0842670
  C        0.0806060    -1.2405240    -0.1151990
  C       -2.0579110     0.5582020     0.1415980
  C       -1.2176000    -1.6989120     0.1341680
  C       -2.2850370    -0.8120180     0.2620550
  C       -0.5406870     2.5426280    -0.1993030
  C        1.2072340    -2.2197810    -0.3093320
  C        2.5023020     0.6131830     0.7097540
  H       -2.8885640     1.2560570     0.2350690
  H       -1.3937740    -2.7714120     0.2029680
  H        1.5916390     1.5501200    -0.8540680
  H       -3.2895990    -1.1861590     0.4450020
  H        0.2351210     2.8885850     0.4923550
  H       -0.2380210     2.8365620    -1.2118290
  H       -1.4595390     3.0868260     0.0338520
  H        1.8743828    -1.8507983    -0.9454192
  H        1.7264620    -2.4417900     0.6300600
  H        0.8237630    -3.1662910    -0.7010550
  H        2.0935470     1.1833990     1.5571020
  H        3.4676080     1.0418550     0.4271840
  H        2.6734620    -0.4116070     1.0419720
units angstrom
no_reorient  #important for SAPT in psi4, default
symmetry c1  #important for SAPT in psi4, default
}

set PROPERTIES_ORIGIN ["COM"]
properties('MP2/aug-cc-pvtz', properties = ['dipole'])
--------------------------------------------------------------------------

    Molecular point group: c1
  Charge       = 0
  Multiplicity = 1
  Basis Set: AUG-CC-PVTZ
    Blend: AUG-CC-PVTZ
  Basis Set: (AUG-CC-PVTZ AUX)
    Blend: AUG-CC-PVTZ-JKFIT

    Orbital Energies [Eh]
    ---------------------

    Doubly Occupied:

       1A    -15.553852     2A    -11.258032     3A    -11.249767
       4A    -11.235708     5A    -11.231368     6A    -11.228291
       7A    -11.225114     8A    -11.223884     9A    -11.222535
      10A    -11.202571    11A     -1.226618    12A     -1.130707
      13A     -1.055813    14A     -1.013835    15A     -0.948270
      16A     -0.925167    17A     -0.893858    18A     -0.794578
      19A     -0.783148    20A     -0.692434    21A     -0.662590
      22A     -0.629415    23A     -0.605819    24A     -0.591773
      25A     -0.579159    26A     -0.570961    27A     -0.566578
      28A     -0.559135    29A     -0.555320    30A     -0.532527
      31A     -0.525290    32A     -0.485342    33A     -0.477639
      34A     -0.471126    35A     -0.402965    36A     -0.316908
      37A     -0.302525

  @DF-RHF Final Energy:  -402.95593547098099

   => Energetics <=

    Nuclear Repulsion Energy =            521.7442118261672022
    One-Electron Energy =               -1579.5390501494109685
    Two-Electron Energy =                 654.8389028522627768
    Total Energy =                       -402.9559354709809895
  Basis Set: (AUG-CC-PVTZ AUX)
    Blend: AUG-CC-PVTZ-RI
    Molecular point group: c1

    Geometry (in Angstrom), charge = 0, multiplicity = 1:

       Center              X                  Y                   Z               Mass
    ------------   -----------------  -----------------  -----------------  -----------------
         N            1.666104111421     0.624298503248    -0.460399146830    14.003074004430
         C            0.342370111421     0.163915503248    -0.197697146830    12.000000000000
         C           -0.731334888579     1.071438503248    -0.075267146830    12.000000000000
         C            0.119872111421    -1.225187496752    -0.106199146830    12.000000000000
         C           -2.018644888579     0.573538503248     0.150597853170    12.000000000000
         C           -1.178333888579    -1.683575496752     0.143167853170    12.000000000000
         C           -2.245770888579    -0.796681496752     0.271054853170    12.000000000000
         C           -0.501420888579     2.557964503248    -0.190303146830    12.000000000000
         C            1.246500111421    -2.204444496752    -0.300332146830    12.000000000000
         C            2.541568111421     0.628519503248     0.718753853170    12.000000000000
         H           -2.849297888579     1.271393503248     0.244068853170     1.007825032230
         H           -1.354507888579    -2.756075496752     0.211967853170     1.007825032230
         H            1.630905111421     1.565456503248    -0.845068146830     1.007825032230
         H           -3.250332888579    -1.170822496752     0.454001853170     1.007825032230
         H            0.274387111421     2.903921503248     0.501354853170     1.007825032230
         H           -0.198754888579     2.851898503248    -1.202829146830     1.007825032230
         H           -1.420272888579     3.102162503248     0.042851853170     1.007825032230
         H            1.913648911421    -1.835461796752    -0.936419346830     1.007825032230
         H            1.765728111421    -2.426453496752     0.639059853170     1.007825032230
         H            0.863029111421    -3.150954496752    -0.692055146830     1.007825032230
         H            2.132813111421     1.198735503248     1.566101853170     1.007825032230
         H            3.506874111421     1.057191503248     0.436183853170     1.007825032230
         H            2.712728111421    -0.396270496752     1.050971853170     1.007825032230

  Basis Set: AUG-CC-PVTZ
    Blend: AUG-CC-PVTZ
  Basis Set: (AUG-CC-PVTZ AUX)
    Blend: AUG-CC-PVTZ-JKFIT
	 Reference Energy          =    -402.9559354709809895 [Eh]
	 Singles Energy            =      -0.0000000000000000 [Eh]
	 Same-Spin Energy          =      -0.4478320235851297 [Eh]
	 Opposite-Spin Energy      =      -1.4652816247107960 [Eh]
	 Correlation Energy        =      -1.9131136482959259 [Eh]
	 Total Energy              =    -404.8690491192768945 [Eh]

	 ================> DF-SCS-MP2 Energies <==================
	-----------------------------------------------------------
	 SCS Same-Spin Scale       =       0.3333333333333333 [-]
	 SCS Opposite-Spin Scale   =       1.2000000000000000 [-]
	 SCS Same-Spin Energy      =      -0.1492773411950432 [Eh]
	 SCS Opposite-Spin Energy  =      -1.7583379496529552 [Eh]
	 SCS Correlation Energy    =      -1.9076152908479984 [Eh]
	 SCS Total Energy          =    -404.8635507618290035 [Eh]
	-----------------------------------------------------------

  Dipole Moment: [D]
     X:     0.5656      Y:     1.0528      Z:     0.5066     Total:     1.2980

*** Psi4 exiting successfully. Buy a developer a beer!
