                               Psi4 1.4a3.dev225

  ==> Input File <==

--------------------------------------------------------------------------
#psi4
#
memory 32 gb

molecule  {
0 1
  N        1.6268380     0.6089620    -0.4693990
  C        0.3031040     0.1485790    -0.2066970
  C       -0.7706010     1.0561020    -0.0842670
  C        0.0580960    -1.2744210    -0.0819579
  C       -2.0579110     0.5582020     0.1415980
  C       -1.2176000    -1.6989120     0.1341680
  C       -2.2850370    -0.8120180     0.2620550
  C       -0.5406870     2.5426280    -0.1993030
  C        1.2072340    -2.2197810    -0.3093320
  C        2.5023020     0.6131830     0.7097540
  H       -2.8885640     1.2560570     0.2350690
  H       -1.3937740    -2.7714120     0.2029680
  H        1.5916390     1.5501200    -0.8540680
  H       -3.2895990    -1.1861590     0.4450020
  H        0.2351210     2.8885850     0.4923550
  H       -0.2380210     2.8365620    -1.2118290
  H       -1.4595390     3.0868260     0.0338520
  H        1.9415750    -1.8136360    -1.0094830
  H        1.7264620    -2.4417900     0.6300600
  H        0.8237630    -3.1662910    -0.7010550
  H        2.0935470     1.1833990     1.5571020
  H        3.4676080     1.0418550     0.4271840
  H        2.6734620    -0.4116070     1.0419720
units angstrom
no_reorient  #important for SAPT in psi4, default
symmetry c1  #important for SAPT in psi4, default
}

set PROPERTIES_ORIGIN ["COM"]
properties('MP2/aug-cc-pvtz', properties = ['dipole'])
--------------------------------------------------------------------------

    Molecular point group: c1
  Charge       = 0
  Multiplicity = 1
  Basis Set: AUG-CC-PVTZ
    Blend: AUG-CC-PVTZ
  Basis Set: (AUG-CC-PVTZ AUX)
    Blend: AUG-CC-PVTZ-JKFIT

    Orbital Energies [Eh]
    ---------------------

    Doubly Occupied:

       1A    -15.555419     2A    -11.262389     3A    -11.250255
       4A    -11.234565     5A    -11.232236     6A    -11.227909
       7A    -11.225423     8A    -11.223665     9A    -11.219187
      10A    -11.214288    11A     -1.225760    12A     -1.132323
      13A     -1.056532    14A     -1.010573    15A     -0.943689
      16A     -0.924716    17A     -0.891423    18A     -0.795553
      19A     -0.779184    20A     -0.692442    21A     -0.662180
      22A     -0.628947    23A     -0.603350    24A     -0.591991
      25A     -0.576900    26A     -0.569611    27A     -0.563882
      28A     -0.558201    29A     -0.553885    30A     -0.531341
      31A     -0.520751    32A     -0.489548    33A     -0.472840
      34A     -0.469670    35A     -0.402958    36A     -0.321944
      37A     -0.297783

  @DF-RHF Final Energy:  -402.95899046158371

   => Energetics <=

    Nuclear Repulsion Energy =            521.0379245164670010
    One-Electron Energy =               -1578.1672004868185013
    Two-Electron Energy =                 654.1702855087677335
    Total Energy =                       -402.9589904615837668
  Basis Set: (AUG-CC-PVTZ AUX)
    Blend: AUG-CC-PVTZ-RI
    Molecular point group: c1

    Geometry (in Angstrom), charge = 0, multiplicity = 1:

       Center              X                  Y                   Z               Mass
    ------------   -----------------  -----------------  -----------------  -----------------
         N            1.667602222663     0.627032017568    -0.462873730266    14.003074004430
         C            0.343868222663     0.166649017568    -0.200171730266    12.000000000000
         C           -0.729836777337     1.074172017568    -0.077741730266    12.000000000000
         C            0.098860222663    -1.256350982432    -0.075432630266    12.000000000000
         C           -2.017146777337     0.576272017568     0.148123269734    12.000000000000
         C           -1.176835777337    -1.680841982432     0.140693269734    12.000000000000
         C           -2.244272777337    -0.793947982432     0.268580269734    12.000000000000
         C           -0.499922777337     2.560698017568    -0.192777730266    12.000000000000
         C            1.247998222663    -2.201710982432    -0.302806730266    12.000000000000
         C            2.543066222663     0.631253017568     0.716279269734    12.000000000000
         H           -2.847799777337     1.274127017568     0.241594269734     1.007825032230
         H           -1.353009777337    -2.753341982432     0.209493269734     1.007825032230
         H            1.632403222663     1.568190017568    -0.847542730266     1.007825032230
         H           -3.248834777337    -1.168088982432     0.451527269734     1.007825032230
         H            0.275885222663     2.906655017568     0.498880269734     1.007825032230
         H           -0.197256777337     2.854632017568    -1.205303730266     1.007825032230
         H           -1.418774777337     3.104896017568     0.040377269734     1.007825032230
         H            1.982339222663    -1.795565982432    -1.002957730266     1.007825032230
         H            1.767226222663    -2.423719982432     0.636585269734     1.007825032230
         H            0.864527222663    -3.148220982432    -0.694529730266     1.007825032230
         H            2.134311222663     1.201469017568     1.563627269734     1.007825032230
         H            3.508372222663     1.059925017568     0.433709269734     1.007825032230
         H            2.714226222663    -0.393536982432     1.048497269734     1.007825032230

  Basis Set: AUG-CC-PVTZ
    Blend: AUG-CC-PVTZ
  Basis Set: (AUG-CC-PVTZ AUX)
    Blend: AUG-CC-PVTZ-JKFIT
	 Reference Energy          =    -402.9589904615837099 [Eh]
	 Singles Energy            =      -0.0000000000000000 [Eh]
	 Same-Spin Energy          =      -0.4480334644820188 [Eh]
	 Opposite-Spin Energy      =      -1.4660819137212511 [Eh]
	 Correlation Energy        =      -1.9141153782032698 [Eh]
	 Total Energy              =    -404.8731058397870015 [Eh]

	 ================> DF-SCS-MP2 Energies <==================
	-----------------------------------------------------------
	 SCS Same-Spin Scale       =       0.3333333333333333 [-]
	 SCS Opposite-Spin Scale   =       1.2000000000000000 [-]
	 SCS Same-Spin Energy      =      -0.1493444881606729 [Eh]
	 SCS Opposite-Spin Energy  =      -1.7592982964655013 [Eh]
	 SCS Correlation Energy    =      -1.9086427846261742 [Eh]
	 SCS Total Energy          =    -404.8676332462098912 [Eh]
	-----------------------------------------------------------

  Dipole Moment: [D]
     X:     0.5869      Y:     1.0838      Z:     0.5037     Total:     1.3314

*** Psi4 exiting successfully. Buy a developer a beer!
