                               Psi4 1.4a3.dev225

  ==> Input File <==

--------------------------------------------------------------------------
#psi4
#
memory 32 gb

molecule  {
0 1
  N        1.6268380     0.6089620    -0.4693990
  C        0.3031040     0.1485790    -0.2066970
  C       -0.7706010     1.0561020    -0.0842670
  C        0.0806060    -1.2405240    -0.1151990
  C       -2.0579110     0.5582020     0.1415980
  C       -1.2176000    -1.6989120     0.1341680
  C       -2.2882953    -0.8316750     0.2637831
  C       -0.5406870     2.5426280    -0.1993030
  C        1.2072340    -2.2197810    -0.3093320
  C        2.5023020     0.6131830     0.7097540
  H       -2.8885640     1.2560570     0.2350690
  H       -1.3937740    -2.7714120     0.2029680
  H        1.5916390     1.5501200    -0.8540680
  H       -3.2895990    -1.1861590     0.4450020
  H        0.2351210     2.8885850     0.4923550
  H       -0.2380210     2.8365620    -1.2118290
  H       -1.4595390     3.0868260     0.0338520
  H        1.9415750    -1.8136360    -1.0094830
  H        1.7264620    -2.4417900     0.6300600
  H        0.8237630    -3.1662910    -0.7010550
  H        2.0935470     1.1833990     1.5571020
  H        3.4676080     1.0418550     0.4271840
  H        2.6734620    -0.4116070     1.0419720
units angstrom
no_reorient  #important for SAPT in psi4, default
symmetry c1  #important for SAPT in psi4, default
}

set PROPERTIES_ORIGIN ["COM"]
properties('MP2/aug-cc-pvtz', properties = ['dipole'])
--------------------------------------------------------------------------

    Molecular point group: c1
  Charge       = 0
  Multiplicity = 1
  Basis Set: AUG-CC-PVTZ
    Blend: AUG-CC-PVTZ
  Basis Set: (AUG-CC-PVTZ AUX)
    Blend: AUG-CC-PVTZ-JKFIT

    Orbital Energies [Eh]
    ---------------------

    Doubly Occupied:

       1A    -15.553885     2A    -11.258430     3A    -11.249693
       4A    -11.236075     5A    -11.231898     6A    -11.228449
       7A    -11.227127     8A    -11.224595     9A    -11.222436
      10A    -11.214138    11A     -1.226585    12A     -1.129966
      13A     -1.054385    14A     -1.011880    15A     -0.945423
      16A     -0.921877    17A     -0.891953    18A     -0.794731
      19A     -0.781919    20A     -0.692101    21A     -0.661014
      22A     -0.629842    23A     -0.604360    24A     -0.591297
      25A     -0.578678    26A     -0.568869    27A     -0.565362
      28A     -0.556507    29A     -0.552275    30A     -0.531306
      31A     -0.520202    32A     -0.487550    33A     -0.475400
      34A     -0.470107    35A     -0.402410    36A     -0.317525
      37A     -0.301942

  @DF-RHF Final Energy:  -402.96118273094277

   => Energetics <=

    Nuclear Repulsion Energy =            521.1119997112011788
    One-Electron Energy =               -1578.3219789674303684
    Two-Electron Energy =                 654.2487965252863660
    Total Energy =                       -402.9611827309428236
  Basis Set: (AUG-CC-PVTZ AUX)
    Blend: AUG-CC-PVTZ-RI
    Molecular point group: c1

    Geometry (in Angstrom), charge = 0, multiplicity = 1:

       Center              X                  Y                   Z               Mass
    ------------   -----------------  -----------------  -----------------  -----------------
         N            1.665892287849     0.625767221641    -0.460074747538    14.003074004430
         C            0.342158287849     0.165384221641    -0.197372747538    12.000000000000
         C           -0.731546712151     1.072907221641    -0.074942747538    12.000000000000
         C            0.119660287849    -1.223718778359    -0.105874747538    12.000000000000
         C           -2.018856712151     0.575007221641     0.150922252462    12.000000000000
         C           -1.178545712151    -1.682106778359     0.143492252462    12.000000000000
         C           -2.249241012151    -0.814869778359     0.273107352462    12.000000000000
         C           -0.501632712151     2.559433221641    -0.189978747538    12.000000000000
         C            1.246288287849    -2.202975778359    -0.300007747538    12.000000000000
         C            2.541356287849     0.629988221641     0.719078252462    12.000000000000
         H           -2.849509712151     1.272862221641     0.244393252462     1.007825032230
         H           -1.354719712151    -2.754606778359     0.212292252462     1.007825032230
         H            1.630693287849     1.566925221641    -0.844743747538     1.007825032230
         H           -3.250544712151    -1.169353778359     0.454326252462     1.007825032230
         H            0.274175287849     2.905390221641     0.501679252462     1.007825032230
         H           -0.198966712151     2.853367221641    -1.202504747538     1.007825032230
         H           -1.420484712151     3.103631221641     0.043176252462     1.007825032230
         H            1.980629287849    -1.796830778359    -1.000158747538     1.007825032230
         H            1.765516287849    -2.424984778359     0.639384252462     1.007825032230
         H            0.862817287849    -3.149485778359    -0.691730747538     1.007825032230
         H            2.132601287849     1.200204221641     1.566426252462     1.007825032230
         H            3.506662287849     1.058660221641     0.436508252462     1.007825032230
         H            2.712516287849    -0.394801778359     1.051296252462     1.007825032230

  Basis Set: AUG-CC-PVTZ
    Blend: AUG-CC-PVTZ
  Basis Set: (AUG-CC-PVTZ AUX)
    Blend: AUG-CC-PVTZ-JKFIT
	 Reference Energy          =    -402.9611827309427667 [Eh]
	 Singles Energy            =      -0.0000000000000000 [Eh]
	 Same-Spin Energy          =      -0.4479710646445222 [Eh]
	 Opposite-Spin Energy      =      -1.4660072223846645 [Eh]
	 Correlation Energy        =      -1.9139782870291868 [Eh]
	 Total Energy              =    -404.8751610179719478 [Eh]

	 ================> DF-SCS-MP2 Energies <==================
	-----------------------------------------------------------
	 SCS Same-Spin Scale       =       0.3333333333333333 [-]
	 SCS Opposite-Spin Scale   =       1.2000000000000000 [-]
	 SCS Same-Spin Energy      =      -0.1493236882148407 [Eh]
	 SCS Opposite-Spin Energy  =      -1.7592086668615974 [Eh]
	 SCS Correlation Energy    =      -1.9085323550764381 [Eh]
	 SCS Total Energy          =    -404.8697150860191982 [Eh]
	-----------------------------------------------------------

  Dipole Moment: [D]
     X:     0.5364      Y:     1.0772      Z:     0.5208     Total:     1.3112

*** Psi4 exiting successfully. Buy a developer a beer!
