                               Psi4 1.4a3.dev225

  ==> Input File <==

--------------------------------------------------------------------------
#psi4
#
memory 32 gb

molecule  {
0 1
  N        1.6268380     0.6089620    -0.4693990
  C        0.3031040     0.1485790    -0.2066970
  C       -0.7706010     1.0561020    -0.0842670
  C        0.0806060    -1.2405240    -0.1151990
  C       -2.0579110     0.5582020     0.1415980
  C       -1.2176000    -1.6989120     0.1341680
  C       -2.2850370    -0.8120180     0.2620550
  C       -0.5406870     2.5426280    -0.1993030
  C        1.2072340    -2.2197810    -0.3093320
  C        2.5023020     0.6131830     0.7097540
  H       -2.8885640     1.2560570     0.2350690
  H       -1.3937740    -2.7714120     0.2029680
  H        1.5916390     1.5501200    -0.8540680
  H       -3.2895990    -1.1861590     0.4450020
  H        0.2351210     2.8885850     0.4923550
  H       -0.2380210     2.8365620    -1.2118290
  H       -1.4595390     3.0868260     0.0338520
  H        1.9281366    -1.8210685    -0.9966702
  H        1.7264620    -2.4417900     0.6300600
  H        0.8237630    -3.1662910    -0.7010550
  H        2.0935470     1.1833990     1.5571020
  H        3.4676080     1.0418550     0.4271840
  H        2.6734620    -0.4116070     1.0419720
units angstrom
no_reorient  #important for SAPT in psi4, default
symmetry c1  #important for SAPT in psi4, default
}

set PROPERTIES_ORIGIN ["COM"]
properties('MP2/aug-cc-pvtz', properties = ['dipole'])
--------------------------------------------------------------------------

    Molecular point group: c1
  Charge       = 0
  Multiplicity = 1
  Basis Set: AUG-CC-PVTZ
    Blend: AUG-CC-PVTZ
  Basis Set: (AUG-CC-PVTZ AUX)
    Blend: AUG-CC-PVTZ-JKFIT

    Orbital Energies [Eh]
    ---------------------

    Doubly Occupied:

       1A    -15.553808     2A    -11.258174     3A    -11.249666
       4A    -11.235850     5A    -11.231887     6A    -11.228359
       7A    -11.225322     8A    -11.224143     9A    -11.222906
      10A    -11.211857    11A     -1.226563    12A     -1.130799
      13A     -1.054610    14A     -1.012638    15A     -0.945806
      16A     -0.922709    17A     -0.892420    18A     -0.794619
      19A     -0.781601    20A     -0.692540    21A     -0.661037
      22A     -0.629494    23A     -0.603838    24A     -0.591554
      25A     -0.578840    26A     -0.568960    27A     -0.565526
      28A     -0.556889    29A     -0.553292    30A     -0.531025
      31A     -0.522268    32A     -0.485333    33A     -0.477175
      34A     -0.470940    35A     -0.402587    36A     -0.317046
      37A     -0.302694

  @DF-RHF Final Energy:  -402.96183924513196

   => Energetics <=

    Nuclear Repulsion Energy =            521.3953772089702170
    One-Electron Energy =               -1578.8848757703221963
    Two-Electron Energy =                 654.5276593162199106
    Total Energy =                       -402.9618392451319551
  Basis Set: (AUG-CC-PVTZ AUX)
    Blend: AUG-CC-PVTZ-RI
    Molecular point group: c1

    Geometry (in Angstrom), charge = 0, multiplicity = 1:

       Center              X                  Y                   Z               Mass
    ------------   -----------------  -----------------  -----------------  -----------------
         N            1.665703130660     0.624076731433    -0.460016835906    14.003074004430
         C            0.341969130660     0.163693731433    -0.197314835906    12.000000000000
         C           -0.731735869340     1.071216731433    -0.074884835906    12.000000000000
         C            0.119471130660    -1.225409268567    -0.105816835906    12.000000000000
         C           -2.019045869340     0.573316731433     0.150980164094    12.000000000000
         C           -1.178734869340    -1.683797268567     0.143550164094    12.000000000000
         C           -2.246171869340    -0.796903268567     0.271437164094    12.000000000000
         C           -0.501821869340     2.557742731433    -0.189920835906    12.000000000000
         C            1.246099130660    -2.204666268567    -0.299949835906    12.000000000000
         C            2.541167130660     0.628297731433     0.719136164094    12.000000000000
         H           -2.849698869340     1.271171731433     0.244451164094     1.007825032230
         H           -1.354908869340    -2.756297268567     0.212350164094     1.007825032230
         H            1.630504130660     1.565234731433    -0.844685835906     1.007825032230
         H           -3.250733869340    -1.171044268567     0.454384164094     1.007825032230
         H            0.273986130660     2.903699731433     0.501737164094     1.007825032230
         H           -0.199155869340     2.851676731433    -1.202446835906     1.007825032230
         H           -1.420673869340     3.101940731433     0.043234164094     1.007825032230
         H            1.967001730660    -1.805953768567    -0.987288035906     1.007825032230
         H            1.765327130660    -2.426675268567     0.639442164094     1.007825032230
         H            0.862628130660    -3.151176268567    -0.691672835906     1.007825032230
         H            2.132412130660     1.198513731433     1.566484164094     1.007825032230
         H            3.506473130660     1.056969731433     0.436566164094     1.007825032230
         H            2.712327130660    -0.396492268567     1.051354164094     1.007825032230

  Basis Set: AUG-CC-PVTZ
    Blend: AUG-CC-PVTZ
  Basis Set: (AUG-CC-PVTZ AUX)
    Blend: AUG-CC-PVTZ-JKFIT
	 Reference Energy          =    -402.9618392451319551 [Eh]
	 Singles Energy            =      -0.0000000000000000 [Eh]
	 Same-Spin Energy          =      -0.4479546474553087 [Eh]
	 Opposite-Spin Energy      =      -1.4657678717295386 [Eh]
	 Correlation Energy        =      -1.9137225191848473 [Eh]
	 Total Energy              =    -404.8755617643167852 [Eh]

	 ================> DF-SCS-MP2 Energies <==================
	-----------------------------------------------------------
	 SCS Same-Spin Scale       =       0.3333333333333333 [-]
	 SCS Opposite-Spin Scale   =       1.2000000000000000 [-]
	 SCS Same-Spin Energy      =      -0.1493182158184362 [Eh]
	 SCS Opposite-Spin Energy  =      -1.7589214460754463 [Eh]
	 SCS Correlation Energy    =      -1.9082396618938826 [Eh]
	 SCS Total Energy          =    -404.8700789070258566 [Eh]
	-----------------------------------------------------------

  Dipole Moment: [D]
     X:     0.5451      Y:     1.0684      Z:     0.5172     Total:     1.3061

*** Psi4 exiting successfully. Buy a developer a beer!
