                               Psi4 1.4a3.dev225

  ==> Input File <==

--------------------------------------------------------------------------
#psi4
#
memory 32 gb

molecule  {
0 1
  N        1.6268380     0.6089620    -0.4693990
  C        0.3031040     0.1485790    -0.2066970
  C       -0.7706010     1.0561020    -0.0842670
  C        0.0806060    -1.2405240    -0.1151990
  C       -2.0579110     0.5582020     0.1415980
  C       -1.2176000    -1.6989120     0.1341680
  C       -2.2850370    -0.8120180     0.2620550
  C       -0.5406870     2.5426280    -0.1993030
  C        1.2072340    -2.2197810    -0.3093320
  C        2.5023020     0.6131830     0.7097540
  H       -2.8885640     1.2560570     0.2350690
  H       -1.3937740    -2.7714120     0.2029680
  H        1.5916390     1.5501200    -0.8540680
  H       -3.2895990    -1.1861590     0.4450020
  H        0.2351210     2.8885850     0.4923550
  H       -0.2380210     2.8365620    -1.2118290
  H       -1.4595390     3.0868260     0.0338520
  H        1.9079789    -1.8322171    -0.9774511
  H        1.7264620    -2.4417900     0.6300600
  H        0.8237630    -3.1662910    -0.7010550
  H        2.0935470     1.1833990     1.5571020
  H        3.4676080     1.0418550     0.4271840
  H        2.6734620    -0.4116070     1.0419720
units angstrom
no_reorient  #important for SAPT in psi4, default
symmetry c1  #important for SAPT in psi4, default
}

set PROPERTIES_ORIGIN ["COM"]
properties('MP2/aug-cc-pvtz', properties = ['dipole'])
--------------------------------------------------------------------------

    Molecular point group: c1
  Charge       = 0
  Multiplicity = 1
  Basis Set: AUG-CC-PVTZ
    Blend: AUG-CC-PVTZ
  Basis Set: (AUG-CC-PVTZ AUX)
    Blend: AUG-CC-PVTZ-JKFIT

    Orbital Energies [Eh]
    ---------------------

    Doubly Occupied:

       1A    -15.553825     2A    -11.258112     3A    -11.249705
       4A    -11.235791     5A    -11.231679     6A    -11.228330
       7A    -11.225236     8A    -11.224037     9A    -11.222756
      10A    -11.208408    11A     -1.226581    12A     -1.130753
      13A     -1.054986    14A     -1.013029    15A     -0.946586
      16A     -0.923599    17A     -0.892959    18A     -0.794593
      19A     -0.782140    20A     -0.692496    21A     -0.661554
      22A     -0.629456    23A     -0.604456    24A     -0.591619
      25A     -0.578890    26A     -0.569340    27A     -0.565948
      28A     -0.557438    29A     -0.554551    30A     -0.531555
      31A     -0.523727    32A     -0.485334    33A     -0.477373
      34A     -0.471035    35A     -0.402743    36A     -0.316988
      37A     -0.302625

  @DF-RHF Final Energy:  -402.96090477630486

   => Energetics <=

    Nuclear Repulsion Energy =            521.5219308233414495
    One-Electron Energy =               -1579.1252062375785954
    Two-Electron Energy =                 654.6423706379321175
    Total Energy =                       -402.9609047763049148
  Basis Set: (AUG-CC-PVTZ AUX)
    Blend: AUG-CC-PVTZ-RI
    Molecular point group: c1

    Geometry (in Angstrom), charge = 0, multiplicity = 1:

       Center              X                  Y                   Z               Mass
    ------------   -----------------  -----------------  -----------------  -----------------
         N            1.665853498632     0.624159895304    -0.460160202316    14.003074004430
         C            0.342119498632     0.163776895304    -0.197458202316    12.000000000000
         C           -0.731585501368     1.071299895304    -0.075028202316    12.000000000000
         C            0.119621498632    -1.225326104696    -0.105960202316    12.000000000000
         C           -2.018895501368     0.573399895304     0.150836797684    12.000000000000
         C           -1.178584501368    -1.683714104696     0.143406797684    12.000000000000
         C           -2.246021501368    -0.796820104696     0.271293797684    12.000000000000
         C           -0.501671501368     2.557825895304    -0.190064202316    12.000000000000
         C            1.246249498632    -2.204583104696    -0.300093202316    12.000000000000
         C            2.541317498632     0.628380895304     0.718992797684    12.000000000000
         H           -2.849548501368     1.271254895304     0.244307797684     1.007825032230
         H           -1.354758501368    -2.756214104696     0.212206797684     1.007825032230
         H            1.630654498632     1.565317895304    -0.844829202316     1.007825032230
         H           -3.250583501368    -1.170961104696     0.454240797684     1.007825032230
         H            0.274136498632     2.903782895304     0.501593797684     1.007825032230
         H           -0.199005501368     2.851759895304    -1.202590202316     1.007825032230
         H           -1.420523501368     3.102023895304     0.043090797684     1.007825032230
         H            1.946994398632    -1.817019204696    -0.968212302316     1.007825032230
         H            1.765477498632    -2.426592104696     0.639298797684     1.007825032230
         H            0.862778498632    -3.151093104696    -0.691816202316     1.007825032230
         H            2.132562498632     1.198596895304     1.566340797684     1.007825032230
         H            3.506623498632     1.057052895304     0.436422797684     1.007825032230
         H            2.712477498632    -0.396409104696     1.051210797684     1.007825032230

  Basis Set: AUG-CC-PVTZ
    Blend: AUG-CC-PVTZ
  Basis Set: (AUG-CC-PVTZ AUX)
    Blend: AUG-CC-PVTZ-JKFIT
	 Reference Energy          =    -402.9609047763048579 [Eh]
	 Singles Energy            =      -0.0000000000000000 [Eh]
	 Same-Spin Energy          =      -0.4479034611739734 [Eh]
	 Opposite-Spin Energy      =      -1.4655600887765288 [Eh]
	 Correlation Energy        =      -1.9134635499505022 [Eh]
	 Total Energy              =    -404.8743683262553645 [Eh]

	 ================> DF-SCS-MP2 Energies <==================
	-----------------------------------------------------------
	 SCS Same-Spin Scale       =       0.3333333333333333 [-]
	 SCS Opposite-Spin Scale   =       1.2000000000000000 [-]
	 SCS Same-Spin Energy      =      -0.1493011537246578 [Eh]
	 SCS Opposite-Spin Energy  =      -1.7586721065318345 [Eh]
	 SCS Correlation Energy    =      -1.9079732602564923 [Eh]
	 SCS Total Energy          =    -404.8688780365613411 [Eh]
	-----------------------------------------------------------

  Dipole Moment: [D]
     X:     0.5536      Y:     1.0623      Z:     0.5127     Total:     1.3030

*** Psi4 exiting successfully. Buy a developer a beer!
