                               Psi4 1.4a3.dev225

  ==> Input File <==

--------------------------------------------------------------------------
#psi4
#
memory 32 gb

molecule  {
0 1
  N        1.6268380     0.6089620    -0.4693990
  C        0.3031040     0.1485790    -0.2066970
  C       -0.7706010     1.0561020    -0.0842670
  C        0.0806060    -1.2405240    -0.1151990
  C       -2.0579110     0.5582020     0.1415980
  C       -1.2176000    -1.6989120     0.1341680
  C       -2.2850370    -0.8120180     0.2620550
  C       -0.5406870     2.5426280    -0.1993030
  C        1.2072340    -2.2197810    -0.3093320
  C        2.5023020     0.6131830     0.7097540
  H       -2.8885640     1.2560570     0.2350690
  H       -1.3937740    -2.7714120     0.2029680
  H        1.5881791     1.6426313    -0.8918791
  H       -3.2895990    -1.1861590     0.4450020
  H        0.2351210     2.8885850     0.4923550
  H       -0.2380210     2.8365620    -1.2118290
  H       -1.4595390     3.0868260     0.0338520
  H        1.9415750    -1.8136360    -1.0094830
  H        1.7264620    -2.4417900     0.6300600
  H        0.8237630    -3.1662910    -0.7010550
  H        2.0935470     1.1833990     1.5571020
  H        3.4676080     1.0418550     0.4271840
  H        2.6734620    -0.4116070     1.0419720
units angstrom
no_reorient  #important for SAPT in psi4, default
symmetry c1  #important for SAPT in psi4, default
}

set PROPERTIES_ORIGIN ["COM"]
properties('MP2/aug-cc-pvtz', properties = ['dipole'])
--------------------------------------------------------------------------

    Molecular point group: c1
  Charge       = 0
  Multiplicity = 1
  Basis Set: AUG-CC-PVTZ
    Blend: AUG-CC-PVTZ
  Basis Set: (AUG-CC-PVTZ AUX)
    Blend: AUG-CC-PVTZ-JKFIT

    Orbital Energies [Eh]
    ---------------------

    Doubly Occupied:

       1A    -15.563509     2A    -11.258575     3A    -11.249758
       4A    -11.235741     5A    -11.232260     6A    -11.228417
       7A    -11.225345     8A    -11.224206     9A    -11.223067
      10A    -11.214187    11A     -1.218664    12A     -1.128572
      13A     -1.054377    14A     -1.011755    15A     -0.945272
      16A     -0.921918    17A     -0.886851    18A     -0.789681
      19A     -0.780931    20A     -0.684964    21A     -0.660427
      22A     -0.627346    23A     -0.602347    24A     -0.589662
      25A     -0.578691    26A     -0.566956    27A     -0.565108
      28A     -0.556984    29A     -0.551717    30A     -0.526341
      31A     -0.521157    32A     -0.484657    33A     -0.475733
      34A     -0.470292    35A     -0.400586    36A     -0.317116
      37A     -0.302455

  @DF-RHF Final Energy:  -402.95122490021674

   => Energetics <=

    Nuclear Repulsion Energy =            520.7910449355163109
    One-Electron Energy =               -1577.7332884322950122
    Two-Electron Energy =                 653.9910185965619576
    Total Energy =                       -402.9512249002167437
  Basis Set: (AUG-CC-PVTZ AUX)
    Blend: AUG-CC-PVTZ-RI
    Molecular point group: c1

    Geometry (in Angstrom), charge = 0, multiplicity = 1:

       Center              X                  Y                   Z               Mass
    ------------   -----------------  -----------------  -----------------  -----------------
         N            1.665628695243     0.623331192682    -0.459639202884    14.003074004430
         C            0.341894695243     0.162948192682    -0.196937202884    12.000000000000
         C           -0.731810304757     1.070471192682    -0.074507202884    12.000000000000
         C            0.119396695243    -1.226154807318    -0.105439202884    12.000000000000
         C           -2.019120304757     0.572571192682     0.151357797116    12.000000000000
         C           -1.178809304757    -1.684542807318     0.143927797116    12.000000000000
         C           -2.246246304757    -0.797648807318     0.271814797116    12.000000000000
         C           -0.501896304757     2.556997192682    -0.189543202884    12.000000000000
         C            1.246024695243    -2.205411807318    -0.299572202884    12.000000000000
         C            2.541092695243     0.627552192682     0.719513797116    12.000000000000
         H           -2.849773304757     1.270426192682     0.244828797116     1.007825032230
         H           -1.354983304757    -2.757042807318     0.212727797116     1.007825032230
         H            1.626969795243     1.657000492682    -0.882119302884     1.007825032230
         H           -3.250808304757    -1.171789807318     0.454761797116     1.007825032230
         H            0.273911695243     2.902954192682     0.502114797116     1.007825032230
         H           -0.199230304757     2.850931192682    -1.202069202884     1.007825032230
         H           -1.420748304757     3.101195192682     0.043611797116     1.007825032230
         H            1.980365695243    -1.799266807318    -0.999723202884     1.007825032230
         H            1.765252695243    -2.427420807318     0.639819797116     1.007825032230
         H            0.862553695243    -3.151921807318    -0.691295202884     1.007825032230
         H            2.132337695243     1.197768192682     1.566861797116     1.007825032230
         H            3.506398695243     1.056224192682     0.436943797116     1.007825032230
         H            2.712252695243    -0.397237807318     1.051731797116     1.007825032230

  Basis Set: AUG-CC-PVTZ
    Blend: AUG-CC-PVTZ
  Basis Set: (AUG-CC-PVTZ AUX)
    Blend: AUG-CC-PVTZ-JKFIT
	 Reference Energy          =    -402.9512249002167437 [Eh]
	 Singles Energy            =      -0.0000000000000000 [Eh]
	 Same-Spin Energy          =      -0.4488076390196716 [Eh]
	 Opposite-Spin Energy      =      -1.4681665419549133 [Eh]
	 Correlation Energy        =      -1.9169741809745848 [Eh]
	 Total Energy              =    -404.8681990811913352 [Eh]

	 ================> DF-SCS-MP2 Energies <==================
	-----------------------------------------------------------
	 SCS Same-Spin Scale       =       0.3333333333333333 [-]
	 SCS Opposite-Spin Scale   =       1.2000000000000000 [-]
	 SCS Same-Spin Energy      =      -0.1496025463398905 [Eh]
	 SCS Opposite-Spin Energy  =      -1.7617998503458958 [Eh]
	 SCS Correlation Energy    =      -1.9114023966857863 [Eh]
	 SCS Total Energy          =    -404.8626272969025308 [Eh]
	-----------------------------------------------------------

  Dipole Moment: [D]
     X:     0.5325      Y:     1.0968      Z:     0.5123     Total:     1.3224

*** Psi4 exiting successfully. Buy a developer a beer!
