                               Psi4 1.4a3.dev225

  ==> Input File <==

--------------------------------------------------------------------------
#psi4
#
memory 32 gb

molecule  {
0 1
  N        1.6268380     0.6089620    -0.4693990
  C        0.3031040     0.1485790    -0.2066970
  C       -0.7706010     1.0561020    -0.0842670
  C        0.0806060    -1.2405240    -0.1151990
  C       -2.0579110     0.5582020     0.1415980
  C       -1.2176000    -1.6989120     0.1341680
  C       -2.4382190    -0.6847448     0.2804074
  C       -0.5406870     2.5426280    -0.1993030
  C        1.2072340    -2.2197810    -0.3093320
  C        2.5023020     0.6131830     0.7097540
  H       -2.8885640     1.2560570     0.2350690
  H       -1.3937740    -2.7714120     0.2029680
  H        1.5916390     1.5501200    -0.8540680
  H       -3.2895990    -1.1861590     0.4450020
  H        0.2351210     2.8885850     0.4923550
  H       -0.2380210     2.8365620    -1.2118290
  H       -1.4595390     3.0868260     0.0338520
  H        1.9415750    -1.8136360    -1.0094830
  H        1.7264620    -2.4417900     0.6300600
  H        0.8237630    -3.1662910    -0.7010550
  H        2.0935470     1.1833990     1.5571020
  H        3.4676080     1.0418550     0.4271840
  H        2.6734620    -0.4116070     1.0419720
units angstrom
no_reorient  #important for SAPT in psi4, default
symmetry c1  #important for SAPT in psi4, default
}

set PROPERTIES_ORIGIN ["COM"]
properties('MP2/aug-cc-pvtz', properties = ['dipole'])
--------------------------------------------------------------------------

    Molecular point group: c1
  Charge       = 0
  Multiplicity = 1
  Basis Set: AUG-CC-PVTZ
    Blend: AUG-CC-PVTZ
  Basis Set: (AUG-CC-PVTZ AUX)
    Blend: AUG-CC-PVTZ-JKFIT

    Orbital Energies [Eh]
    ---------------------

    Doubly Occupied:

       1A    -15.555528     2A    -11.262317     3A    -11.250931
       4A    -11.237811     5A    -11.233867     6A    -11.232427
       7A    -11.227911     8A    -11.226193     9A    -11.218775
      10A    -11.214163    11A     -1.227704    12A     -1.126137
      13A     -1.053694    14A     -1.015327    15A     -0.945714
      16A     -0.911634    17A     -0.895763    18A     -0.805941
      19A     -0.777583    20A     -0.691707    21A     -0.658815
      22A     -0.651796    23A     -0.604721    24A     -0.589881
      25A     -0.576842    26A     -0.568295    27A     -0.567109
      28A     -0.557006    29A     -0.544930    30A     -0.538117
      31A     -0.518930    32A     -0.490841    33A     -0.468898
      34A     -0.449425    35A     -0.401294    36A     -0.327219
      37A     -0.292308

  @DF-RHF Final Energy:  -402.91971204579511

   => Energetics <=

    Nuclear Repulsion Energy =            519.4382850297055256
    One-Electron Energy =               -1574.8808873630671314
    Two-Electron Energy =                 652.5228902875666108
    Total Energy =                       -402.9197120457951087
  Basis Set: (AUG-CC-PVTZ AUX)
    Blend: AUG-CC-PVTZ-RI
    Molecular point group: c1

    Geometry (in Angstrom), charge = 0, multiplicity = 1:

       Center              X                  Y                   Z               Mass
    ------------   -----------------  -----------------  -----------------  -----------------
         N            1.679208501690     0.612716890287    -0.461551316845    14.003074004430
         C            0.355474501690     0.152333890287    -0.198849316845    12.000000000000
         C           -0.718230498310     1.059856890287    -0.076419316845    12.000000000000
         C            0.132976501690    -1.236769109713    -0.107351316845    12.000000000000
         C           -2.005540498310     0.561956890287     0.149445683155    12.000000000000
         C           -1.165229498310    -1.695157109713     0.142015683155    12.000000000000
         C           -2.385848498310    -0.680989909713     0.288255083155    12.000000000000
         C           -0.488316498310     2.546382890287    -0.191455316845    12.000000000000
         C            1.259604501690    -2.216026109713    -0.301484316845    12.000000000000
         C            2.554672501690     0.616937890287     0.717601683155    12.000000000000
         H           -2.836193498310     1.259811890287     0.242916683155     1.007825032230
         H           -1.341403498310    -2.767657109713     0.210815683155     1.007825032230
         H            1.644009501690     1.553874890287    -0.846220316845     1.007825032230
         H           -3.237228498310    -1.182404109713     0.452849683155     1.007825032230
         H            0.287491501690     2.892339890287     0.500202683155     1.007825032230
         H           -0.185650498310     2.840316890287    -1.203981316845     1.007825032230
         H           -1.407168498310     3.090580890287     0.041699683155     1.007825032230
         H            1.993945501690    -1.809881109713    -1.001635316845     1.007825032230
         H            1.778832501690    -2.438035109713     0.637907683155     1.007825032230
         H            0.876133501690    -3.162536109713    -0.693207316845     1.007825032230
         H            2.145917501690     1.187153890287     1.564949683155     1.007825032230
         H            3.519978501690     1.045609890287     0.435031683155     1.007825032230
         H            2.725832501690    -0.407852109713     1.049819683155     1.007825032230

  Basis Set: AUG-CC-PVTZ
    Blend: AUG-CC-PVTZ
  Basis Set: (AUG-CC-PVTZ AUX)
    Blend: AUG-CC-PVTZ-JKFIT
	 Reference Energy          =    -402.9197120457951087 [Eh]
	 Singles Energy            =      -0.0000000000000000 [Eh]
	 Same-Spin Energy          =      -0.4476944361261700 [Eh]
	 Opposite-Spin Energy      =      -1.4687383584746572 [Eh]
	 Correlation Energy        =      -1.9164327946008273 [Eh]
	 Total Energy              =    -404.8361448403959457 [Eh]

	 ================> DF-SCS-MP2 Energies <==================
	-----------------------------------------------------------
	 SCS Same-Spin Scale       =       0.3333333333333333 [-]
	 SCS Opposite-Spin Scale   =       1.2000000000000000 [-]
	 SCS Same-Spin Energy      =      -0.1492314787087233 [Eh]
	 SCS Opposite-Spin Energy  =      -1.7624860301695886 [Eh]
	 SCS Correlation Energy    =      -1.9117175088783118 [Eh]
	 SCS Total Energy          =    -404.8314295546734343 [Eh]
	-----------------------------------------------------------

  Dipole Moment: [D]
     X:     0.5678      Y:     1.0447      Z:     0.5219     Total:     1.2985

*** Psi4 exiting successfully. Buy a developer a beer!
