                               Psi4 1.4a3.dev225

  ==> Input File <==

--------------------------------------------------------------------------
#psi4
#
memory 32 gb

molecule  {
0 1
  N        1.6268380     0.6089620    -0.4693990
  C        0.3031040     0.1485790    -0.2066970
  C       -0.7706010     1.0561020    -0.0842670
  C        0.0806060    -1.2405240    -0.1151990
  C       -2.0579110     0.5582020     0.1415980
  C       -1.2176000    -1.6989120     0.1341680
  C       -2.2850370    -0.8120180     0.2620550
  C       -0.5406870     2.5426280    -0.1993030
  C        1.2072340    -2.2197810    -0.3093320
  C        2.5023020     0.6131830     0.7097540
  H       -2.8885640     1.2560570     0.2350690
  H       -1.3937740    -2.7714120     0.2029680
  H        1.5916390     1.5501200    -0.8540680
  H       -3.2895990    -1.1861590     0.4450020
  H        0.2448393     2.8958257     0.4775684
  H       -0.2380210     2.8365620    -1.2118290
  H       -1.4595390     3.0868260     0.0338520
  H        1.9415750    -1.8136360    -1.0094830
  H        1.7264620    -2.4417900     0.6300600
  H        0.8237630    -3.1662910    -0.7010550
  H        2.0935470     1.1833990     1.5571020
  H        3.4676080     1.0418550     0.4271840
  H        2.6734620    -0.4116070     1.0419720
units angstrom
no_reorient  #important for SAPT in psi4, default
symmetry c1  #important for SAPT in psi4, default
}

set PROPERTIES_ORIGIN ["COM"]
properties('MP2/aug-cc-pvtz', properties = ['dipole'])
--------------------------------------------------------------------------

    Molecular point group: c1
  Charge       = 0
  Multiplicity = 1
  Basis Set: AUG-CC-PVTZ
    Blend: AUG-CC-PVTZ
  Basis Set: (AUG-CC-PVTZ AUX)
    Blend: AUG-CC-PVTZ-JKFIT

    Orbital Energies [Eh]
    ---------------------

    Doubly Occupied:

       1A    -15.553850     2A    -11.258271     3A    -11.249652
       4A    -11.236036     5A    -11.232064     6A    -11.228397
       7A    -11.225465     8A    -11.224281     9A    -11.223059
      10A    -11.214146    11A     -1.226592    12A     -1.130878
      13A     -1.054391    14A     -1.012429    15A     -0.945388
      16A     -0.922239    17A     -0.892109    18A     -0.794767
      19A     -0.781319    20A     -0.692760    21A     -0.660785
      22A     -0.629690    23A     -0.603325    24A     -0.591310
      25A     -0.578800    26A     -0.568880    27A     -0.564329
      28A     -0.557275    29A     -0.552224    30A     -0.530745
      31A     -0.521515    32A     -0.485368    33A     -0.477260
      34A     -0.470773    35A     -0.402510    36A     -0.317088
      37A     -0.302770

  @DF-RHF Final Energy:  -402.96172052119840

   => Energetics <=

    Nuclear Repulsion Energy =            521.3035717303160936
    One-Electron Energy =               -1578.7051063443002477
    Two-Electron Energy =                 654.4398140927856957
    Total Energy =                       -402.9617205211983446
  Basis Set: (AUG-CC-PVTZ AUX)
    Blend: AUG-CC-PVTZ-RI
    Molecular point group: c1

    Geometry (in Angstrom), charge = 0, multiplicity = 1:

       Center              X                  Y                   Z               Mass
    ------------   -----------------  -----------------  -----------------  -----------------
         N            1.665530391409     0.623967275527    -0.459810955979    14.003074004430
         C            0.341796391409     0.163584275527    -0.197108955979    12.000000000000
         C           -0.731908608591     1.071107275527    -0.074678955979    12.000000000000
         C            0.119298391409    -1.225518724473    -0.105610955979    12.000000000000
         C           -2.019218608591     0.573207275527     0.151186044021    12.000000000000
         C           -1.178907608591    -1.683906724473     0.143756044021    12.000000000000
         C           -2.246344608591    -0.797012724473     0.271643044021    12.000000000000
         C           -0.501994608591     2.557633275527    -0.189714955979    12.000000000000
         C            1.245926391409    -2.204775724473    -0.299743955979    12.000000000000
         C            2.540994391409     0.628188275527     0.719342044021    12.000000000000
         H           -2.849871608591     1.271062275527     0.244657044021     1.007825032230
         H           -1.355081608591    -2.756406724473     0.212556044021     1.007825032230
         H            1.630331391409     1.565125275527    -0.844479955979     1.007825032230
         H           -3.250906608591    -1.171153724473     0.454590044021     1.007825032230
         H            0.283531691409     2.910830975527     0.487156444021     1.007825032230
         H           -0.199328608591     2.851567275527    -1.202240955979     1.007825032230
         H           -1.420846608591     3.101831275527     0.043440044021     1.007825032230
         H            1.980267391409    -1.798630724473    -0.999894955979     1.007825032230
         H            1.765154391409    -2.426784724473     0.639648044021     1.007825032230
         H            0.862455391409    -3.151285724473    -0.691466955979     1.007825032230
         H            2.132239391409     1.198404275527     1.566690044021     1.007825032230
         H            3.506300391409     1.056860275527     0.436772044021     1.007825032230
         H            2.712154391409    -0.396601724473     1.051560044021     1.007825032230

  Basis Set: AUG-CC-PVTZ
    Blend: AUG-CC-PVTZ
  Basis Set: (AUG-CC-PVTZ AUX)
    Blend: AUG-CC-PVTZ-JKFIT
	 Reference Energy          =    -402.9617205211984015 [Eh]
	 Singles Energy            =      -0.0000000000000000 [Eh]
	 Same-Spin Energy          =      -0.4479952846053376 [Eh]
	 Opposite-Spin Energy      =      -1.4659132996845150 [Eh]
	 Correlation Energy        =      -1.9139085842898527 [Eh]
	 Total Energy              =    -404.8756291054882581 [Eh]

	 ================> DF-SCS-MP2 Energies <==================
	-----------------------------------------------------------
	 SCS Same-Spin Scale       =       0.3333333333333333 [-]
	 SCS Opposite-Spin Scale   =       1.2000000000000000 [-]
	 SCS Same-Spin Energy      =      -0.1493317615351125 [Eh]
	 SCS Opposite-Spin Energy  =      -1.7590959596214180 [Eh]
	 SCS Correlation Energy    =      -1.9084277211565304 [Eh]
	 SCS Total Energy          =    -404.8701482423549578 [Eh]
	-----------------------------------------------------------

  Dipole Moment: [D]
     X:     0.5426      Y:     1.0712      Z:     0.5175     Total:     1.3076

*** Psi4 exiting successfully. Buy a developer a beer!
