                               Psi4 1.4a3.dev225

  ==> Input File <==

--------------------------------------------------------------------------
#psi4
#
memory 32 gb

molecule  {
0 1
  N        1.6268380     0.6089620    -0.4693990
  C        0.3031040     0.1485790    -0.2066970
  C       -0.7706010     1.0561020    -0.0842670
  C        0.0774495    -1.2602306    -0.1139010
  C       -2.0579110     0.5582020     0.1415980
  C       -1.2176000    -1.6989120     0.1341680
  C       -2.2850370    -0.8120180     0.2620550
  C       -0.5406870     2.5426280    -0.1993030
  C        1.2072340    -2.2197810    -0.3093320
  C        2.5023020     0.6131830     0.7097540
  H       -2.8885640     1.2560570     0.2350690
  H       -1.3937740    -2.7714120     0.2029680
  H        1.5916390     1.5501200    -0.8540680
  H       -3.2895990    -1.1861590     0.4450020
  H        0.2351210     2.8885850     0.4923550
  H       -0.2380210     2.8365620    -1.2118290
  H       -1.4595390     3.0868260     0.0338520
  H        1.9415750    -1.8136360    -1.0094830
  H        1.7264620    -2.4417900     0.6300600
  H        0.8237630    -3.1662910    -0.7010550
  H        2.0935470     1.1833990     1.5571020
  H        3.4676080     1.0418550     0.4271840
  H        2.6734620    -0.4116070     1.0419720
units angstrom
no_reorient  #important for SAPT in psi4, default
symmetry c1  #important for SAPT in psi4, default
}

set PROPERTIES_ORIGIN ["COM"]
properties('MP2/aug-cc-pvtz', properties = ['dipole'])
--------------------------------------------------------------------------

    Molecular point group: c1
  Charge       = 0
  Multiplicity = 1
  Basis Set: AUG-CC-PVTZ
    Blend: AUG-CC-PVTZ
  Basis Set: (AUG-CC-PVTZ AUX)
    Blend: AUG-CC-PVTZ-JKFIT

    Orbital Energies [Eh]
    ---------------------

    Doubly Occupied:

       1A    -15.554238     2A    -11.260251     3A    -11.249835
       4A    -11.235415     5A    -11.232780     6A    -11.228237
       7A    -11.225432     8A    -11.224011     9A    -11.222102
      10A    -11.213920    11A     -1.226012    12A     -1.130735
      13A     -1.055716    14A     -1.012131    15A     -0.944861
      16A     -0.923162    17A     -0.891505    18A     -0.794050
      19A     -0.780813    20A     -0.692158    21A     -0.661427
      22A     -0.629416    23A     -0.603533    24A     -0.591530
      25A     -0.578199    26A     -0.569797    27A     -0.564891
      28A     -0.557427    29A     -0.553128    30A     -0.530995
      31A     -0.520848    32A     -0.488274    33A     -0.474564
      34A     -0.470248    35A     -0.402503    36A     -0.318284
      37A     -0.300509

  @DF-RHF Final Energy:  -402.96094194022101

   => Energetics <=

    Nuclear Repulsion Energy =            521.1141126865768456
    One-Electron Energy =               -1578.3242313660714444
    Two-Electron Energy =                 654.2491767392735937
    Total Energy =                       -402.9609419402210051
  Basis Set: (AUG-CC-PVTZ AUX)
    Blend: AUG-CC-PVTZ-RI
    Molecular point group: c1

    Geometry (in Angstrom), charge = 0, multiplicity = 1:

       Center              X                  Y                   Z               Mass
    ------------   -----------------  -----------------  -----------------  -----------------
         N            1.665883245979     0.625771627110    -0.460036546083    14.003074004430
         C            0.342149245979     0.165388627110    -0.197334546083    12.000000000000
         C           -0.731555754021     1.072911627110    -0.074904546083    12.000000000000
         C            0.116494745979    -1.243420972890    -0.104538546083    12.000000000000
         C           -2.018865754021     0.575011627110     0.150960453917    12.000000000000
         C           -1.178554754021    -1.682102372890     0.143530453917    12.000000000000
         C           -2.245991754021    -0.795208372890     0.271417453917    12.000000000000
         C           -0.501641754021     2.559437627110    -0.189940546083    12.000000000000
         C            1.246279245979    -2.202971372890    -0.299969546083    12.000000000000
         C            2.541347245979     0.629992627110     0.719116453917    12.000000000000
         H           -2.849518754021     1.272866627110     0.244431453917     1.007825032230
         H           -1.354728754021    -2.754602372890     0.212330453917     1.007825032230
         H            1.630684245979     1.566929627110    -0.844705546083     1.007825032230
         H           -3.250553754021    -1.169349372890     0.454364453917     1.007825032230
         H            0.274166245979     2.905394627110     0.501717453917     1.007825032230
         H           -0.198975754021     2.853371627110    -1.202466546083     1.007825032230
         H           -1.420493754021     3.103635627110     0.043214453917     1.007825032230
         H            1.980620245979    -1.796826372890    -1.000120546083     1.007825032230
         H            1.765507245979    -2.424980372890     0.639422453917     1.007825032230
         H            0.862808245979    -3.149481372890    -0.691692546083     1.007825032230
         H            2.132592245979     1.200208627110     1.566464453917     1.007825032230
         H            3.506653245979     1.058664627110     0.436546453917     1.007825032230
         H            2.712507245979    -0.394797372890     1.051334453917     1.007825032230

  Basis Set: AUG-CC-PVTZ
    Blend: AUG-CC-PVTZ
  Basis Set: (AUG-CC-PVTZ AUX)
    Blend: AUG-CC-PVTZ-JKFIT
	 Reference Energy          =    -402.9609419402210051 [Eh]
	 Singles Energy            =      -0.0000000000000000 [Eh]
	 Same-Spin Energy          =      -0.4481213443299322 [Eh]
	 Opposite-Spin Energy      =      -1.4660980249844839 [Eh]
	 Correlation Energy        =      -1.9142193693144161 [Eh]
	 Total Energy              =    -404.8751613095354287 [Eh]

	 ================> DF-SCS-MP2 Energies <==================
	-----------------------------------------------------------
	 SCS Same-Spin Scale       =       0.3333333333333333 [-]
	 SCS Opposite-Spin Scale   =       1.2000000000000000 [-]
	 SCS Same-Spin Energy      =      -0.1493737814433107 [Eh]
	 SCS Opposite-Spin Energy  =      -1.7593176299813806 [Eh]
	 SCS Correlation Energy    =      -1.9086914114246913 [Eh]
	 SCS Total Energy          =    -404.8696333516456889 [Eh]
	-----------------------------------------------------------

  Dipole Moment: [D]
     X:     0.5657      Y:     1.0710      Z:     0.5170     Total:     1.3169

*** Psi4 exiting successfully. Buy a developer a beer!
