                               Psi4 1.4a3.dev225

  ==> Input File <==

--------------------------------------------------------------------------
#psi4
#
memory 32 gb

molecule  {
0 1
  N        1.6268380     0.6089620    -0.4693990
  C        0.3031040     0.1485790    -0.2066970
  C       -0.7706010     1.0561020    -0.0842670
  C        0.0806060    -1.2405240    -0.1151990
  C       -2.0579110     0.5582020     0.1415980
  C       -1.2176000    -1.6989120     0.1341680
  C       -2.2850370    -0.8120180     0.2620550
  C       -0.5406870     2.5426280    -0.1993030
  C        1.2072340    -2.2197810    -0.3093320
  C        2.5023020     0.6131830     0.7097540
  H       -2.8885640     1.2560570     0.2350690
  H       -1.3937740    -2.7714120     0.2029680
  H        1.5916390     1.5501200    -0.8540680
  H       -3.2895990    -1.1861590     0.4450020
  H        0.2351210     2.8885850     0.4923550
  H       -0.2380210     2.8365620    -1.2118290
  H       -1.4595390     3.0868260     0.0338520
  H        1.9415750    -1.8136360    -1.0094830
  H        1.7264620    -2.4417900     0.6300600
  H        0.8237630    -3.1662910    -0.7010550
  H        2.0935470     1.1833990     1.5571020
  H        3.4852657     1.0496964     0.4220151
  H        2.6734620    -0.4116070     1.0419720
units angstrom
no_reorient  #important for SAPT in psi4, default
symmetry c1  #important for SAPT in psi4, default
}

set PROPERTIES_ORIGIN ["COM"]
properties('MP2/aug-cc-pvtz', properties = ['dipole'])
--------------------------------------------------------------------------

    Molecular point group: c1
  Charge       = 0
  Multiplicity = 1
  Basis Set: AUG-CC-PVTZ
    Blend: AUG-CC-PVTZ
  Basis Set: (AUG-CC-PVTZ AUX)
    Blend: AUG-CC-PVTZ-JKFIT

    Orbital Energies [Eh]
    ---------------------

    Doubly Occupied:

       1A    -15.553986     2A    -11.258354     3A    -11.252076
       4A    -11.236024     5A    -11.232166     6A    -11.228449
       7A    -11.225488     8A    -11.224328     9A    -11.223113
      10A    -11.214211    11A     -1.226617    12A     -1.130882
      13A     -1.054503    14A     -1.012338    15A     -0.944795
      16A     -0.922198    17A     -0.890959    18A     -0.794753
      19A     -0.781340    20A     -0.692383    21A     -0.660833
      22A     -0.628961    23A     -0.603109    24A     -0.591635
      25A     -0.578674    26A     -0.568973    27A     -0.565229
      28A     -0.556668    29A     -0.552214    30A     -0.528752
      31A     -0.521122    32A     -0.485415    33A     -0.476868
      34A     -0.470920    35A     -0.402495    36A     -0.317188
      37A     -0.302880

  @DF-RHF Final Energy:  -402.96123002894632

   => Energetics <=

    Nuclear Repulsion Energy =            521.2175325188446777
    One-Electron Energy =               -1578.5357276130503124
    Two-Electron Energy =                 654.3569650652594873
    Total Energy =                       -402.9612300289462610
  Basis Set: (AUG-CC-PVTZ AUX)
    Blend: AUG-CC-PVTZ-RI
    Molecular point group: c1

    Geometry (in Angstrom), charge = 0, multiplicity = 1:

       Center              X                  Y                   Z               Mass
    ------------   -----------------  -----------------  -----------------  -----------------
         N            1.665471166821     0.623962794557    -0.459882699980    14.003074004430
         C            0.341737166821     0.163579794557    -0.197180699980    12.000000000000
         C           -0.731967833179     1.071102794557    -0.074750699980    12.000000000000
         C            0.119239166821    -1.225523205443    -0.105682699980    12.000000000000
         C           -2.019277833179     0.573202794557     0.151114300020    12.000000000000
         C           -1.178966833179    -1.683911205443     0.143684300020    12.000000000000
         C           -2.246403833179    -0.797017205443     0.271571300020    12.000000000000
         C           -0.502053833179     2.557628794557    -0.189786699980    12.000000000000
         C            1.245867166821    -2.204780205443    -0.299815699980    12.000000000000
         C            2.540935166821     0.628183794557     0.719270300020    12.000000000000
         H           -2.849930833179     1.271057794557     0.244585300020     1.007825032230
         H           -1.355140833179    -2.756411205443     0.212484300020     1.007825032230
         H            1.630272166821     1.565120794557    -0.844551699980     1.007825032230
         H           -3.250965833179    -1.171158205443     0.454518300020     1.007825032230
         H            0.273754166821     2.903585794557     0.501871300020     1.007825032230
         H           -0.199387833179     2.851562794557    -1.202312699980     1.007825032230
         H           -1.420905833179     3.101826794557     0.043368300020     1.007825032230
         H            1.980208166821    -1.798635205443    -0.999966699980     1.007825032230
         H            1.765095166821    -2.426789205443     0.639576300020     1.007825032230
         H            0.862396166821    -3.151290205443    -0.691538699980     1.007825032230
         H            2.132180166821     1.198399794557     1.566618300020     1.007825032230
         H            3.523898866821     1.064697194557     0.431531400020     1.007825032230
         H            2.712095166821    -0.396606205443     1.051488300020     1.007825032230

  Basis Set: AUG-CC-PVTZ
    Blend: AUG-CC-PVTZ
  Basis Set: (AUG-CC-PVTZ AUX)
    Blend: AUG-CC-PVTZ-JKFIT
	 Reference Energy          =    -402.9612300289463178 [Eh]
	 Singles Energy            =      -0.0000000000000000 [Eh]
	 Same-Spin Energy          =      -0.4479941933168302 [Eh]
	 Opposite-Spin Energy      =      -1.4660524333466012 [Eh]
	 Correlation Energy        =      -1.9140466266634313 [Eh]
	 Total Energy              =    -404.8752766556097527 [Eh]

	 ================> DF-SCS-MP2 Energies <==================
	-----------------------------------------------------------
	 SCS Same-Spin Scale       =       0.3333333333333333 [-]
	 SCS Opposite-Spin Scale   =       1.2000000000000000 [-]
	 SCS Same-Spin Energy      =      -0.1493313977722767 [Eh]
	 SCS Opposite-Spin Energy  =      -1.7592629200159213 [Eh]
	 SCS Correlation Energy    =      -1.9085943177881981 [Eh]
	 SCS Total Energy          =    -404.8698243467345037 [Eh]
	-----------------------------------------------------------

  Dipole Moment: [D]
     X:     0.5225      Y:     1.0669      Z:     0.5194     Total:     1.2966

*** Psi4 exiting successfully. Buy a developer a beer!
