                               Psi4 1.4a3.dev225

  ==> Input File <==

--------------------------------------------------------------------------
#psi4
#
memory 32 gb

molecule  {
0 1
  N        1.6268380     0.6089620    -0.4693990
  C        0.3031040     0.1485790    -0.2066970
  C       -0.7706010     1.0561020    -0.0842670
  C        0.0963884    -1.1419908    -0.1216892
  C       -2.0579110     0.5582020     0.1415980
  C       -1.2176000    -1.6989120     0.1341680
  C       -2.2850370    -0.8120180     0.2620550
  C       -0.5406870     2.5426280    -0.1993030
  C        1.2072340    -2.2197810    -0.3093320
  C        2.5023020     0.6131830     0.7097540
  H       -2.8885640     1.2560570     0.2350690
  H       -1.3937740    -2.7714120     0.2029680
  H        1.5916390     1.5501200    -0.8540680
  H       -3.2895990    -1.1861590     0.4450020
  H        0.2351210     2.8885850     0.4923550
  H       -0.2380210     2.8365620    -1.2118290
  H       -1.4595390     3.0868260     0.0338520
  H        1.9415750    -1.8136360    -1.0094830
  H        1.7264620    -2.4417900     0.6300600
  H        0.8237630    -3.1662910    -0.7010550
  H        2.0935470     1.1833990     1.5571020
  H        3.4676080     1.0418550     0.4271840
  H        2.6734620    -0.4116070     1.0419720
units angstrom
no_reorient  #important for SAPT in psi4, default
symmetry c1  #important for SAPT in psi4, default
}

set PROPERTIES_ORIGIN ["COM"]
properties('MP2/aug-cc-pvtz', properties = ['dipole'])
--------------------------------------------------------------------------

    Molecular point group: c1
  Charge       = 0
  Multiplicity = 1
  Basis Set: AUG-CC-PVTZ
    Blend: AUG-CC-PVTZ
  Basis Set: (AUG-CC-PVTZ AUX)
    Blend: AUG-CC-PVTZ-JKFIT

    Orbital Energies [Eh]
    ---------------------

    Doubly Occupied:

       1A    -15.551432     2A    -11.248634     3A    -11.246076
       4A    -11.238148     5A    -11.229026     6A    -11.228950
       7A    -11.227029     8A    -11.225303     9A    -11.224083
      10A    -11.215498    11A     -1.230086    12A     -1.131958
      13A     -1.048830    14A     -1.015999    15A     -0.947249
      16A     -0.917615    17A     -0.894703    18A     -0.802844
      19A     -0.777322    20A     -0.694713    21A     -0.656999
      22A     -0.630884    23A     -0.603262    24A     -0.592331
      25A     -0.582374    26A     -0.567275    27A     -0.564087
      28A     -0.554330    29A     -0.547371    30A     -0.529713
      31A     -0.522367    32A     -0.488095    33A     -0.476090
      34A     -0.462942    35A     -0.402149    36A     -0.317892
      37A     -0.309202

  @DF-RHF Final Energy:  -402.95027639406595

   => Energetics <=

    Nuclear Repulsion Energy =            522.4009668251170524
    One-Electron Energy =               -1580.8967651810598909
    Two-Electron Energy =                 655.5455219618770570
    Total Energy =                       -402.9502763940658951
  Basis Set: (AUG-CC-PVTZ AUX)
    Blend: AUG-CC-PVTZ-RI
    Molecular point group: c1

    Geometry (in Angstrom), charge = 0, multiplicity = 1:

       Center              X                  Y                   Z               Mass
    ------------   -----------------  -----------------  -----------------  -----------------
         N            1.664201094043     0.615269575324    -0.459344798636    14.003074004430
         C            0.340467094043     0.154886575324    -0.196642798636    12.000000000000
         C           -0.733237905957     1.062409575324    -0.074212798636    12.000000000000
         C            0.133751494043    -1.135683224676    -0.111634998636    12.000000000000
         C           -2.020547905957     0.564509575324     0.151652201364    12.000000000000
         C           -1.180236905957    -1.692604424676     0.144222201364    12.000000000000
         C           -2.247673905957    -0.805710424676     0.272109201364    12.000000000000
         C           -0.503323905957     2.548935575324    -0.189248798636    12.000000000000
         C            1.244597094043    -2.213473424676    -0.299277798636    12.000000000000
         C            2.539665094043     0.619490575324     0.719808201364    12.000000000000
         H           -2.851200905957     1.262364575324     0.245123201364     1.007825032230
         H           -1.356410905957    -2.765104424676     0.213022201364     1.007825032230
         H            1.629002094043     1.556427575324    -0.844013798636     1.007825032230
         H           -3.252235905957    -1.179851424676     0.455056201364     1.007825032230
         H            0.272484094043     2.894892575324     0.502409201364     1.007825032230
         H           -0.200657905957     2.842869575324    -1.201774798636     1.007825032230
         H           -1.422175905957     3.093133575324     0.043906201364     1.007825032230
         H            1.978938094043    -1.807328424676    -0.999428798636     1.007825032230
         H            1.763825094043    -2.435482424676     0.640114201364     1.007825032230
         H            0.861126094043    -3.159983424676    -0.691000798636     1.007825032230
         H            2.130910094043     1.189706575324     1.567156201364     1.007825032230
         H            3.504971094043     1.048162575324     0.437238201364     1.007825032230
         H            2.710825094043    -0.405299424676     1.052026201364     1.007825032230

  Basis Set: AUG-CC-PVTZ
    Blend: AUG-CC-PVTZ
  Basis Set: (AUG-CC-PVTZ AUX)
    Blend: AUG-CC-PVTZ-JKFIT
	 Reference Energy          =    -402.9502763940659520 [Eh]
	 Singles Energy            =      -0.0000000000000000 [Eh]
	 Same-Spin Energy          =      -0.4471708670530136 [Eh]
	 Opposite-Spin Energy      =      -1.4656484164837607 [Eh]
	 Correlation Energy        =      -1.9128192835367743 [Eh]
	 Total Energy              =    -404.8630956776027006 [Eh]

	 ================> DF-SCS-MP2 Energies <==================
	-----------------------------------------------------------
	 SCS Same-Spin Scale       =       0.3333333333333333 [-]
	 SCS Opposite-Spin Scale   =       1.2000000000000000 [-]
	 SCS Same-Spin Energy      =      -0.1490569556843379 [Eh]
	 SCS Opposite-Spin Energy  =      -1.7587780997805127 [Eh]
	 SCS Correlation Energy    =      -1.9078350554648507 [Eh]
	 SCS Total Energy          =    -404.8581114495307816 [Eh]
	-----------------------------------------------------------

  Dipole Moment: [D]
     X:     0.3976      Y:     1.0725      Z:     0.5384     Total:     1.2642

*** Psi4 exiting successfully. Buy a developer a beer!
