                               Psi4 1.4a3.dev225

  ==> Input File <==

--------------------------------------------------------------------------
#psi4
#
memory 32 gb

molecule  {
0 1
  N        1.6268380     0.6089620    -0.4693990
  C        0.3031040     0.1485790    -0.2066970
  C       -0.7706010     1.0561020    -0.0842670
  C        0.0806060    -1.2405240    -0.1151990
  C       -2.0579110     0.5582020     0.1415980
  C       -1.2176000    -1.6989120     0.1341680
  C       -2.2850370    -0.8120180     0.2620550
  C       -0.5406870     2.5426280    -0.1993030
  C        1.2072340    -2.2197810    -0.3093320
  C        2.5023020     0.6131830     0.7097540
  H       -2.8885640     1.2560570     0.2350690
  H       -1.3937740    -2.7714120     0.2029680
  H        1.5916390     1.5501200    -0.8540680
  H       -3.2895990    -1.1861590     0.4450020
  H        0.2492855     2.8949014     0.5049831
  H       -0.2380210     2.8365620    -1.2118290
  H       -1.4595390     3.0868260     0.0338520
  H        1.9415750    -1.8136360    -1.0094830
  H        1.7264620    -2.4417900     0.6300600
  H        0.8237630    -3.1662910    -0.7010550
  H        2.0935470     1.1833990     1.5571020
  H        3.4676080     1.0418550     0.4271840
  H        2.6734620    -0.4116070     1.0419720
units angstrom
no_reorient  #important for SAPT in psi4, default
symmetry c1  #important for SAPT in psi4, default
}

set PROPERTIES_ORIGIN ["COM"]
properties('MP2/aug-cc-pvtz', properties = ['dipole'])
--------------------------------------------------------------------------

    Molecular point group: c1
  Charge       = 0
  Multiplicity = 1
  Basis Set: AUG-CC-PVTZ
    Blend: AUG-CC-PVTZ
  Basis Set: (AUG-CC-PVTZ AUX)
    Blend: AUG-CC-PVTZ-JKFIT

    Orbital Energies [Eh]
    ---------------------

    Doubly Occupied:

       1A    -15.553751     2A    -11.258300     3A    -11.249595
       4A    -11.236064     5A    -11.232087     6A    -11.230789
       7A    -11.225515     8A    -11.224323     9A    -11.223103
      10A    -11.214153    11A     -1.226525    12A     -1.130890
      13A     -1.054172    14A     -1.012250    15A     -0.944816
      16A     -0.921575    17A     -0.892004    18A     -0.794360
      19A     -0.781292    20A     -0.692473    21A     -0.660786
      22A     -0.629240    23A     -0.603426    24A     -0.591480
      25A     -0.577975    26A     -0.568881    27A     -0.563825
      28A     -0.556531    29A     -0.552330    30A     -0.530699
      31A     -0.520512    32A     -0.485306    33A     -0.477045
      34A     -0.470718    35A     -0.402450    36A     -0.317127
      37A     -0.302776

  @DF-RHF Final Energy:  -402.96122265914494

   => Energetics <=

    Nuclear Repulsion Energy =            521.2323147326449089
    One-Electron Energy =               -1578.5687839163451827
    Two-Electron Energy =                 654.3752465245553367
    Total Energy =                       -402.9612226591449371
  Basis Set: (AUG-CC-PVTZ AUX)
    Blend: AUG-CC-PVTZ-RI
    Molecular point group: c1

    Geometry (in Angstrom), charge = 0, multiplicity = 1:

       Center              X                  Y                   Z               Mass
    ------------   -----------------  -----------------  -----------------  -----------------
         N            1.665497224625     0.623974170416    -0.460015458122    14.003074004430
         C            0.341763224625     0.163591170416    -0.197313458122    12.000000000000
         C           -0.731941775375     1.071114170416    -0.074883458122    12.000000000000
         C            0.119265224625    -1.225511829584    -0.105815458122    12.000000000000
         C           -2.019251775375     0.573214170416     0.150981541878    12.000000000000
         C           -1.178940775375    -1.683899829584     0.143551541878    12.000000000000
         C           -2.246377775375    -0.797005829584     0.271438541878    12.000000000000
         C           -0.502027775375     2.557640170416    -0.189919458122    12.000000000000
         C            1.245893224625    -2.204768829584    -0.299948458122    12.000000000000
         C            2.540961224625     0.628195170416     0.719137541878    12.000000000000
         H           -2.849904775375     1.271069170416     0.244452541878     1.007825032230
         H           -1.355114775375    -2.756399829584     0.212351541878     1.007825032230
         H            1.630298224625     1.565132170416    -0.844684458122     1.007825032230
         H           -3.250939775375    -1.171146829584     0.454385541878     1.007825032230
         H            0.287944724625     2.909913570416     0.514366641878     1.007825032230
         H           -0.199361775375     2.851574170416    -1.202445458122     1.007825032230
         H           -1.420879775375     3.101838170416     0.043235541878     1.007825032230
         H            1.980234224625    -1.798623829584    -1.000099458122     1.007825032230
         H            1.765121224625    -2.426777829584     0.639443541878     1.007825032230
         H            0.862422224625    -3.151278829584    -0.691671458122     1.007825032230
         H            2.132206224625     1.198411170416     1.566485541878     1.007825032230
         H            3.506267224625     1.056867170416     0.436567541878     1.007825032230
         H            2.712121224625    -0.396594829584     1.051355541878     1.007825032230

  Basis Set: AUG-CC-PVTZ
    Blend: AUG-CC-PVTZ
  Basis Set: (AUG-CC-PVTZ AUX)
    Blend: AUG-CC-PVTZ-JKFIT
	 Reference Energy          =    -402.9612226591449371 [Eh]
	 Singles Energy            =      -0.0000000000000000 [Eh]
	 Same-Spin Energy          =      -0.4480061203337051 [Eh]
	 Opposite-Spin Energy      =      -1.4660575292262366 [Eh]
	 Correlation Energy        =      -1.9140636495599417 [Eh]
	 Total Energy              =    -404.8752863087048581 [Eh]

	 ================> DF-SCS-MP2 Energies <==================
	-----------------------------------------------------------
	 SCS Same-Spin Scale       =       0.3333333333333333 [-]
	 SCS Opposite-Spin Scale   =       1.2000000000000000 [-]
	 SCS Same-Spin Energy      =      -0.1493353734445684 [Eh]
	 SCS Opposite-Spin Energy  =      -1.7592690350714839 [Eh]
	 SCS Correlation Energy    =      -1.9086044085160523 [Eh]
	 SCS Total Energy          =    -404.8698270676609923 [Eh]
	-----------------------------------------------------------

  Dipole Moment: [D]
     X:     0.5320      Y:     1.0639      Z:     0.5155     Total:     1.2964

*** Psi4 exiting successfully. Buy a developer a beer!
