                               Psi4 1.4a3.dev225

  ==> Input File <==

--------------------------------------------------------------------------
#psi4
#
memory 32 gb

molecule  {
0 1
  N        1.6268380     0.6089620    -0.4693990
  C        0.3031040     0.1485790    -0.2066970
  C       -0.7706010     1.0561020    -0.0842670
  C        0.0806060    -1.2405240    -0.1151990
  C       -2.0579110     0.5582020     0.1415980
  C       -1.2176000    -1.6989120     0.1341680
  C       -2.3702529    -0.9291108     0.2796166
  C       -0.5406870     2.5426280    -0.1993030
  C        1.2072340    -2.2197810    -0.3093320
  C        2.5023020     0.6131830     0.7097540
  H       -2.8885640     1.2560570     0.2350690
  H       -1.3937740    -2.7714120     0.2029680
  H        1.5916390     1.5501200    -0.8540680
  H       -3.2895990    -1.1861590     0.4450020
  H        0.2351210     2.8885850     0.4923550
  H       -0.2380210     2.8365620    -1.2118290
  H       -1.4595390     3.0868260     0.0338520
  H        1.9415750    -1.8136360    -1.0094830
  H        1.7264620    -2.4417900     0.6300600
  H        0.8237630    -3.1662910    -0.7010550
  H        2.0935470     1.1833990     1.5571020
  H        3.4676080     1.0418550     0.4271840
  H        2.6734620    -0.4116070     1.0419720
units angstrom
no_reorient  #important for SAPT in psi4, default
symmetry c1  #important for SAPT in psi4, default
}

set PROPERTIES_ORIGIN ["COM"]
properties('MP2/aug-cc-pvtz', properties = ['dipole'])
--------------------------------------------------------------------------

    Molecular point group: c1
  Charge       = 0
  Multiplicity = 1
  Basis Set: AUG-CC-PVTZ
    Blend: AUG-CC-PVTZ
  Basis Set: (AUG-CC-PVTZ AUX)
    Blend: AUG-CC-PVTZ-JKFIT

    Orbital Energies [Eh]
    ---------------------

    Doubly Occupied:

       1A    -15.555447     2A    -11.261840     3A    -11.250781
       4A    -11.238286     5A    -11.236562     6A    -11.231786
       7A    -11.229015     8A    -11.228399     9A    -11.226970
      10A    -11.214518    11A     -1.227646    12A     -1.121946
      13A     -1.053840    14A     -1.008217    15A     -0.946145
      16A     -0.917254    17A     -0.893515    18A     -0.806324
      19A     -0.781302    20A     -0.689691    21A     -0.666951
      22A     -0.639391    23A     -0.608582    24A     -0.589755
      25A     -0.576760    26A     -0.569508    27A     -0.566119
      28A     -0.557616    29A     -0.549340    30A     -0.535962
      31A     -0.514680    32A     -0.498152    33A     -0.464985
      34A     -0.458918    35A     -0.401388    36A     -0.320131
      37A     -0.295634

  @DF-RHF Final Energy:  -402.93271522364751

   => Energetics <=

    Nuclear Repulsion Energy =            518.9262213041573659
    One-Electron Energy =               -1573.8511690546495174
    Two-Electron Energy =                 651.9922325268447594
    Total Energy =                       -402.9327152236475058
  Basis Set: (AUG-CC-PVTZ AUX)
    Blend: AUG-CC-PVTZ-RI
    Molecular point group: c1

    Geometry (in Angstrom), charge = 0, multiplicity = 1:

       Center              X                  Y                   Z               Mass
    ------------   -----------------  -----------------  -----------------  -----------------
         N            1.673171756855     0.634421463422    -0.461481078037    14.003074004430
         C            0.349437756855     0.174038463422    -0.198779078037    12.000000000000
         C           -0.724267243145     1.081561463422    -0.076349078037    12.000000000000
         C            0.126939756855    -1.215064536578    -0.107281078037    12.000000000000
         C           -2.011577243145     0.583661463422     0.149515921963    12.000000000000
         C           -1.171266243145    -1.673452536578     0.142085921963    12.000000000000
         C           -2.323919143145    -0.903651336578     0.287534521963    12.000000000000
         C           -0.494353243145     2.568087463422    -0.191385078037    12.000000000000
         C            1.253567756855    -2.194321536578    -0.301414078037    12.000000000000
         C            2.548635756855     0.638642463422     0.717671921963    12.000000000000
         H           -2.842230243145     1.281516463422     0.242986921963     1.007825032230
         H           -1.347440243145    -2.745952536578     0.210885921963     1.007825032230
         H            1.637972756855     1.575579463422    -0.846150078037     1.007825032230
         H           -3.243265243145    -1.160699536578     0.452919921963     1.007825032230
         H            0.281454756855     2.914044463422     0.500272921963     1.007825032230
         H           -0.191687243145     2.862021463422    -1.203911078037     1.007825032230
         H           -1.413205243145     3.112285463422     0.041769921963     1.007825032230
         H            1.987908756855    -1.788176536578    -1.001565078037     1.007825032230
         H            1.772795756855    -2.416330536578     0.637977921963     1.007825032230
         H            0.870096756855    -3.140831536578    -0.693137078037     1.007825032230
         H            2.139880756855     1.208858463422     1.565019921963     1.007825032230
         H            3.513941756855     1.067314463422     0.435101921963     1.007825032230
         H            2.719795756855    -0.386147536578     1.049889921963     1.007825032230

  Basis Set: AUG-CC-PVTZ
    Blend: AUG-CC-PVTZ
  Basis Set: (AUG-CC-PVTZ AUX)
    Blend: AUG-CC-PVTZ-JKFIT
	 Reference Energy          =    -402.9327152236475058 [Eh]
	 Singles Energy            =      -0.0000000000000000 [Eh]
	 Same-Spin Energy          =      -0.4481441605333451 [Eh]
	 Opposite-Spin Energy      =      -1.4682613123311472 [Eh]
	 Correlation Energy        =      -1.9164054728644924 [Eh]
	 Total Energy              =    -404.8491206965119886 [Eh]

	 ================> DF-SCS-MP2 Energies <==================
	-----------------------------------------------------------
	 SCS Same-Spin Scale       =       0.3333333333333333 [-]
	 SCS Opposite-Spin Scale   =       1.2000000000000000 [-]
	 SCS Same-Spin Energy      =      -0.1493813868444483 [Eh]
	 SCS Opposite-Spin Energy  =      -1.7619135747973766 [Eh]
	 SCS Correlation Energy    =      -1.9112949616418251 [Eh]
	 SCS Total Energy          =    -404.8440101852893349 [Eh]
	-----------------------------------------------------------

  Dipole Moment: [D]
     X:     0.5727      Y:     1.1042      Z:     0.5195     Total:     1.3480

*** Psi4 exiting successfully. Buy a developer a beer!
