                               Psi4 1.4a3.dev225

  ==> Input File <==

--------------------------------------------------------------------------
#psi4
#
memory 32 gb

molecule  {
0 1
  N        1.6268380     0.6089620    -0.4693990
  C        0.3158290     0.1418695    -0.1590499
  C       -0.7706010     1.0561020    -0.0842670
  C        0.0806060    -1.2405240    -0.1151990
  C       -2.0579110     0.5582020     0.1415980
  C       -1.2176000    -1.6989120     0.1341680
  C       -2.2850370    -0.8120180     0.2620550
  C       -0.5406870     2.5426280    -0.1993030
  C        1.2072340    -2.2197810    -0.3093320
  C        2.5023020     0.6131830     0.7097540
  H       -2.8885640     1.2560570     0.2350690
  H       -1.3937740    -2.7714120     0.2029680
  H        1.5916390     1.5501200    -0.8540680
  H       -3.2895990    -1.1861590     0.4450020
  H        0.2351210     2.8885850     0.4923550
  H       -0.2380210     2.8365620    -1.2118290
  H       -1.4595390     3.0868260     0.0338520
  H        1.9415750    -1.8136360    -1.0094830
  H        1.7264620    -2.4417900     0.6300600
  H        0.8237630    -3.1662910    -0.7010550
  H        2.0935470     1.1833990     1.5571020
  H        3.4676080     1.0418550     0.4271840
  H        2.6734620    -0.4116070     1.0419720
units angstrom
no_reorient  #important for SAPT in psi4, default
symmetry c1  #important for SAPT in psi4, default
}

set PROPERTIES_ORIGIN ["COM"]
properties('MP2/aug-cc-pvtz', properties = ['dipole'])
--------------------------------------------------------------------------

    Molecular point group: c1
  Charge       = 0
  Multiplicity = 1
  Basis Set: AUG-CC-PVTZ
    Blend: AUG-CC-PVTZ
  Basis Set: (AUG-CC-PVTZ AUX)
    Blend: AUG-CC-PVTZ-JKFIT

    Orbital Energies [Eh]
    ---------------------

    Doubly Occupied:

       1A    -15.554281     2A    -11.258226     3A    -11.248899
       4A    -11.237236     5A    -11.231481     6A    -11.228664
       7A    -11.225332     8A    -11.224231     9A    -11.223055
      10A    -11.213916    11A     -1.227301    12A     -1.130800
      13A     -1.054343    14A     -1.012306    15A     -0.944586
      16A     -0.922113    17A     -0.891634    18A     -0.795820
      19A     -0.779867    20A     -0.693815    21A     -0.660320
      22A     -0.630767    23A     -0.602154    24A     -0.591270
      25A     -0.579179    26A     -0.568963    27A     -0.564987
      28A     -0.556621    29A     -0.551914    30A     -0.530678
      31A     -0.520829    32A     -0.484692    33A     -0.478275
      34A     -0.469864    35A     -0.402701    36A     -0.316876
      37A     -0.302936

  @DF-RHF Final Energy:  -402.96029401453939

   => Energetics <=

    Nuclear Repulsion Energy =            521.3672829337083385
    One-Electron Energy =               -1578.8332884546116475
    Two-Electron Energy =                 654.5057115063639230
    Total Energy =                       -402.9602940145393859
  Basis Set: (AUG-CC-PVTZ AUX)
    Blend: AUG-CC-PVTZ-RI
    Molecular point group: c1

    Geometry (in Angstrom), charge = 0, multiplicity = 1:

       Center              X                  Y                   Z               Mass
    ------------   -----------------  -----------------  -----------------  -----------------
         N            1.664472652123     0.624617225485    -0.464153270302    14.003074004430
         C            0.353463652123     0.157524725485    -0.153804170302    12.000000000000
         C           -0.732966347877     1.071757225485    -0.079021270302    12.000000000000
         C            0.118240652123    -1.224868774515    -0.109953270302    12.000000000000
         C           -2.020276347877     0.573857225485     0.146843729698    12.000000000000
         C           -1.179965347877    -1.683256774515     0.139413729698    12.000000000000
         C           -2.247402347877    -0.796362774515     0.267300729698    12.000000000000
         C           -0.503052347877     2.558283225485    -0.194057270302    12.000000000000
         C            1.244868652123    -2.204125774515    -0.304086270302    12.000000000000
         C            2.539936652123     0.628838225485     0.714999729698    12.000000000000
         H           -2.850929347877     1.271712225485     0.240314729698     1.007825032230
         H           -1.356139347877    -2.755756774515     0.208213729698     1.007825032230
         H            1.629273652123     1.565775225485    -0.848822270302     1.007825032230
         H           -3.251964347877    -1.170503774515     0.450247729698     1.007825032230
         H            0.272755652123     2.904240225485     0.497600729698     1.007825032230
         H           -0.200386347877     2.852217225485    -1.206583270302     1.007825032230
         H           -1.421904347877     3.102481225485     0.039097729698     1.007825032230
         H            1.979209652123    -1.797980774515    -1.004237270302     1.007825032230
         H            1.764096652123    -2.426134774515     0.635305729698     1.007825032230
         H            0.861397652123    -3.150635774515    -0.695809270302     1.007825032230
         H            2.131181652123     1.199054225485     1.562347729698     1.007825032230
         H            3.505242652123     1.057510225485     0.432429729698     1.007825032230
         H            2.711096652123    -0.395951774515     1.047217729698     1.007825032230

  Basis Set: AUG-CC-PVTZ
    Blend: AUG-CC-PVTZ
  Basis Set: (AUG-CC-PVTZ AUX)
    Blend: AUG-CC-PVTZ-JKFIT
	 Reference Energy          =    -402.9602940145393859 [Eh]
	 Singles Energy            =      -0.0000000000000000 [Eh]
	 Same-Spin Energy          =      -0.4481108738887776 [Eh]
	 Opposite-Spin Energy      =      -1.4661991721220935 [Eh]
	 Correlation Energy        =      -1.9143100460108711 [Eh]
	 Total Energy              =    -404.8746040605502685 [Eh]

	 ================> DF-SCS-MP2 Energies <==================
	-----------------------------------------------------------
	 SCS Same-Spin Scale       =       0.3333333333333333 [-]
	 SCS Opposite-Spin Scale   =       1.2000000000000000 [-]
	 SCS Same-Spin Energy      =      -0.1493702912962592 [Eh]
	 SCS Opposite-Spin Energy  =      -1.7594390065465122 [Eh]
	 SCS Correlation Energy    =      -1.9088092978427713 [Eh]
	 SCS Total Energy          =    -404.8691033123821512 [Eh]
	-----------------------------------------------------------

  Dipole Moment: [D]
     X:     0.5297      Y:     1.0809      Z:     0.5114     Total:     1.3079

*** Psi4 exiting successfully. Buy a developer a beer!
