                               Psi4 1.4a3.dev225

  ==> Input File <==

--------------------------------------------------------------------------
#psi4
#
memory 32 gb

molecule  {
0 1
  N        1.6268380     0.6089620    -0.4693990
  C        0.3031040     0.1485790    -0.2066970
  C       -0.7553839     1.0432401    -0.0860021
  C        0.0806060    -1.2405240    -0.1151990
  C       -2.0579110     0.5582020     0.1415980
  C       -1.2176000    -1.6989120     0.1341680
  C       -2.2850370    -0.8120180     0.2620550
  C       -0.5406870     2.5426280    -0.1993030
  C        1.2072340    -2.2197810    -0.3093320
  C        2.5023020     0.6131830     0.7097540
  H       -2.8885640     1.2560570     0.2350690
  H       -1.3937740    -2.7714120     0.2029680
  H        1.5916390     1.5501200    -0.8540680
  H       -3.2895990    -1.1861590     0.4450020
  H        0.2351210     2.8885850     0.4923550
  H       -0.2380210     2.8365620    -1.2118290
  H       -1.4595390     3.0868260     0.0338520
  H        1.9415750    -1.8136360    -1.0094830
  H        1.7264620    -2.4417900     0.6300600
  H        0.8237630    -3.1662910    -0.7010550
  H        2.0935470     1.1833990     1.5571020
  H        3.4676080     1.0418550     0.4271840
  H        2.6734620    -0.4116070     1.0419720
units angstrom
no_reorient  #important for SAPT in psi4, default
symmetry c1  #important for SAPT in psi4, default
}

set PROPERTIES_ORIGIN ["COM"]
properties('MP2/aug-cc-pvtz', properties = ['dipole'])
--------------------------------------------------------------------------

    Molecular point group: c1
  Charge       = 0
  Multiplicity = 1
  Basis Set: AUG-CC-PVTZ
    Blend: AUG-CC-PVTZ
  Basis Set: (AUG-CC-PVTZ AUX)
    Blend: AUG-CC-PVTZ-JKFIT

    Orbital Energies [Eh]
    ---------------------

    Doubly Occupied:

       1A    -15.553375     2A    -11.256151     3A    -11.249496
       4A    -11.235206     5A    -11.232527     6A    -11.228587
       7A    -11.226142     8A    -11.224455     9A    -11.222845
      10A    -11.214241    11A     -1.227205    12A     -1.130911
      13A     -1.052992    14A     -1.012802    15A     -0.946011
      16A     -0.921049    17A     -0.892732    18A     -0.793435
      19A     -0.783873    20A     -0.692109    21A     -0.661315
      22A     -0.628931    23A     -0.603229    24A     -0.591310
      25A     -0.579522    26A     -0.568940    27A     -0.564960
      28A     -0.555994    29A     -0.551416    30A     -0.530716
      31A     -0.521008    32A     -0.486873    33A     -0.474442
      34A     -0.471548    35A     -0.402793    36A     -0.316188
      37A     -0.304712

  @DF-RHF Final Energy:  -402.96162229772841

   => Energetics <=

    Nuclear Repulsion Energy =            521.5187707881776760
    One-Electron Energy =               -1579.1407003237375193
    Two-Electron Energy =                 654.6603072378316028
    Total Energy =                       -402.9616222977283542
  Basis Set: (AUG-CC-PVTZ AUX)
    Blend: AUG-CC-PVTZ-RI
    Molecular point group: c1

    Geometry (in Angstrom), charge = 0, multiplicity = 1:

       Center              X                  Y                   Z               Mass
    ------------   -----------------  -----------------  -----------------  -----------------
         N            1.664251303954     0.625163681275    -0.459767146327    14.003074004430
         C            0.340517303954     0.164780681275    -0.197065146327    12.000000000000
         C           -0.717970596046     1.059441781275    -0.076370246327    12.000000000000
         C            0.118019303954    -1.224322318725    -0.105567146327    12.000000000000
         C           -2.020497696046     0.574403681275     0.151229853673    12.000000000000
         C           -1.180186696046    -1.682710318725     0.143799853673    12.000000000000
         C           -2.247623696046    -0.795816318725     0.271686853673    12.000000000000
         C           -0.503273696046     2.558829681275    -0.189671146327    12.000000000000
         C            1.244647303954    -2.203579318725    -0.299700146327    12.000000000000
         C            2.539715303954     0.629384681275     0.719385853673    12.000000000000
         H           -2.851150696046     1.272258681275     0.244700853673     1.007825032230
         H           -1.356360696046    -2.755210318725     0.212599853673     1.007825032230
         H            1.629052303954     1.566321681275    -0.844436146327     1.007825032230
         H           -3.252185696046    -1.169957318725     0.454633853673     1.007825032230
         H            0.272534303954     2.904786681275     0.501986853673     1.007825032230
         H           -0.200607696046     2.852763681275    -1.202197146327     1.007825032230
         H           -1.422125696046     3.103027681275     0.043483853673     1.007825032230
         H            1.978988303954    -1.797434318725    -0.999851146327     1.007825032230
         H            1.763875303954    -2.425588318725     0.639691853673     1.007825032230
         H            0.861176303954    -3.150089318725    -0.691423146327     1.007825032230
         H            2.130960303954     1.199600681275     1.566733853673     1.007825032230
         H            3.505021303954     1.058056681275     0.436815853673     1.007825032230
         H            2.710875303954    -0.395405318725     1.051603853673     1.007825032230

  Basis Set: AUG-CC-PVTZ
    Blend: AUG-CC-PVTZ
  Basis Set: (AUG-CC-PVTZ AUX)
    Blend: AUG-CC-PVTZ-JKFIT
	 Reference Energy          =    -402.9616222977284110 [Eh]
	 Singles Energy            =      -0.0000000000000000 [Eh]
	 Same-Spin Energy          =      -0.4478648312911268 [Eh]
	 Opposite-Spin Energy      =      -1.4657883299391254 [Eh]
	 Correlation Energy        =      -1.9136531612302523 [Eh]
	 Total Energy              =    -404.8752754589586402 [Eh]

	 ================> DF-SCS-MP2 Energies <==================
	-----------------------------------------------------------
	 SCS Same-Spin Scale       =       0.3333333333333333 [-]
	 SCS Opposite-Spin Scale   =       1.2000000000000000 [-]
	 SCS Same-Spin Energy      =      -0.1492882770970423 [Eh]
	 SCS Opposite-Spin Energy  =      -1.7589459959269504 [Eh]
	 SCS Correlation Energy    =      -1.9082342730239927 [Eh]
	 SCS Total Energy          =    -404.8698565707524040 [Eh]
	-----------------------------------------------------------

  Dipole Moment: [D]
     X:     0.5201      Y:     1.0569      Z:     0.5243     Total:     1.2893

*** Psi4 exiting successfully. Buy a developer a beer!
