                               Psi4 1.4a3.dev225

  ==> Input File <==

--------------------------------------------------------------------------
#psi4
#
memory 32 gb

molecule  {
0 1
  N        1.6268380     0.6089620    -0.4693990
  C        0.3031040     0.1485790    -0.2066970
  C       -0.7706010     1.0561020    -0.0842670
  C        0.0727148    -1.2897906    -0.1119539
  C       -2.0579110     0.5582020     0.1415980
  C       -1.2176000    -1.6989120     0.1341680
  C       -2.2850370    -0.8120180     0.2620550
  C       -0.5406870     2.5426280    -0.1993030
  C        1.2072340    -2.2197810    -0.3093320
  C        2.5023020     0.6131830     0.7097540
  H       -2.8885640     1.2560570     0.2350690
  H       -1.3937740    -2.7714120     0.2029680
  H        1.5916390     1.5501200    -0.8540680
  H       -3.2895990    -1.1861590     0.4450020
  H        0.2351210     2.8885850     0.4923550
  H       -0.2380210     2.8365620    -1.2118290
  H       -1.4595390     3.0868260     0.0338520
  H        1.9415750    -1.8136360    -1.0094830
  H        1.7264620    -2.4417900     0.6300600
  H        0.8237630    -3.1662910    -0.7010550
  H        2.0935470     1.1833990     1.5571020
  H        3.4676080     1.0418550     0.4271840
  H        2.6734620    -0.4116070     1.0419720
units angstrom
no_reorient  #important for SAPT in psi4, default
symmetry c1  #important for SAPT in psi4, default
}

set PROPERTIES_ORIGIN ["COM"]
properties('MP2/aug-cc-pvtz', properties = ['dipole'])
--------------------------------------------------------------------------

    Molecular point group: c1
  Charge       = 0
  Multiplicity = 1
  Basis Set: AUG-CC-PVTZ
    Blend: AUG-CC-PVTZ
  Basis Set: (AUG-CC-PVTZ AUX)
    Blend: AUG-CC-PVTZ-JKFIT

    Orbital Energies [Eh]
    ---------------------

    Doubly Occupied:

       1A    -15.554867     2A    -11.263028     3A    -11.250118
       4A    -11.234685     5A    -11.233793     6A    -11.228013
       7A    -11.225571     8A    -11.223809     9A    -11.220607
      10A    -11.213670    11A     -1.225275    12A     -1.130652
      13A     -1.057768    14A     -1.011928    15A     -0.944095
      16A     -0.924744    17A     -0.890666    18A     -0.794121
      19A     -0.779088    20A     -0.691542    21A     -0.662443
      22A     -0.629366    23A     -0.603600    24A     -0.591636
      25A     -0.577431    26A     -0.571280    27A     -0.564196
      28A     -0.558681    29A     -0.554289    30A     -0.531456
      31A     -0.520631    32A     -0.492386    33A     -0.471359
      34A     -0.468205    35A     -0.402502    36A     -0.320190
      37A     -0.297292

  @DF-RHF Final Energy:  -402.95805839427743

   => Energetics <=

    Nuclear Repulsion Energy =            520.8241284894946830
    One-Electron Energy =               -1577.7344102837810169
    Two-Electron Energy =                 653.9522234000088474
    Total Energy =                       -402.9580583942773728
  Basis Set: (AUG-CC-PVTZ AUX)
    Blend: AUG-CC-PVTZ-RI
    Molecular point group: c1

    Geometry (in Angstrom), charge = 0, multiplicity = 1:

       Center              X                  Y                   Z               Mass
    ------------   -----------------  -----------------  -----------------  -----------------
         N            1.666303781743     0.628397144497    -0.460209487385    14.003074004430
         C            0.342569781743     0.168014144497    -0.197507487385    12.000000000000
         C           -0.731135218257     1.075537144497    -0.075077487385    12.000000000000
         C            0.112180581743    -1.270355455503    -0.102764387385    12.000000000000
         C           -2.018445218257     0.577637144497     0.150787512615    12.000000000000
         C           -1.178134218257    -1.679476855503     0.143357512615    12.000000000000
         C           -2.245571218257    -0.792582855503     0.271244512615    12.000000000000
         C           -0.501221218257     2.562063144497    -0.190113487385    12.000000000000
         C            1.246699781743    -2.200345855503    -0.300142487385    12.000000000000
         C            2.541767781743     0.632618144497     0.718943512615    12.000000000000
         H           -2.849098218257     1.275492144497     0.244258512615     1.007825032230
         H           -1.354308218257    -2.751976855503     0.212157512615     1.007825032230
         H            1.631104781743     1.569555144497    -0.844878487385     1.007825032230
         H           -3.250133218257    -1.166723855503     0.454191512615     1.007825032230
         H            0.274586781743     2.908020144497     0.501544512615     1.007825032230
         H           -0.198555218257     2.855997144497    -1.202639487385     1.007825032230
         H           -1.420073218257     3.106261144497     0.043041512615     1.007825032230
         H            1.981040781743    -1.794200855503    -1.000293487385     1.007825032230
         H            1.765927781743    -2.422354855503     0.639249512615     1.007825032230
         H            0.863228781743    -3.146855855503    -0.691865487385     1.007825032230
         H            2.133012781743     1.202834144497     1.566291512615     1.007825032230
         H            3.507073781743     1.061290144497     0.436373512615     1.007825032230
         H            2.712927781743    -0.392171855503     1.051161512615     1.007825032230

  Basis Set: AUG-CC-PVTZ
    Blend: AUG-CC-PVTZ
  Basis Set: (AUG-CC-PVTZ AUX)
    Blend: AUG-CC-PVTZ-JKFIT
	 Reference Energy          =    -402.9580583942774297 [Eh]
	 Singles Energy            =      -0.0000000000000000 [Eh]
	 Same-Spin Energy          =      -0.4482981181600674 [Eh]
	 Opposite-Spin Energy      =      -1.4664399625060089 [Eh]
	 Correlation Energy        =      -1.9147380806660763 [Eh]
	 Total Energy              =    -404.8727964749435273 [Eh]

	 ================> DF-SCS-MP2 Energies <==================
	-----------------------------------------------------------
	 SCS Same-Spin Scale       =       0.3333333333333333 [-]
	 SCS Opposite-Spin Scale   =       1.2000000000000000 [-]
	 SCS Same-Spin Energy      =      -0.1494327060533558 [Eh]
	 SCS Opposite-Spin Energy  =      -1.7597279550072107 [Eh]
	 SCS Correlation Energy    =      -1.9091606610605665 [Eh]
	 SCS Total Energy          =    -404.8672190553380119 [Eh]
	-----------------------------------------------------------

  Dipole Moment: [D]
     X:     0.6050      Y:     1.0672      Z:     0.5118     Total:     1.3292

*** Psi4 exiting successfully. Buy a developer a beer!
