                               Psi4 1.4a3.dev225

  ==> Input File <==

--------------------------------------------------------------------------
#psi4
#
memory 32 gb

molecule  {
0 1
  N        1.6268380     0.6089620    -0.4693990
  C        0.3031040     0.1485790    -0.2066970
  C       -0.7706010     1.0561020    -0.0842670
  C        0.0806060    -1.2405240    -0.1151990
  C       -2.0579110     0.5582020     0.1415980
  C       -1.2176000    -1.6989120     0.1341680
  C       -2.2850370    -0.8120180     0.2620550
  C       -0.5406870     2.5426280    -0.1993030
  C        1.2072340    -2.2197810    -0.3093320
  C        2.5023020     0.6131830     0.7097540
  H       -2.8885640     1.2560570     0.2350690
  H       -1.3937740    -2.7714120     0.2029680
  H        1.5909470     1.5686223    -0.8616302
  H       -3.2895990    -1.1861590     0.4450020
  H        0.2351210     2.8885850     0.4923550
  H       -0.2380210     2.8365620    -1.2118290
  H       -1.4595390     3.0868260     0.0338520
  H        1.9415750    -1.8136360    -1.0094830
  H        1.7264620    -2.4417900     0.6300600
  H        0.8237630    -3.1662910    -0.7010550
  H        2.0935470     1.1833990     1.5571020
  H        3.4676080     1.0418550     0.4271840
  H        2.6734620    -0.4116070     1.0419720
units angstrom
no_reorient  #important for SAPT in psi4, default
symmetry c1  #important for SAPT in psi4, default
}

set PROPERTIES_ORIGIN ["COM"]
properties('MP2/aug-cc-pvtz', properties = ['dipole'])
--------------------------------------------------------------------------

    Molecular point group: c1
  Charge       = 0
  Multiplicity = 1
  Basis Set: AUG-CC-PVTZ
    Blend: AUG-CC-PVTZ
  Basis Set: (AUG-CC-PVTZ AUX)
    Blend: AUG-CC-PVTZ-JKFIT

    Orbital Energies [Eh]
    ---------------------

    Doubly Occupied:

       1A    -15.555850     2A    -11.258278     3A    -11.249650
       4A    -11.235852     5A    -11.232067     6A    -11.228392
       7A    -11.225371     8A    -11.224210     9A    -11.223016
      10A    -11.214129    11A     -1.224698    12A     -1.130338
      13A     -1.054392    14A     -1.012256    15A     -0.945335
      16A     -0.922083    17A     -0.890865    18A     -0.793523
      19A     -0.781207    20A     -0.690962    21A     -0.660671
      22A     -0.629077    23A     -0.603234    24A     -0.591156
      25A     -0.578799    26A     -0.568468    27A     -0.565261
      28A     -0.556793    29A     -0.552113    30A     -0.529927
      31A     -0.521056    32A     -0.485194    33A     -0.476790
      34A     -0.470768    35A     -0.402095    36A     -0.317089
      37A     -0.302672

  @DF-RHF Final Energy:  -402.96064190082467

   => Energetics <=

    Nuclear Repulsion Energy =            521.2037499713673014
    One-Electron Energy =               -1578.5215085633833496
    Two-Electron Energy =                 654.3571166911915498
    Total Energy =                       -402.9606419008246121
  Basis Set: (AUG-CC-PVTZ AUX)
    Blend: AUG-CC-PVTZ-RI
    Molecular point group: c1

    Geometry (in Angstrom), charge = 0, multiplicity = 1:

       Center              X                  Y                   Z               Mass
    ------------   -----------------  -----------------  -----------------  -----------------
         N            1.665608047872     0.623883268723    -0.459864846968    14.003074004430
         C            0.341874047872     0.163500268723    -0.197162846968    12.000000000000
         C           -0.731830952128     1.071023268723    -0.074732846968    12.000000000000
         C            0.119376047872    -1.225602731277    -0.105664846968    12.000000000000
         C           -2.019140952128     0.573123268723     0.151132153032    12.000000000000
         C           -1.178829952128    -1.683990731277     0.143702153032    12.000000000000
         C           -2.246266952128    -0.797096731277     0.271589153032    12.000000000000
         C           -0.501916952128     2.557549268723    -0.189768846968    12.000000000000
         C            1.246004047872    -2.204859731277    -0.299797846968    12.000000000000
         C            2.541072047872     0.628104268723     0.719288153032    12.000000000000
         H           -2.849793952128     1.270978268723     0.244603153032     1.007825032230
         H           -1.355003952128    -2.756490731277     0.212502153032     1.007825032230
         H            1.629717047872     1.583543568723    -0.852096046968     1.007825032230
         H           -3.250828952128    -1.171237731277     0.454536153032     1.007825032230
         H            0.273891047872     2.903506268723     0.501889153032     1.007825032230
         H           -0.199250952128     2.851483268723    -1.202294846968     1.007825032230
         H           -1.420768952128     3.101747268723     0.043386153032     1.007825032230
         H            1.980345047872    -1.798714731277    -0.999948846968     1.007825032230
         H            1.765232047872    -2.426868731277     0.639594153032     1.007825032230
         H            0.862533047872    -3.151369731277    -0.691520846968     1.007825032230
         H            2.132317047872     1.198320268723     1.566636153032     1.007825032230
         H            3.506378047872     1.056776268723     0.436718153032     1.007825032230
         H            2.712232047872    -0.396685731277     1.051506153032     1.007825032230

  Basis Set: AUG-CC-PVTZ
    Blend: AUG-CC-PVTZ
  Basis Set: (AUG-CC-PVTZ AUX)
    Blend: AUG-CC-PVTZ-JKFIT
	 Reference Energy          =    -402.9606419008246689 [Eh]
	 Singles Energy            =      -0.0000000000000000 [Eh]
	 Same-Spin Energy          =      -0.4481531499231578 [Eh]
	 Opposite-Spin Energy      =      -1.4663460042859162 [Eh]
	 Correlation Energy        =      -1.9144991542090741 [Eh]
	 Total Energy              =    -404.8751410550337368 [Eh]

	 ================> DF-SCS-MP2 Energies <==================
	-----------------------------------------------------------
	 SCS Same-Spin Scale       =       0.3333333333333333 [-]
	 SCS Opposite-Spin Scale   =       1.2000000000000000 [-]
	 SCS Same-Spin Energy      =      -0.1493843833077192 [Eh]
	 SCS Opposite-Spin Energy  =      -1.7596152051430993 [Eh]
	 SCS Correlation Energy    =      -1.9089995884508186 [Eh]
	 SCS Total Energy          =    -404.8696414892754660 [Eh]
	-----------------------------------------------------------

  Dipole Moment: [D]
     X:     0.5381      Y:     1.0783      Z:     0.5181     Total:     1.3118

*** Psi4 exiting successfully. Buy a developer a beer!
