                               Psi4 1.4a3.dev225

  ==> Input File <==

--------------------------------------------------------------------------
#psi4
#
memory 32 gb

molecule  {
0 1
  N        1.6268380     0.6089620    -0.4693990
  C        0.3222319     0.1057126    -0.1901508
  C       -0.7706010     1.0561020    -0.0842670
  C        0.0806060    -1.2405240    -0.1151990
  C       -2.0579110     0.5582020     0.1415980
  C       -1.2176000    -1.6989120     0.1341680
  C       -2.2850370    -0.8120180     0.2620550
  C       -0.5406870     2.5426280    -0.1993030
  C        1.2072340    -2.2197810    -0.3093320
  C        2.5023020     0.6131830     0.7097540
  H       -2.8885640     1.2560570     0.2350690
  H       -1.3937740    -2.7714120     0.2029680
  H        1.5916390     1.5501200    -0.8540680
  H       -3.2895990    -1.1861590     0.4450020
  H        0.2351210     2.8885850     0.4923550
  H       -0.2380210     2.8365620    -1.2118290
  H       -1.4595390     3.0868260     0.0338520
  H        1.9415750    -1.8136360    -1.0094830
  H        1.7264620    -2.4417900     0.6300600
  H        0.8237630    -3.1662910    -0.7010550
  H        2.0935470     1.1833990     1.5571020
  H        3.4676080     1.0418550     0.4271840
  H        2.6734620    -0.4116070     1.0419720
units angstrom
no_reorient  #important for SAPT in psi4, default
symmetry c1  #important for SAPT in psi4, default
}

set PROPERTIES_ORIGIN ["COM"]
properties('MP2/aug-cc-pvtz', properties = ['dipole'])
--------------------------------------------------------------------------

    Molecular point group: c1
  Charge       = 0
  Multiplicity = 1
  Basis Set: AUG-CC-PVTZ
    Blend: AUG-CC-PVTZ
  Basis Set: (AUG-CC-PVTZ AUX)
    Blend: AUG-CC-PVTZ-JKFIT

    Orbital Energies [Eh]
    ---------------------

    Doubly Occupied:

       1A    -15.553448     2A    -11.258176     3A    -11.248932
       4A    -11.240192     5A    -11.229331     6A    -11.227437
       7A    -11.225304     8A    -11.224399     9A    -11.223471
      10A    -11.213384    11A     -1.226241    12A     -1.131075
      13A     -1.054933    14A     -1.012808    15A     -0.944642
      16A     -0.922084    17A     -0.892079    18A     -0.799049
      19A     -0.776161    20A     -0.694381    21A     -0.659147
      22A     -0.632757    23A     -0.602487    24A     -0.591299
      25A     -0.578009    26A     -0.569079    27A     -0.565482
      28A     -0.557042    29A     -0.552511    30A     -0.530826
      31A     -0.520386    32A     -0.482913    33A     -0.481802
      34A     -0.469859    35A     -0.399979    36A     -0.318275
      37A     -0.302203

  @DF-RHF Final Energy:  -402.95903720565667

   => Energetics <=

    Nuclear Repulsion Energy =            521.3768980055440352
    One-Electron Energy =               -1578.8487094063405038
    Two-Electron Energy =                 654.5127741951397411
    Total Energy =                       -402.9590372056567276
  Basis Set: (AUG-CC-PVTZ AUX)
    Blend: AUG-CC-PVTZ-RI
    Molecular point group: c1

    Geometry (in Angstrom), charge = 0, multiplicity = 1:

       Center              X                  Y                   Z               Mass
    ------------   -----------------  -----------------  -----------------  -----------------
         N            1.663903946938     0.627828679126    -0.461390890271    14.003074004430
         C            0.359297846938     0.124579279126    -0.182142690271    12.000000000000
         C           -0.733535053062     1.074968679126    -0.076258890271    12.000000000000
         C            0.117671946938    -1.221657320874    -0.107190890271    12.000000000000
         C           -2.020845053062     0.577068679126     0.149606109729    12.000000000000
         C           -1.180534053062    -1.680045320874     0.142176109729    12.000000000000
         C           -2.247971053062    -0.793151320874     0.270063109729    12.000000000000
         C           -0.503621053062     2.561494679126    -0.191294890271    12.000000000000
         C            1.244299946938    -2.200914320874    -0.301323890271    12.000000000000
         C            2.539367946938     0.632049679126     0.717762109729    12.000000000000
         H           -2.851498053062     1.274923679126     0.243077109729     1.007825032230
         H           -1.356708053062    -2.752545320874     0.210976109729     1.007825032230
         H            1.628704946938     1.568986679126    -0.846059890271     1.007825032230
         H           -3.252533053062    -1.167292320874     0.453010109729     1.007825032230
         H            0.272186946938     2.907451679126     0.500363109729     1.007825032230
         H           -0.200955053062     2.855428679126    -1.203820890271     1.007825032230
         H           -1.422473053062     3.105692679126     0.041860109729     1.007825032230
         H            1.978640946938    -1.794769320874    -1.001474890271     1.007825032230
         H            1.763527946938    -2.422923320874     0.638068109729     1.007825032230
         H            0.860828946938    -3.147424320874    -0.693046890271     1.007825032230
         H            2.130612946938     1.202265679126     1.565110109729     1.007825032230
         H            3.504673946938     1.060721679126     0.435192109729     1.007825032230
         H            2.710527946938    -0.392740320874     1.049980109729     1.007825032230

  Basis Set: AUG-CC-PVTZ
    Blend: AUG-CC-PVTZ
  Basis Set: (AUG-CC-PVTZ AUX)
    Blend: AUG-CC-PVTZ-JKFIT
	 Reference Energy          =    -402.9590372056566707 [Eh]
	 Singles Energy            =      -0.0000000000000000 [Eh]
	 Same-Spin Energy          =      -0.4479043812372017 [Eh]
	 Opposite-Spin Energy      =      -1.4659785797810978 [Eh]
	 Correlation Energy        =      -1.9138829610182995 [Eh]
	 Total Energy              =    -404.8729201666749873 [Eh]

	 ================> DF-SCS-MP2 Energies <==================
	-----------------------------------------------------------
	 SCS Same-Spin Scale       =       0.3333333333333333 [-]
	 SCS Opposite-Spin Scale   =       1.2000000000000000 [-]
	 SCS Same-Spin Energy      =      -0.1493014604124006 [Eh]
	 SCS Opposite-Spin Energy  =      -1.7591742957373173 [Eh]
	 SCS Correlation Energy    =      -1.9084757561497179 [Eh]
	 SCS Total Energy          =    -404.8675129618063693 [Eh]
	-----------------------------------------------------------

  Dipole Moment: [D]
     X:     0.5125      Y:     1.0850      Z:     0.5088     Total:     1.3034

*** Psi4 exiting successfully. Buy a developer a beer!
