                               Psi4 1.4a3.dev225

  ==> Input File <==

--------------------------------------------------------------------------
#psi4
#
memory 32 gb

molecule  {
0 1
  N        1.6268380     0.6089620    -0.4693990
  C        0.3031040     0.1485790    -0.2066970
  C       -0.7706010     1.0561020    -0.0842670
  C        0.0806060    -1.2405240    -0.1151990
  C       -2.0579110     0.5582020     0.1415980
  C       -1.2176000    -1.6989120     0.1341680
  C       -2.2850370    -0.8120180     0.2620550
  C       -0.5406870     2.5426280    -0.1993030
  C        1.2072340    -2.2197810    -0.3093320
  C        2.5023020     0.6131830     0.7097540
  H       -2.8885640     1.2560570     0.2350690
  H       -1.3937740    -2.7714120     0.2029680
  H        1.5916390     1.5501200    -0.8540680
  H       -3.2895990    -1.1861590     0.4450020
  H        0.2351210     2.8885850     0.4923550
  H       -0.2380210     2.8365620    -1.2118290
  H       -1.4595390     3.0868260     0.0338520
  H        1.9550740    -1.8154774    -0.9961331
  H        1.7264620    -2.4417900     0.6300600
  H        0.8237630    -3.1662910    -0.7010550
  H        2.0935470     1.1833990     1.5571020
  H        3.4676080     1.0418550     0.4271840
  H        2.6734620    -0.4116070     1.0419720
units angstrom
no_reorient  #important for SAPT in psi4, default
symmetry c1  #important for SAPT in psi4, default
}

set PROPERTIES_ORIGIN ["COM"]
properties('MP2/aug-cc-pvtz', properties = ['dipole'])
--------------------------------------------------------------------------

    Molecular point group: c1
  Charge       = 0
  Multiplicity = 1
  Basis Set: AUG-CC-PVTZ
    Blend: AUG-CC-PVTZ
  Basis Set: (AUG-CC-PVTZ AUX)
    Blend: AUG-CC-PVTZ-JKFIT

    Orbital Energies [Eh]
    ---------------------

    Doubly Occupied:

       1A    -15.553803     2A    -11.258244     3A    -11.249690
       4A    -11.235908     5A    -11.232174     6A    -11.228388
       7A    -11.225415     8A    -11.224268     9A    -11.223081
      10A    -11.214158    11A     -1.226563    12A     -1.130867
      13A     -1.054392    14A     -1.012406    15A     -0.945414
      16A     -0.922204    17A     -0.892105    18A     -0.794674
      19A     -0.781410    20A     -0.692601    21A     -0.660919
      22A     -0.629514    23A     -0.603492    24A     -0.591567
      25A     -0.578965    26A     -0.568425    27A     -0.564982
      28A     -0.556739    29A     -0.552216    30A     -0.530688
      31A     -0.521461    32A     -0.485654    33A     -0.477063
      34A     -0.470737    35A     -0.402504    36A     -0.317070
      37A     -0.302746

  @DF-RHF Final Energy:  -402.96172925433063

   => Energetics <=

    Nuclear Repulsion Energy =            521.3037076193775192
    One-Electron Energy =               -1578.7058548923826038
    Two-Electron Energy =                 654.4404180186744497
    Total Energy =                       -402.9617292543306348
  Basis Set: (AUG-CC-PVTZ AUX)
    Blend: AUG-CC-PVTZ-RI
    Molecular point group: c1

    Geometry (in Angstrom), charge = 0, multiplicity = 1:

       Center              X                  Y                   Z               Mass
    ------------   -----------------  -----------------  -----------------  -----------------
         N            1.665502188975     0.624035024176    -0.460020842446    14.003074004430
         C            0.341768188975     0.163652024176    -0.197318842446    12.000000000000
         C           -0.731936811025     1.071175024176    -0.074888842446    12.000000000000
         C            0.119270188975    -1.225450975824    -0.105820842446    12.000000000000
         C           -2.019246811025     0.573275024176     0.150976157554    12.000000000000
         C           -1.178935811025    -1.683838975824     0.143546157554    12.000000000000
         C           -2.246372811025    -0.796944975824     0.271433157554    12.000000000000
         C           -0.502022811025     2.557701024176    -0.189924842446    12.000000000000
         C            1.245898188975    -2.204707975824    -0.299953842446    12.000000000000
         C            2.540966188975     0.628256024176     0.719132157554    12.000000000000
         H           -2.849899811025     1.271130024176     0.244447157554     1.007825032230
         H           -1.355109811025    -2.756338975824     0.212346157554     1.007825032230
         H            1.630303188975     1.565193024176    -0.844689842446     1.007825032230
         H           -3.250934811025    -1.171085975824     0.454380157554     1.007825032230
         H            0.273785188975     2.903658024176     0.501733157554     1.007825032230
         H           -0.199356811025     2.851635024176    -1.202450842446     1.007825032230
         H           -1.420874811025     3.101899024176     0.043230157554     1.007825032230
         H            1.993738188975    -1.800404375824    -0.986754942446     1.007825032230
         H            1.765126188975    -2.426716975824     0.639438157554     1.007825032230
         H            0.862427188975    -3.151217975824    -0.691676842446     1.007825032230
         H            2.132211188975     1.198472024176     1.566480157554     1.007825032230
         H            3.506272188975     1.056928024176     0.436562157554     1.007825032230
         H            2.712126188975    -0.396533975824     1.051350157554     1.007825032230

  Basis Set: AUG-CC-PVTZ
    Blend: AUG-CC-PVTZ
  Basis Set: (AUG-CC-PVTZ AUX)
    Blend: AUG-CC-PVTZ-JKFIT
	 Reference Energy          =    -402.9617292543306348 [Eh]
	 Singles Energy            =      -0.0000000000000000 [Eh]
	 Same-Spin Energy          =      -0.4479938572105634 [Eh]
	 Opposite-Spin Energy      =      -1.4659138122451112 [Eh]
	 Correlation Energy        =      -1.9139076694556745 [Eh]
	 Total Energy              =    -404.8756369237863169 [Eh]

	 ================> DF-SCS-MP2 Energies <==================
	-----------------------------------------------------------
	 SCS Same-Spin Scale       =       0.3333333333333333 [-]
	 SCS Opposite-Spin Scale   =       1.2000000000000000 [-]
	 SCS Same-Spin Energy      =      -0.1493312857368544 [Eh]
	 SCS Opposite-Spin Energy  =      -1.7590965746941334 [Eh]
	 SCS Correlation Energy    =      -1.9084278604309879 [Eh]
	 SCS Total Energy          =    -404.8701571147616391 [Eh]
	-----------------------------------------------------------

  Dipole Moment: [D]
     X:     0.5425      Y:     1.0740      Z:     0.5239     Total:     1.3123

*** Psi4 exiting successfully. Buy a developer a beer!
