                               Psi4 1.4a3.dev225

  ==> Input File <==

--------------------------------------------------------------------------
#psi4
#
memory 32 gb

molecule  {
0 1
  N        1.6268380     0.6089620    -0.4693990
  C        0.3031040     0.1485790    -0.2066970
  C       -0.7706010     1.0561020    -0.0842670
  C        0.0806060    -1.2405240    -0.1151990
  C       -2.0579110     0.5582020     0.1415980
  C       -1.2176000    -1.6989120     0.1341680
  C       -2.2850370    -0.8120180     0.2620550
  C       -0.5406870     2.5426280    -0.1993030
  C        1.2072340    -2.2197810    -0.3093320
  C        2.5023020     0.6131830     0.7097540
  H       -2.8885640     1.2560570     0.2350690
  H       -1.4018624    -2.8206522     0.2061267
  H        1.5916390     1.5501200    -0.8540680
  H       -3.2895990    -1.1861590     0.4450020
  H        0.2351210     2.8885850     0.4923550
  H       -0.2380210     2.8365620    -1.2118290
  H       -1.4595390     3.0868260     0.0338520
  H        1.9415750    -1.8136360    -1.0094830
  H        1.7264620    -2.4417900     0.6300600
  H        0.8237630    -3.1662910    -0.7010550
  H        2.0935470     1.1833990     1.5571020
  H        3.4676080     1.0418550     0.4271840
  H        2.6734620    -0.4116070     1.0419720
units angstrom
no_reorient  #important for SAPT in psi4, default
symmetry c1  #important for SAPT in psi4, default
}

set PROPERTIES_ORIGIN ["COM"]
properties('MP2/aug-cc-pvtz', properties = ['dipole'])
--------------------------------------------------------------------------

    Molecular point group: c1
  Charge       = 0
  Multiplicity = 1
  Basis Set: AUG-CC-PVTZ
    Blend: AUG-CC-PVTZ
  Basis Set: (AUG-CC-PVTZ AUX)
    Blend: AUG-CC-PVTZ-JKFIT

    Orbital Energies [Eh]
    ---------------------

    Doubly Occupied:

       1A    -15.554027     2A    -11.258657     3A    -11.249772
       4A    -11.236138     5A    -11.232668     6A    -11.229258
       7A    -11.228560     8A    -11.225754     9A    -11.224369
      10A    -11.214090    11A     -1.226795    12A     -1.130861
      13A     -1.054102    14A     -1.012519    15A     -0.945380
      16A     -0.920751    17A     -0.892275    18A     -0.793143
      19A     -0.781241    20A     -0.689315    21A     -0.660294
      22A     -0.629727    23A     -0.603130    24A     -0.591643
      25A     -0.577053    26A     -0.568763    27A     -0.565431
      28A     -0.554910    29A     -0.551012    30A     -0.530913
      31A     -0.520450    32A     -0.485549    33A     -0.475538
      34A     -0.471122    35A     -0.402670    36A     -0.317409
      37A     -0.303067

  @DF-RHF Final Energy:  -402.95928470666524

   => Energetics <=

    Nuclear Repulsion Energy =            521.0588355443060209
    One-Electron Energy =               -1578.2195319290763109
    Two-Electron Energy =                 654.2014116781050461
    Total Energy =                       -402.9592847066652439
  Basis Set: (AUG-CC-PVTZ AUX)
    Blend: AUG-CC-PVTZ-RI
    Molecular point group: c1

    Geometry (in Angstrom), charge = 0, multiplicity = 1:

       Center              X                  Y                   Z               Mass
    ------------   -----------------  -----------------  -----------------  -----------------
         N            1.665663221908     0.624388599307    -0.459944820377    14.003074004430
         C            0.341929221908     0.164005599307    -0.197242820377    12.000000000000
         C           -0.731775778092     1.071528599307    -0.074812820377    12.000000000000
         C            0.119431221908    -1.225097400693    -0.105744820377    12.000000000000
         C           -2.019085778092     0.573628599307     0.151052179623    12.000000000000
         C           -1.178774778092    -1.683485400693     0.143622179623    12.000000000000
         C           -2.246211778092    -0.796591400693     0.271509179623    12.000000000000
         C           -0.501861778092     2.558054599307    -0.189848820377    12.000000000000
         C            1.246059221908    -2.204354400693    -0.299877820377    12.000000000000
         C            2.541127221908     0.628609599307     0.719208179623    12.000000000000
         H           -2.849738778092     1.271483599307     0.244523179623     1.007825032230
         H           -1.363037178092    -2.805225600693     0.215580879623     1.007825032230
         H            1.630464221908     1.565546599307    -0.844613820377     1.007825032230
         H           -3.250773778092    -1.170732400693     0.454456179623     1.007825032230
         H            0.273946221908     2.904011599307     0.501809179623     1.007825032230
         H           -0.199195778092     2.851988599307    -1.202374820377     1.007825032230
         H           -1.420713778092     3.102252599307     0.043306179623     1.007825032230
         H            1.980400221908    -1.798209400693    -1.000028820377     1.007825032230
         H            1.765287221908    -2.426363400693     0.639514179623     1.007825032230
         H            0.862588221908    -3.150864400693    -0.691600820377     1.007825032230
         H            2.132372221908     1.198825599307     1.566556179623     1.007825032230
         H            3.506433221908     1.057281599307     0.436638179623     1.007825032230
         H            2.712287221908    -0.396180400693     1.051426179623     1.007825032230

  Basis Set: AUG-CC-PVTZ
    Blend: AUG-CC-PVTZ
  Basis Set: (AUG-CC-PVTZ AUX)
    Blend: AUG-CC-PVTZ-JKFIT
	 Reference Energy          =    -402.9592847066652439 [Eh]
	 Singles Energy            =      -0.0000000000000000 [Eh]
	 Same-Spin Energy          =      -0.4481092778044607 [Eh]
	 Opposite-Spin Energy      =      -1.4663508406361010 [Eh]
	 Correlation Energy        =      -1.9144601184405616 [Eh]
	 Total Energy              =    -404.8737448251058026 [Eh]

	 ================> DF-SCS-MP2 Energies <==================
	-----------------------------------------------------------
	 SCS Same-Spin Scale       =       0.3333333333333333 [-]
	 SCS Opposite-Spin Scale   =       1.2000000000000000 [-]
	 SCS Same-Spin Energy      =      -0.1493697592681535 [Eh]
	 SCS Opposite-Spin Energy  =      -1.7596210087633211 [Eh]
	 SCS Correlation Energy    =      -1.9089907680314746 [Eh]
	 SCS Total Energy          =    -404.8682754746967021 [Eh]
	-----------------------------------------------------------

  Dipole Moment: [D]
     X:     0.5446      Y:     1.0996      Z:     0.5191     Total:     1.3324

*** Psi4 exiting successfully. Buy a developer a beer!
