                               Psi4 1.4a3.dev225

  ==> Input File <==

--------------------------------------------------------------------------
#psi4
#
memory 32 gb

molecule  {
0 1
  N        1.6268380     0.6089620    -0.4693990
  C        0.3031040     0.1485790    -0.2066970
  C       -0.7706010     1.0561020    -0.0842670
  C        0.0806060    -1.2405240    -0.1151990
  C       -2.0579110     0.5582020     0.1415980
  C       -1.2176000    -1.6989120     0.1341680
  C       -2.2850370    -0.8120180     0.2620550
  C       -0.5406870     2.5426280    -0.1993030
  C        1.2072340    -2.2197810    -0.3093320
  C        2.5023020     0.6131830     0.7097540
  H       -2.8885640     1.2560570     0.2350690
  H       -1.3937740    -2.7714120     0.2029680
  H        1.5916390     1.5501200    -0.8540680
  H       -3.2895990    -1.1861590     0.4450020
  H        0.2351210     2.8885850     0.4923550
  H       -0.2932062     2.7829689    -1.0272149
  H       -1.4595390     3.0868260     0.0338520
  H        1.9415750    -1.8136360    -1.0094830
  H        1.7264620    -2.4417900     0.6300600
  H        0.8237630    -3.1662910    -0.7010550
  H        2.0935470     1.1833990     1.5571020
  H        3.4676080     1.0418550     0.4271840
  H        2.6734620    -0.4116070     1.0419720
units angstrom
no_reorient  #important for SAPT in psi4, default
symmetry c1  #important for SAPT in psi4, default
}

set PROPERTIES_ORIGIN ["COM"]
properties('MP2/aug-cc-pvtz', properties = ['dipole'])
--------------------------------------------------------------------------

    Molecular point group: c1
  Charge       = 0
  Multiplicity = 1
  Basis Set: AUG-CC-PVTZ
    Blend: AUG-CC-PVTZ
  Basis Set: (AUG-CC-PVTZ AUX)
    Blend: AUG-CC-PVTZ-JKFIT

    Orbital Energies [Eh]
    ---------------------

    Doubly Occupied:

       1A    -15.554255     2A    -11.257677     3A    -11.249603
       4A    -11.234621     5A    -11.231673     6A    -11.224590
       7A    -11.223512     8A    -11.222406     9A    -11.213920
      10A    -11.203398    11A     -1.226791    12A     -1.130749
      13A     -1.059633    14A     -1.015523    15A     -0.955678
      16A     -0.927452    17A     -0.892573    18A     -0.798592
      19A     -0.781611    20A     -0.694299    21A     -0.660230
      22A     -0.631441    23A     -0.618007    24A     -0.597567
      25A     -0.580301    26A     -0.575089    27A     -0.568593
      28A     -0.557911    29A     -0.551600    30A     -0.530676
      31A     -0.521002    32A     -0.484786    33A     -0.477801
      34A     -0.471265    35A     -0.402521    36A     -0.317214
      37A     -0.302654

  @DF-RHF Final Energy:  -402.92857214751757

   => Energetics <=

    Nuclear Repulsion Energy =            522.3243432573360678
    One-Electron Energy =               -1580.6114061217347171
    Two-Electron Energy =                 655.3584907168810787
    Total Energy =                       -402.9285721475175706
  Basis Set: (AUG-CC-PVTZ AUX)
    Blend: AUG-CC-PVTZ-RI
    Molecular point group: c1

    Geometry (in Angstrom), charge = 0, multiplicity = 1:

       Center              X                  Y                   Z               Mass
    ------------   -----------------  -----------------  -----------------  -----------------
         N            1.666014544246     0.624421070112    -0.461298401413    14.003074004430
         C            0.342280544246     0.164038070112    -0.198596401413    12.000000000000
         C           -0.731424455754     1.071561070112    -0.076166401413    12.000000000000
         C            0.119782544246    -1.225064929888    -0.107098401413    12.000000000000
         C           -2.018734455754     0.573661070112     0.149698598587    12.000000000000
         C           -1.178423455754    -1.683452929888     0.142268598587    12.000000000000
         C           -2.245860455754    -0.796558929888     0.270155598587    12.000000000000
         C           -0.501510455754     2.558087070112    -0.191202401413    12.000000000000
         C            1.246410544246    -2.204321929888    -0.301231401413    12.000000000000
         C            2.541478544246     0.628642070112     0.717854598587    12.000000000000
         H           -2.849387455754     1.271516070112     0.243169598587     1.007825032230
         H           -1.354597455754    -2.755952929888     0.211068598587     1.007825032230
         H            1.630815544246     1.565579070112    -0.845967401413     1.007825032230
         H           -3.250422455754    -1.170699929888     0.453102598587     1.007825032230
         H            0.274297544246     2.904044070112     0.500455598587     1.007825032230
         H           -0.254029655754     2.798427970112    -1.019114301413     1.007825032230
         H           -1.420362455754     3.102285070112     0.041952598587     1.007825032230
         H            1.980751544246    -1.798176929888    -1.001382401413     1.007825032230
         H            1.765638544246    -2.426330929888     0.638160598587     1.007825032230
         H            0.862939544246    -3.150831929888    -0.692954401413     1.007825032230
         H            2.132723544246     1.198858070112     1.565202598587     1.007825032230
         H            3.506784544246     1.057314070112     0.435284598587     1.007825032230
         H            2.712638544246    -0.396147929888     1.050072598587     1.007825032230

  Basis Set: AUG-CC-PVTZ
    Blend: AUG-CC-PVTZ
  Basis Set: (AUG-CC-PVTZ AUX)
    Blend: AUG-CC-PVTZ-JKFIT
	 Reference Energy          =    -402.9285721475175706 [Eh]
	 Singles Energy            =      -0.0000000000000000 [Eh]
	 Same-Spin Energy          =      -0.4480352876652454 [Eh]
	 Opposite-Spin Energy      =      -1.4652648181785199 [Eh]
	 Correlation Energy        =      -1.9133001058437653 [Eh]
	 Total Energy              =    -404.8418722533613163 [Eh]

	 ================> DF-SCS-MP2 Energies <==================
	-----------------------------------------------------------
	 SCS Same-Spin Scale       =       0.3333333333333333 [-]
	 SCS Opposite-Spin Scale   =       1.2000000000000000 [-]
	 SCS Same-Spin Energy      =      -0.1493450958884151 [Eh]
	 SCS Opposite-Spin Energy  =      -1.7583177818142239 [Eh]
	 SCS Correlation Energy    =      -1.9076628777026390 [Eh]
	 SCS Total Energy          =    -404.8362350252202191 [Eh]
	-----------------------------------------------------------

  Dipole Moment: [D]
     X:     0.5704      Y:     1.1283      Z:     0.4666     Total:     1.3477

*** Psi4 exiting successfully. Buy a developer a beer!
