                               Psi4 1.4a3.dev225

  ==> Input File <==

--------------------------------------------------------------------------
#psi4
#
memory 32 gb

molecule  {
0 1
  N        1.6268380     0.6089620    -0.4693990
  C        0.3031040     0.1485790    -0.2066970
  C       -0.7706010     1.0561020    -0.0842670
  C        0.0806060    -1.2405240    -0.1151990
  C       -2.0579110     0.5582020     0.1415980
  C       -1.2176000    -1.6989120     0.1341680
  C       -2.2850370    -0.8120180     0.2620550
  C       -0.5406870     2.5426280    -0.1993030
  C        1.2072340    -2.2197810    -0.3093320
  C        2.5023020     0.6131830     0.7097540
  H       -2.8885640     1.2560570     0.2350690
  H       -1.3905386    -2.7517159     0.2017045
  H        1.5916390     1.5501200    -0.8540680
  H       -3.2895990    -1.1861590     0.4450020
  H        0.2351210     2.8885850     0.4923550
  H       -0.2380210     2.8365620    -1.2118290
  H       -1.4595390     3.0868260     0.0338520
  H        1.9415750    -1.8136360    -1.0094830
  H        1.7264620    -2.4417900     0.6300600
  H        0.8237630    -3.1662910    -0.7010550
  H        2.0935470     1.1833990     1.5571020
  H        3.4676080     1.0418550     0.4271840
  H        2.6734620    -0.4116070     1.0419720
units angstrom
no_reorient  #important for SAPT in psi4, default
symmetry c1  #important for SAPT in psi4, default
}

set PROPERTIES_ORIGIN ["COM"]
properties('MP2/aug-cc-pvtz', properties = ['dipole'])
--------------------------------------------------------------------------

    Molecular point group: c1
  Charge       = 0
  Multiplicity = 1
  Basis Set: AUG-CC-PVTZ
    Blend: AUG-CC-PVTZ
  Basis Set: (AUG-CC-PVTZ AUX)
    Blend: AUG-CC-PVTZ-JKFIT

    Orbital Energies [Eh]
    ---------------------

    Doubly Occupied:

       1A    -15.553713     2A    -11.258059     3A    -11.249592
       4A    -11.235808     5A    -11.231821     6A    -11.228316
       7A    -11.225196     8A    -11.223828     9A    -11.220850
      10A    -11.214143    11A     -1.226465    12A     -1.130864
      13A     -1.054563    14A     -1.012395    15A     -0.945380
      16A     -0.922801    17A     -0.891988    18A     -0.795380
      19A     -0.781281    20A     -0.694047    21A     -0.660897
      22A     -0.629453    23A     -0.603698    24A     -0.591489
      25A     -0.579688    26A     -0.568890    27A     -0.565240
      28A     -0.557628    29A     -0.552372    30A     -0.530649
      31A     -0.521230    32A     -0.485271    33A     -0.477522
      34A     -0.470739    35A     -0.402400    36A     -0.316979
      37A     -0.302625

  @DF-RHF Final Energy:  -402.96189735135476

   => Energetics <=

    Nuclear Repulsion Energy =            521.4195421792004481
    One-Electron Energy =               -1578.9363591514129439
    Two-Electron Energy =                 654.5549196208576177
    Total Energy =                       -402.9618973513547644
  Basis Set: (AUG-CC-PVTZ AUX)
    Blend: AUG-CC-PVTZ-RI
    Molecular point group: c1

    Geometry (in Angstrom), charge = 0, multiplicity = 1:

       Center              X                  Y                   Z               Mass
    ------------   -----------------  -----------------  -----------------  -----------------
         N            1.665578751119     0.623874363476    -0.459911832623    14.003074004430
         C            0.341844751119     0.163491363476    -0.197209832623    12.000000000000
         C           -0.731860248881     1.071014363476    -0.074779832623    12.000000000000
         C            0.119346751119    -1.225611636524    -0.105711832623    12.000000000000
         C           -2.019170248881     0.573114363476     0.151085167377    12.000000000000
         C           -1.178859248881    -1.683999636524     0.143655167377    12.000000000000
         C           -2.246296248881    -0.797105636524     0.271542167377    12.000000000000
         C           -0.501946248881     2.557540363476    -0.189815832623    12.000000000000
         C            1.245974751119    -2.204868636524    -0.299844832623    12.000000000000
         C            2.541042751119     0.628095363476     0.719241167377    12.000000000000
         H           -2.849823248881     1.270969363476     0.244556167377     1.007825032230
         H           -1.351797848881    -2.736803536524     0.211191667377     1.007825032230
         H            1.630379751119     1.565032363476    -0.844580832623     1.007825032230
         H           -3.250858248881    -1.171246636524     0.454489167377     1.007825032230
         H            0.273861751119     2.903497363476     0.501842167377     1.007825032230
         H           -0.199280248881     2.851474363476    -1.202341832623     1.007825032230
         H           -1.420798248881     3.101738363476     0.043339167377     1.007825032230
         H            1.980315751119    -1.798723636524    -0.999995832623     1.007825032230
         H            1.765202751119    -2.426877636524     0.639547167377     1.007825032230
         H            0.862503751119    -3.151378636524    -0.691567832623     1.007825032230
         H            2.132287751119     1.198311363476     1.566589167377     1.007825032230
         H            3.506348751119     1.056767363476     0.436671167377     1.007825032230
         H            2.712202751119    -0.396694636524     1.051459167377     1.007825032230

  Basis Set: AUG-CC-PVTZ
    Blend: AUG-CC-PVTZ
  Basis Set: (AUG-CC-PVTZ AUX)
    Blend: AUG-CC-PVTZ-JKFIT
	 Reference Energy          =    -402.9618973513547644 [Eh]
	 Singles Energy            =      -0.0000000000000000 [Eh]
	 Same-Spin Energy          =      -0.4479494586465276 [Eh]
	 Opposite-Spin Energy      =      -1.4657771497625045 [Eh]
	 Correlation Energy        =      -1.9137266084090321 [Eh]
	 Total Energy              =    -404.8756239597638000 [Eh]

	 ================> DF-SCS-MP2 Energies <==================
	-----------------------------------------------------------
	 SCS Same-Spin Scale       =       0.3333333333333333 [-]
	 SCS Opposite-Spin Scale   =       1.2000000000000000 [-]
	 SCS Same-Spin Energy      =      -0.1493164862155092 [Eh]
	 SCS Opposite-Spin Energy  =      -1.7589325797150053 [Eh]
	 SCS Correlation Energy    =      -1.9082490659305145 [Eh]
	 SCS Total Energy          =    -404.8701464172852980 [Eh]
	-----------------------------------------------------------

  Dipole Moment: [D]
     X:     0.5370      Y:     1.0630      Z:     0.5210     Total:     1.2999

*** Psi4 exiting successfully. Buy a developer a beer!
