                               Psi4 1.4a3.dev225

  ==> Input File <==

--------------------------------------------------------------------------
#psi4
#
memory 32 gb

molecule  {
0 1
  N        1.6268380     0.6089620    -0.4693990
  C        0.3031040     0.1485790    -0.2066970
  C       -0.7706010     1.0561020    -0.0842670
  C        0.0806060    -1.2405240    -0.1151990
  C       -2.0579110     0.5582020     0.1415980
  C       -1.2176000    -1.6989120     0.1341680
  C       -2.2850370    -0.8120180     0.2620550
  C       -0.5406870     2.5426280    -0.1993030
  C        1.2072340    -2.2197810    -0.3093320
  C        2.4903798     0.6131255     0.6936961
  H       -2.8885640     1.2560570     0.2350690
  H       -1.3937740    -2.7714120     0.2029680
  H        1.5916390     1.5501200    -0.8540680
  H       -3.2895990    -1.1861590     0.4450020
  H        0.2351210     2.8885850     0.4923550
  H       -0.2380210     2.8365620    -1.2118290
  H       -1.4595390     3.0868260     0.0338520
  H        1.9415750    -1.8136360    -1.0094830
  H        1.7264620    -2.4417900     0.6300600
  H        0.8237630    -3.1662910    -0.7010550
  H        2.0935470     1.1833990     1.5571020
  H        3.4676080     1.0418550     0.4271840
  H        2.6734620    -0.4116070     1.0419720
units angstrom
no_reorient  #important for SAPT in psi4, default
symmetry c1  #important for SAPT in psi4, default
}

set PROPERTIES_ORIGIN ["COM"]
properties('MP2/aug-cc-pvtz', properties = ['dipole'])
--------------------------------------------------------------------------

    Molecular point group: c1
  Charge       = 0
  Multiplicity = 1
  Basis Set: AUG-CC-PVTZ
    Blend: AUG-CC-PVTZ
  Basis Set: (AUG-CC-PVTZ AUX)
    Blend: AUG-CC-PVTZ-JKFIT

    Orbital Energies [Eh]
    ---------------------

    Doubly Occupied:

       1A    -15.554047     2A    -11.258672     3A    -11.249995
       4A    -11.236360     5A    -11.232471     6A    -11.228625
       7A    -11.225696     8A    -11.224543     9A    -11.223306
      10A    -11.214293    11A     -1.230683    12A     -1.132173
      13A     -1.054729    14A     -1.013210    15A     -0.945295
      16A     -0.922364    17A     -0.890454    18A     -0.795309
      19A     -0.781650    20A     -0.693767    21A     -0.661789
      22A     -0.630077    23A     -0.606907    24A     -0.590667
      25A     -0.579043    26A     -0.569225    27A     -0.565964
      28A     -0.556902    29A     -0.552889    30A     -0.527277
      31A     -0.521182    32A     -0.485061    33A     -0.476862
      34A     -0.471297    35A     -0.401432    36A     -0.317361
      37A     -0.303517

  @DF-RHF Final Energy:  -402.96135128829872

   => Energetics <=

    Nuclear Repulsion Energy =            521.6733567545522874
    One-Electron Energy =               -1579.4192222157682863
    Two-Electron Energy =                 654.7845141729172838
    Total Energy =                       -402.9613512882987152
  Basis Set: (AUG-CC-PVTZ AUX)
    Blend: AUG-CC-PVTZ-RI
    Molecular point group: c1

    Geometry (in Angstrom), charge = 0, multiplicity = 1:

       Center              X                  Y                   Z               Mass
    ------------   -----------------  -----------------  -----------------  -----------------
         N            1.666661814916     0.624026395253    -0.458494996109    14.003074004430
         C            0.342927814916     0.163643395253    -0.195792996109    12.000000000000
         C           -0.730777185084     1.071166395253    -0.073362996109    12.000000000000
         C            0.120429814916    -1.225459604747    -0.104294996109    12.000000000000
         C           -2.018087185084     0.573266395253     0.152502003891    12.000000000000
         C           -1.177776185084    -1.683847604747     0.145072003891    12.000000000000
         C           -2.245213185084    -0.796953604747     0.272959003891    12.000000000000
         C           -0.500863185084     2.557692395253    -0.188398996109    12.000000000000
         C            1.247057814916    -2.204716604747    -0.298427996109    12.000000000000
         C            2.530203614916     0.628189895253     0.704600103891    12.000000000000
         H           -2.848740185084     1.271121395253     0.245973003891     1.007825032230
         H           -1.353950185084    -2.756347604747     0.213872003891     1.007825032230
         H            1.631462814916     1.565184395253    -0.843163996109     1.007825032230
         H           -3.249775185084    -1.171094604747     0.455906003891     1.007825032230
         H            0.274944814916     2.903649395253     0.503259003891     1.007825032230
         H           -0.198197185084     2.851626395253    -1.200924996109     1.007825032230
         H           -1.419715185084     3.101890395253     0.044756003891     1.007825032230
         H            1.981398814916    -1.798571604747    -0.998578996109     1.007825032230
         H            1.766285814916    -2.426725604747     0.640964003891     1.007825032230
         H            0.863586814916    -3.151226604747    -0.690150996109     1.007825032230
         H            2.133370814916     1.198463395253     1.568006003891     1.007825032230
         H            3.507431814916     1.056919395253     0.438088003891     1.007825032230
         H            2.713285814916    -0.396542604747     1.052876003891     1.007825032230

  Basis Set: AUG-CC-PVTZ
    Blend: AUG-CC-PVTZ
  Basis Set: (AUG-CC-PVTZ AUX)
    Blend: AUG-CC-PVTZ-JKFIT
	 Reference Energy          =    -402.9613512882987152 [Eh]
	 Singles Energy            =      -0.0000000000000000 [Eh]
	 Same-Spin Energy          =      -0.4480904606526094 [Eh]
	 Opposite-Spin Energy      =      -1.4659049890950111 [Eh]
	 Correlation Energy        =      -1.9139954497476206 [Eh]
	 Total Energy              =    -404.8753467380463462 [Eh]

	 ================> DF-SCS-MP2 Energies <==================
	-----------------------------------------------------------
	 SCS Same-Spin Scale       =       0.3333333333333333 [-]
	 SCS Opposite-Spin Scale   =       1.2000000000000000 [-]
	 SCS Same-Spin Energy      =      -0.1493634868842031 [Eh]
	 SCS Opposite-Spin Energy  =      -1.7590859869140132 [Eh]
	 SCS Correlation Energy    =      -1.9084494737982163 [Eh]
	 SCS Total Energy          =    -404.8698007620969292 [Eh]
	-----------------------------------------------------------

  Dipole Moment: [D]
     X:     0.4964      Y:     1.0618      Z:     0.4815     Total:     1.2672

*** Psi4 exiting successfully. Buy a developer a beer!
