                               Psi4 1.4a3.dev225

  ==> Input File <==

--------------------------------------------------------------------------
#psi4
#
memory 32 gb

molecule  {
0 1
  N        1.6268380     0.6089620    -0.4693990
  C        0.3031040     0.1485790    -0.2066970
  C       -0.7706010     1.0561020    -0.0842670
  C        0.0923775    -1.2240204    -0.1319108
  C       -2.0579110     0.5582020     0.1415980
  C       -1.2176000    -1.6989120     0.1341680
  C       -2.2850370    -0.8120180     0.2620550
  C       -0.5406870     2.5426280    -0.1993030
  C        1.2072340    -2.2197810    -0.3093320
  C        2.5023020     0.6131830     0.7097540
  H       -2.8885640     1.2560570     0.2350690
  H       -1.3937740    -2.7714120     0.2029680
  H        1.5916390     1.5501200    -0.8540680
  H       -3.2895990    -1.1861590     0.4450020
  H        0.2351210     2.8885850     0.4923550
  H       -0.2380210     2.8365620    -1.2118290
  H       -1.4595390     3.0868260     0.0338520
  H        1.9415750    -1.8136360    -1.0094830
  H        1.7264620    -2.4417900     0.6300600
  H        0.8237630    -3.1662910    -0.7010550
  H        2.0935470     1.1833990     1.5571020
  H        3.4676080     1.0418550     0.4271840
  H        2.6734620    -0.4116070     1.0419720
units angstrom
no_reorient  #important for SAPT in psi4, default
symmetry c1  #important for SAPT in psi4, default
}

set PROPERTIES_ORIGIN ["COM"]
properties('MP2/aug-cc-pvtz', properties = ['dipole'])
--------------------------------------------------------------------------

    Molecular point group: c1
  Charge       = 0
  Multiplicity = 1
  Basis Set: AUG-CC-PVTZ
    Blend: AUG-CC-PVTZ
  Basis Set: (AUG-CC-PVTZ AUX)
    Blend: AUG-CC-PVTZ-JKFIT

    Orbital Energies [Eh]
    ---------------------

    Doubly Occupied:

       1A    -15.552953     2A    -11.256029     3A    -11.249324
       4A    -11.236513     5A    -11.231840     6A    -11.228604
       7A    -11.225761     8A    -11.225124     9A    -11.223854
      10A    -11.214128    11A     -1.227018    12A     -1.130152
      13A     -1.053467    14A     -1.013366    15A     -0.946258
      16A     -0.920950    17A     -0.892329    18A     -0.795384
      19A     -0.780956    20A     -0.692605    21A     -0.659980
      22A     -0.629750    23A     -0.603580    24A     -0.591297
      25A     -0.579979    26A     -0.568520    27A     -0.566030
      28A     -0.556362    29A     -0.551004    30A     -0.530427
      31A     -0.521301    32A     -0.485084    33A     -0.477326
      34A     -0.470355    35A     -0.402223    36A     -0.314852
      37A     -0.305318

  @DF-RHF Final Energy:  -402.96110690510608

   => Energetics <=

    Nuclear Repulsion Energy =            521.4475275448770617
    One-Electron Energy =               -1578.9972601223360016
    Two-Electron Energy =                 654.5886256723530323
    Total Energy =                       -402.9611069051060213
  Basis Set: (AUG-CC-PVTZ AUX)
    Blend: AUG-CC-PVTZ-RI
    Molecular point group: c1

    Geometry (in Angstrom), charge = 0, multiplicity = 1:

       Center              X                  Y                   Z               Mass
    ------------   -----------------  -----------------  -----------------  -----------------
         N            1.664557341935     0.622555439366    -0.458436916751    14.003074004430
         C            0.340823341935     0.162172439366    -0.195734916751    12.000000000000
         C           -0.732881658065     1.069695439366    -0.073304916751    12.000000000000
         C            0.130096841935    -1.210426960634    -0.120948716751    12.000000000000
         C           -2.020191658065     0.571795439366     0.152560083249    12.000000000000
         C           -1.179880658065    -1.685318560634     0.145130083249    12.000000000000
         C           -2.247317658065    -0.798424560634     0.273017083249    12.000000000000
         C           -0.502967658065     2.556221439366    -0.188340916751    12.000000000000
         C            1.244953341935    -2.206187560634    -0.298369916751    12.000000000000
         C            2.540021341935     0.626776439366     0.720716083249    12.000000000000
         H           -2.850844658065     1.269650439366     0.246031083249     1.007825032230
         H           -1.356054658065    -2.757818560634     0.213930083249     1.007825032230
         H            1.629358341935     1.563713439366    -0.843105916751     1.007825032230
         H           -3.251879658065    -1.172565560634     0.455964083249     1.007825032230
         H            0.272840341935     2.902178439366     0.503317083249     1.007825032230
         H           -0.200301658065     2.850155439366    -1.200866916751     1.007825032230
         H           -1.421819658065     3.100419439366     0.044814083249     1.007825032230
         H            1.979294341935    -1.800042560634    -0.998520916751     1.007825032230
         H            1.764181341935    -2.428196560634     0.641022083249     1.007825032230
         H            0.861482341935    -3.152697560634    -0.690092916751     1.007825032230
         H            2.131266341935     1.196992439366     1.568064083249     1.007825032230
         H            3.505327341935     1.055448439366     0.438146083249     1.007825032230
         H            2.711181341935    -0.398013560634     1.052934083249     1.007825032230

  Basis Set: AUG-CC-PVTZ
    Blend: AUG-CC-PVTZ
  Basis Set: (AUG-CC-PVTZ AUX)
    Blend: AUG-CC-PVTZ-JKFIT
	 Reference Energy          =    -402.9611069051060781 [Eh]
	 Singles Energy            =      -0.0000000000000000 [Eh]
	 Same-Spin Energy          =      -0.4479320075963362 [Eh]
	 Opposite-Spin Energy      =      -1.4659347488978387 [Eh]
	 Correlation Energy        =      -1.9138667564941749 [Eh]
	 Total Energy              =    -404.8749736616002792 [Eh]

	 ================> DF-SCS-MP2 Energies <==================
	-----------------------------------------------------------
	 SCS Same-Spin Scale       =       0.3333333333333333 [-]
	 SCS Opposite-Spin Scale   =       1.2000000000000000 [-]
	 SCS Same-Spin Energy      =      -0.1493106691987787 [Eh]
	 SCS Opposite-Spin Energy  =      -1.7591216986774063 [Eh]
	 SCS Correlation Energy    =      -1.9084323678761850 [Eh]
	 SCS Total Energy          =    -404.8695392729822515 [Eh]
	-----------------------------------------------------------

  Dipole Moment: [D]
     X:     0.5139      Y:     1.0667      Z:     0.5290     Total:     1.2968

*** Psi4 exiting successfully. Buy a developer a beer!
