                               Psi4 1.4a3.dev225

  ==> Input File <==

--------------------------------------------------------------------------
#psi4
#
memory 32 gb

molecule  {
0 1
  N        1.6268380     0.6089620    -0.4693990
  C        0.3031040     0.1485790    -0.2066970
  C       -0.7706010     1.0561020    -0.0842670
  C        0.0806060    -1.2405240    -0.1151990
  C       -2.0579110     0.5582020     0.1415980
  C       -1.2176000    -1.6989120     0.1341680
  C       -2.1318550    -0.9392912     0.2437026
  C       -0.5406870     2.5426280    -0.1993030
  C        1.2072340    -2.2197810    -0.3093320
  C        2.5023020     0.6131830     0.7097540
  H       -2.8885640     1.2560570     0.2350690
  H       -1.3937740    -2.7714120     0.2029680
  H        1.5916390     1.5501200    -0.8540680
  H       -3.2895990    -1.1861590     0.4450020
  H        0.2351210     2.8885850     0.4923550
  H       -0.2380210     2.8365620    -1.2118290
  H       -1.4595390     3.0868260     0.0338520
  H        1.9415750    -1.8136360    -1.0094830
  H        1.7264620    -2.4417900     0.6300600
  H        0.8237630    -3.1662910    -0.7010550
  H        2.0935470     1.1833990     1.5571020
  H        3.4676080     1.0418550     0.4271840
  H        2.6734620    -0.4116070     1.0419720
units angstrom
no_reorient  #important for SAPT in psi4, default
symmetry c1  #important for SAPT in psi4, default
}

set PROPERTIES_ORIGIN ["COM"]
properties('MP2/aug-cc-pvtz', properties = ['dipole'])
--------------------------------------------------------------------------

    Molecular point group: c1
  Charge       = 0
  Multiplicity = 1
  Basis Set: AUG-CC-PVTZ
    Blend: AUG-CC-PVTZ
  Basis Set: (AUG-CC-PVTZ AUX)
    Blend: AUG-CC-PVTZ-JKFIT

    Orbital Energies [Eh]
    ---------------------

    Doubly Occupied:

       1A    -15.552833     2A    -11.255464     3A    -11.248845
       4A    -11.237974     5A    -11.232288     6A    -11.231400
       7A    -11.228566     8A    -11.219139     9A    -11.214062
      10A    -11.197308    11A     -1.226528    12A     -1.147832
      13A     -1.061414    14A     -1.018948    15A     -0.946055
      16A     -0.928862    17A     -0.886144    18A     -0.789897
      19A     -0.778754    20A     -0.695680    21A     -0.666242
      22A     -0.619839    23A     -0.603744    24A     -0.591952
      25A     -0.581217    26A     -0.572131    27A     -0.565569
      28A     -0.558982    29A     -0.553901    30A     -0.528506
      31A     -0.515697    32A     -0.494749    33A     -0.484527
      34A     -0.437737    35A     -0.406415    36A     -0.337289
      37A     -0.293706

  @DF-RHF Final Energy:  -402.89893960413946

   => Energetics <=

    Nuclear Repulsion Energy =            523.7083108841029571
    One-Electron Energy =               -1583.3941059541616596
    Two-Electron Energy =                 656.7868554659193023
    Total Energy =                       -402.8989396041394002
  Basis Set: (AUG-CC-PVTZ AUX)
    Blend: AUG-CC-PVTZ-RI
    Molecular point group: c1

    Geometry (in Angstrom), charge = 0, multiplicity = 1:

       Center              X                  Y                   Z               Mass
    ------------   -----------------  -----------------  -----------------  -----------------
         N            1.651997269996     0.635325685926    -0.458291198760    14.003074004430
         C            0.328263269996     0.174942685926    -0.195589198760    12.000000000000
         C           -0.745441730004     1.082465685926    -0.073159198760    12.000000000000
         C            0.105765269996    -1.214160314074    -0.104091198760    12.000000000000
         C           -2.032751730004     0.584565685926     0.152705801240    12.000000000000
         C           -1.192440730004    -1.672548314074     0.145275801240    12.000000000000
         C           -2.106695730004    -0.912927514074     0.254810401240    12.000000000000
         C           -0.515527730004     2.568991685926    -0.188195198760    12.000000000000
         C            1.232393269996    -2.193417314074    -0.298224198760    12.000000000000
         C            2.527461269996     0.639546685926     0.720861801240    12.000000000000
         H           -2.863404730004     1.282420685926     0.246176801240     1.007825032230
         H           -1.368614730004    -2.745048314074     0.214075801240     1.007825032230
         H            1.616798269996     1.576483685926    -0.842960198760     1.007825032230
         H           -3.264439730004    -1.159795314074     0.456109801240     1.007825032230
         H            0.260280269996     2.914948685926     0.503462801240     1.007825032230
         H           -0.212861730004     2.862925685926    -1.200721198760     1.007825032230
         H           -1.434379730004     3.113189685926     0.044959801240     1.007825032230
         H            1.966734269996    -1.787272314074    -0.998375198760     1.007825032230
         H            1.751621269996    -2.415426314074     0.641167801240     1.007825032230
         H            0.848922269996    -3.139927314074    -0.689947198760     1.007825032230
         H            2.118706269996     1.209762685926     1.568209801240     1.007825032230
         H            3.492767269996     1.068218685926     0.438291801240     1.007825032230
         H            2.698621269996    -0.385243314074     1.053079801240     1.007825032230

  Basis Set: AUG-CC-PVTZ
    Blend: AUG-CC-PVTZ
  Basis Set: (AUG-CC-PVTZ AUX)
    Blend: AUG-CC-PVTZ-JKFIT
	 Reference Energy          =    -402.8989396041394571 [Eh]
	 Singles Energy            =      -0.0000000000000000 [Eh]
	 Same-Spin Energy          =      -0.4474357762572329 [Eh]
	 Opposite-Spin Energy      =      -1.4671833326738786 [Eh]
	 Correlation Energy        =      -1.9146191089311113 [Eh]
	 Total Energy              =    -404.8135587130705630 [Eh]

	 ================> DF-SCS-MP2 Energies <==================
	-----------------------------------------------------------
	 SCS Same-Spin Scale       =       0.3333333333333333 [-]
	 SCS Opposite-Spin Scale   =       1.2000000000000000 [-]
	 SCS Same-Spin Energy      =      -0.1491452587524109 [Eh]
	 SCS Opposite-Spin Energy  =      -1.7606199992086542 [Eh]
	 SCS Correlation Energy    =      -1.9097652579610651 [Eh]
	 SCS Total Energy          =    -404.8087048621005124 [Eh]
	-----------------------------------------------------------

  Dipole Moment: [D]
     X:     0.5488      Y:     1.1245      Z:     0.5109     Total:     1.3516

*** Psi4 exiting successfully. Buy a developer a beer!
