                               Psi4 1.4a3.dev225

  ==> Input File <==

--------------------------------------------------------------------------
#psi4
#
memory 32 gb

molecule  {
0 1
  N        1.6268380     0.6089620    -0.4693990
  C        0.3031040     0.1485790    -0.2066970
  C       -0.7706010     1.0561020    -0.0842670
  C        0.0691777    -1.2573259    -0.0985463
  C       -2.0579110     0.5582020     0.1415980
  C       -1.2176000    -1.6989120     0.1341680
  C       -2.2850370    -0.8120180     0.2620550
  C       -0.5406870     2.5426280    -0.1993030
  C        1.2072340    -2.2197810    -0.3093320
  C        2.5023020     0.6131830     0.7097540
  H       -2.8885640     1.2560570     0.2350690
  H       -1.3937740    -2.7714120     0.2029680
  H        1.5916390     1.5501200    -0.8540680
  H       -3.2895990    -1.1861590     0.4450020
  H        0.2351210     2.8885850     0.4923550
  H       -0.2380210     2.8365620    -1.2118290
  H       -1.4595390     3.0868260     0.0338520
  H        1.9415750    -1.8136360    -1.0094830
  H        1.7264620    -2.4417900     0.6300600
  H        0.8237630    -3.1662910    -0.7010550
  H        2.0935470     1.1833990     1.5571020
  H        3.4676080     1.0418550     0.4271840
  H        2.6734620    -0.4116070     1.0419720
units angstrom
no_reorient  #important for SAPT in psi4, default
symmetry c1  #important for SAPT in psi4, default
}

set PROPERTIES_ORIGIN ["COM"]
properties('MP2/aug-cc-pvtz', properties = ['dipole'])
--------------------------------------------------------------------------

    Molecular point group: c1
  Charge       = 0
  Multiplicity = 1
  Basis Set: AUG-CC-PVTZ
    Blend: AUG-CC-PVTZ
  Basis Set: (AUG-CC-PVTZ AUX)
    Blend: AUG-CC-PVTZ-JKFIT

    Orbital Energies [Eh]
    ---------------------

    Doubly Occupied:

       1A    -15.554622     2A    -11.260348     3A    -11.249951
       4A    -11.235242     5A    -11.232167     6A    -11.228148
       7A    -11.225366     8A    -11.223884     9A    -11.221204
      10A    -11.214179    11A     -1.226136    12A     -1.131561
      13A     -1.055428    14A     -1.011479    15A     -0.944509
      16A     -0.923404    17A     -0.891762    18A     -0.794743
      19A     -0.780635    20A     -0.692518    21A     -0.661465
      22A     -0.629258    23A     -0.603418    24A     -0.591753
      25A     -0.577811    26A     -0.569220    27A     -0.564544
      28A     -0.557340    29A     -0.553225    30A     -0.531025
      31A     -0.520852    32A     -0.487259    33A     -0.474794
      34A     -0.470914    35A     -0.402721    36A     -0.319465
      37A     -0.300220

  @DF-RHF Final Energy:  -402.96104704773165

   => Energetics <=

    Nuclear Repulsion Energy =            521.1770523083977196
    One-Electron Energy =               -1578.4510584509785076
    Two-Electron Energy =                 654.3129590948490204
    Total Energy =                       -402.9610470477316539
  Basis Set: (AUG-CC-PVTZ AUX)
    Blend: AUG-CC-PVTZ-RI
    Molecular point group: c1

    Geometry (in Angstrom), charge = 0, multiplicity = 1:

       Center              X                  Y                   Z               Mass
    ------------   -----------------  -----------------  -----------------  -----------------
         N            1.666617946748     0.625513631834    -0.461400349595    14.003074004430
         C            0.342883946748     0.165130631834    -0.198698349595    12.000000000000
         C           -0.730821053252     1.072653631834    -0.076268349595    12.000000000000
         C            0.108957646748    -1.240774268166    -0.090547649595    12.000000000000
         C           -2.018131053252     0.574753631834     0.149596650405    12.000000000000
         C           -1.177820053252    -1.682360368166     0.142166650405    12.000000000000
         C           -2.245257053252    -0.795466368166     0.270053650405    12.000000000000
         C           -0.500907053252     2.559179631834    -0.191304349595    12.000000000000
         C            1.247013946748    -2.203229368166    -0.301333349595    12.000000000000
         C            2.542081946748     0.629734631834     0.717752650405    12.000000000000
         H           -2.848784053252     1.272608631834     0.243067650405     1.007825032230
         H           -1.353994053252    -2.754860368166     0.210966650405     1.007825032230
         H            1.631418946748     1.566671631834    -0.846069349595     1.007825032230
         H           -3.249819053252    -1.169607368166     0.453000650405     1.007825032230
         H            0.274900946748     2.905136631834     0.500353650405     1.007825032230
         H           -0.198241053252     2.853113631834    -1.203830349595     1.007825032230
         H           -1.419759053252     3.103377631834     0.041850650405     1.007825032230
         H            1.981354946748    -1.797084368166    -1.001484349595     1.007825032230
         H            1.766241946748    -2.425238368166     0.638058650405     1.007825032230
         H            0.863542946748    -3.149739368166    -0.693056349595     1.007825032230
         H            2.133326946748     1.199950631834     1.565100650405     1.007825032230
         H            3.507387946748     1.058406631834     0.435182650405     1.007825032230
         H            2.713241946748    -0.395055368166     1.049970650405     1.007825032230

  Basis Set: AUG-CC-PVTZ
    Blend: AUG-CC-PVTZ
  Basis Set: (AUG-CC-PVTZ AUX)
    Blend: AUG-CC-PVTZ-JKFIT
	 Reference Energy          =    -402.9610470477316539 [Eh]
	 Singles Energy            =      -0.0000000000000000 [Eh]
	 Same-Spin Energy          =      -0.4480252488895657 [Eh]
	 Opposite-Spin Energy      =      -1.4659708490391541 [Eh]
	 Correlation Energy        =      -1.9139960979287198 [Eh]
	 Total Energy              =    -404.8750431456603565 [Eh]

	 ================> DF-SCS-MP2 Energies <==================
	-----------------------------------------------------------
	 SCS Same-Spin Scale       =       0.3333333333333333 [-]
	 SCS Opposite-Spin Scale   =       1.2000000000000000 [-]
	 SCS Same-Spin Energy      =      -0.1493417496298552 [Eh]
	 SCS Opposite-Spin Energy  =      -1.7591650188469850 [Eh]
	 SCS Correlation Energy    =      -1.9085067684768402 [Eh]
	 SCS Total Energy          =    -404.8695538162085086 [Eh]
	-----------------------------------------------------------

  Dipole Moment: [D]
     X:     0.5633      Y:     1.0783      Z:     0.5121     Total:     1.3200

*** Psi4 exiting successfully. Buy a developer a beer!
