                               Psi4 1.4a3.dev225

  ==> Input File <==

--------------------------------------------------------------------------
#psi4
#
memory 32 gb

molecule  {
0 1
  N        1.6268380     0.6089620    -0.4693990
  C        0.3031040     0.1485790    -0.2066970
  C       -0.7706010     1.0561020    -0.0842670
  C        0.0806060    -1.2405240    -0.1151990
  C       -2.0579110     0.5582020     0.1415980
  C       -1.2176000    -1.6989120     0.1341680
  C       -2.2850370    -0.8120180     0.2620550
  C       -0.5406870     2.5426280    -0.1993030
  C        1.2072340    -2.2197810    -0.3093320
  C        2.5023020     0.6131830     0.7097540
  H       -2.8885640     1.2560570     0.2350690
  H       -1.3937740    -2.7714120     0.2029680
  H        1.5916390     1.5501200    -0.8540680
  H       -3.2895990    -1.1861590     0.4450020
  H        0.2149785     2.8737896     0.5212917
  H       -0.2380210     2.8365620    -1.2118290
  H       -1.4595390     3.0868260     0.0338520
  H        1.9415750    -1.8136360    -1.0094830
  H        1.7264620    -2.4417900     0.6300600
  H        0.8237630    -3.1662910    -0.7010550
  H        2.0935470     1.1833990     1.5571020
  H        3.4676080     1.0418550     0.4271840
  H        2.6734620    -0.4116070     1.0419720
units angstrom
no_reorient  #important for SAPT in psi4, default
symmetry c1  #important for SAPT in psi4, default
}

set PROPERTIES_ORIGIN ["COM"]
properties('MP2/aug-cc-pvtz', properties = ['dipole'])
--------------------------------------------------------------------------

    Molecular point group: c1
  Charge       = 0
  Multiplicity = 1
  Basis Set: AUG-CC-PVTZ
    Blend: AUG-CC-PVTZ
  Basis Set: (AUG-CC-PVTZ AUX)
    Blend: AUG-CC-PVTZ-JKFIT

    Orbital Energies [Eh]
    ---------------------

    Doubly Occupied:

       1A    -15.553694     2A    -11.258117     3A    -11.249611
       4A    -11.235621     5A    -11.231979     6A    -11.228354
       7A    -11.225225     8A    -11.224093     9A    -11.222910
      10A    -11.214084    11A     -1.226473    12A     -1.130760
      13A     -1.054436    14A     -1.012386    15A     -0.945337
      16A     -0.921972    17A     -0.891974    18A     -0.794398
      19A     -0.781174    20A     -0.692207    21A     -0.660623
      22A     -0.629204    23A     -0.603933    24A     -0.592025
      25A     -0.578958    26A     -0.568809    27A     -0.567079
      28A     -0.555632    29A     -0.552185    30A     -0.530664
      31A     -0.520019    32A     -0.485264    33A     -0.476531
      34A     -0.470958    35A     -0.402394    36A     -0.317078
      37A     -0.302687

  @DF-RHF Final Energy:  -402.96161300522061

   => Energetics <=

    Nuclear Repulsion Energy =            521.3342558474533917
    One-Electron Energy =               -1578.7740399258764228
    Two-Electron Energy =                 654.4781710732025886
    Total Energy =                       -402.9616130052205563
  Basis Set: (AUG-CC-PVTZ AUX)
    Blend: AUG-CC-PVTZ-RI
    Molecular point group: c1

    Geometry (in Angstrom), charge = 0, multiplicity = 1:

       Center              X                  Y                   Z               Mass
    ------------   -----------------  -----------------  -----------------  -----------------
         N            1.665753140429     0.624131655573    -0.460137113425    14.003074004430
         C            0.342019140429     0.163748655573    -0.197435113425    12.000000000000
         C           -0.731685859571     1.071271655573    -0.075005113425    12.000000000000
         C            0.119521140429    -1.225354344427    -0.105937113425    12.000000000000
         C           -2.018995859571     0.573371655573     0.150859886575    12.000000000000
         C           -1.178684859571    -1.683742344427     0.143429886575    12.000000000000
         C           -2.246121859571    -0.796848344427     0.271316886575    12.000000000000
         C           -0.501771859571     2.557797655573    -0.190041113425    12.000000000000
         C            1.246149140429    -2.204611344427    -0.300070113425    12.000000000000
         C            2.541217140429     0.628352655573     0.719015886575    12.000000000000
         H           -2.849648859571     1.271226655573     0.244330886575     1.007825032230
         H           -1.354858859571    -2.756242344427     0.212229886575     1.007825032230
         H            1.630554140429     1.565289655573    -0.844806113425     1.007825032230
         H           -3.250683859571    -1.170989344427     0.454263886575     1.007825032230
         H            0.253893640429     2.888959255573     0.530553586575     1.007825032230
         H           -0.199105859571     2.851731655573    -1.202567113425     1.007825032230
         H           -1.420623859571     3.101995655573     0.043113886575     1.007825032230
         H            1.980490140429    -1.798466344427    -1.000221113425     1.007825032230
         H            1.765377140429    -2.426620344427     0.639321886575     1.007825032230
         H            0.862678140429    -3.151121344427    -0.691793113425     1.007825032230
         H            2.132462140429     1.198568655573     1.566363886575     1.007825032230
         H            3.506523140429     1.057024655573     0.436445886575     1.007825032230
         H            2.712377140429    -0.396437344427     1.051233886575     1.007825032230

  Basis Set: AUG-CC-PVTZ
    Blend: AUG-CC-PVTZ
  Basis Set: (AUG-CC-PVTZ AUX)
    Blend: AUG-CC-PVTZ-JKFIT
	 Reference Energy          =    -402.9616130052206131 [Eh]
	 Singles Energy            =      -0.0000000000000000 [Eh]
	 Same-Spin Energy          =      -0.4479946217733921 [Eh]
	 Opposite-Spin Energy      =      -1.4659515115842099 [Eh]
	 Correlation Energy        =      -1.9139461333576020 [Eh]
	 Total Energy              =    -404.8755591385782395 [Eh]

	 ================> DF-SCS-MP2 Energies <==================
	-----------------------------------------------------------
	 SCS Same-Spin Scale       =       0.3333333333333333 [-]
	 SCS Opposite-Spin Scale   =       1.2000000000000000 [-]
	 SCS Same-Spin Energy      =      -0.1493315405911307 [Eh]
	 SCS Opposite-Spin Energy  =      -1.7591418139010517 [Eh]
	 SCS Correlation Energy    =      -1.9084733544921824 [Eh]
	 SCS Total Energy          =    -404.8700863597127864 [Eh]
	-----------------------------------------------------------

  Dipole Moment: [D]
     X:     0.5314      Y:     1.0757      Z:     0.5261     Total:     1.3101

*** Psi4 exiting successfully. Buy a developer a beer!
