                               Psi4 1.4a3.dev225

  ==> Input File <==

--------------------------------------------------------------------------
#psi4
#
memory 32 gb

molecule  {
0 1
  N        1.6268380     0.6089620    -0.4693990
  C        0.3031040     0.1485790    -0.2066970
  C       -0.7706010     1.0561020    -0.0842670
  C        0.0806060    -1.2405240    -0.1151990
  C       -2.0579110     0.5582020     0.1415980
  C       -1.2176000    -1.6989120     0.1341680
  C       -2.2850370    -0.8120180     0.2620550
  C       -0.5406870     2.5426280    -0.1993030
  C        1.2072340    -2.2197810    -0.3093320
  C        2.5023020     0.6131830     0.7097540
  H       -2.8885640     1.2560570     0.2350690
  H       -1.3937740    -2.7714120     0.2029680
  H        1.5916390     1.5501200    -0.8540680
  H       -3.2895990    -1.1861590     0.4450020
  H        0.2351210     2.8885850     0.4923550
  H       -0.2380210     2.8365620    -1.2118290
  H       -1.4595390     3.0868260     0.0338520
  H        2.0190723    -1.8265192    -0.9263293
  H        1.7264620    -2.4417900     0.6300600
  H        0.8237630    -3.1662910    -0.7010550
  H        2.0935470     1.1833990     1.5571020
  H        3.4676080     1.0418550     0.4271840
  H        2.6734620    -0.4116070     1.0419720
units angstrom
no_reorient  #important for SAPT in psi4, default
symmetry c1  #important for SAPT in psi4, default
}

set PROPERTIES_ORIGIN ["COM"]
properties('MP2/aug-cc-pvtz', properties = ['dipole'])
--------------------------------------------------------------------------

    Molecular point group: c1
  Charge       = 0
  Multiplicity = 1
  Basis Set: AUG-CC-PVTZ
    Blend: AUG-CC-PVTZ
  Basis Set: (AUG-CC-PVTZ AUX)
    Blend: AUG-CC-PVTZ-JKFIT

    Orbital Energies [Eh]
    ---------------------

    Doubly Occupied:

       1A    -15.553807     2A    -11.258332     3A    -11.249959
       4A    -11.235978     5A    -11.232912     6A    -11.228423
       7A    -11.225551     8A    -11.224486     9A    -11.223404
      10A    -11.214387    11A     -1.226604    12A     -1.131006
      13A     -1.054386    14A     -1.012402    15A     -0.945717
      16A     -0.922538    17A     -0.892341    18A     -0.794826
      19A     -0.782156    20A     -0.692731    21A     -0.661885
      22A     -0.629508    23A     -0.603596    24A     -0.591807
      25A     -0.579775    26A     -0.568589    27A     -0.563476
      28A     -0.556566    29A     -0.550565    30A     -0.530298
      31A     -0.523007    32A     -0.487092    33A     -0.477110
      34A     -0.469972    35A     -0.402628    36A     -0.316935
      37A     -0.302733

  @DF-RHF Final Energy:  -402.96052326935336

   => Energetics <=

    Nuclear Repulsion Energy =            521.2568691631865931
    One-Electron Energy =               -1578.5998061515433619
    Two-Electron Energy =                 654.3824137190033525
    Total Energy =                       -402.9605232693534163
  Basis Set: (AUG-CC-PVTZ AUX)
    Blend: AUG-CC-PVTZ-RI
    Molecular point group: c1

    Geometry (in Angstrom), charge = 0, multiplicity = 1:

       Center              X                  Y                   Z               Mass
    ------------   -----------------  -----------------  -----------------  -----------------
         N            1.665024788550     0.624117391365    -0.460541549463    14.003074004430
         C            0.341290788550     0.163734391365    -0.197839549463    12.000000000000
         C           -0.732414211450     1.071257391365    -0.075409549463    12.000000000000
         C            0.118792788550    -1.225368608635    -0.106341549463    12.000000000000
         C           -2.019724211450     0.573357391365     0.150455450537    12.000000000000
         C           -1.179413211450    -1.683756608635     0.143025450537    12.000000000000
         C           -2.246850211450    -0.796862608635     0.270912450537    12.000000000000
         C           -0.502500211450     2.557783391365    -0.190445549463    12.000000000000
         C            1.245420788550    -2.204625608635    -0.300474549463    12.000000000000
         C            2.540488788550     0.628338391365     0.718611450537    12.000000000000
         H           -2.850377211450     1.271212391365     0.243926450537     1.007825032230
         H           -1.355587211450    -2.756256608635     0.211825450537     1.007825032230
         H            1.629825788550     1.565275391365    -0.845210549463     1.007825032230
         H           -3.251412211450    -1.171003608635     0.453859450537     1.007825032230
         H            0.273307788550     2.903740391365     0.501212450537     1.007825032230
         H           -0.199834211450     2.851717391365    -1.202971549463     1.007825032230
         H           -1.421352211450     3.101981391365     0.042709450537     1.007825032230
         H            2.057259088550    -1.811363808635    -0.917471849463     1.007825032230
         H            1.764648788550    -2.426634608635     0.638917450537     1.007825032230
         H            0.861949788550    -3.151135608635    -0.692197549463     1.007825032230
         H            2.131733788550     1.198554391365     1.565959450537     1.007825032230
         H            3.505794788550     1.057010391365     0.436041450537     1.007825032230
         H            2.711648788550    -0.396451608635     1.050829450537     1.007825032230

  Basis Set: AUG-CC-PVTZ
    Blend: AUG-CC-PVTZ
  Basis Set: (AUG-CC-PVTZ AUX)
    Blend: AUG-CC-PVTZ-JKFIT
	 Reference Energy          =    -402.9605232693533594 [Eh]
	 Singles Energy            =      -0.0000000000000000 [Eh]
	 Same-Spin Energy          =      -0.4480536010027660 [Eh]
	 Opposite-Spin Energy      =      -1.4659475469997871 [Eh]
	 Correlation Energy        =      -1.9140011480025532 [Eh]
	 Total Energy              =    -404.8745244173559286 [Eh]

	 ================> DF-SCS-MP2 Energies <==================
	-----------------------------------------------------------
	 SCS Same-Spin Scale       =       0.3333333333333333 [-]
	 SCS Opposite-Spin Scale   =       1.2000000000000000 [-]
	 SCS Same-Spin Energy      =      -0.1493512003342553 [Eh]
	 SCS Opposite-Spin Energy  =      -1.7591370563997446 [Eh]
	 SCS Correlation Energy    =      -1.9084882567340000 [Eh]
	 SCS Total Energy          =    -404.8690115260873768 [Eh]
	-----------------------------------------------------------

  Dipole Moment: [D]
     X:     0.5611      Y:     1.0790      Z:     0.5431     Total:     1.3319

*** Psi4 exiting successfully. Buy a developer a beer!
