                               Psi4 1.4a3.dev225

  ==> Input File <==

--------------------------------------------------------------------------
#psi4
#
memory 32 gb

molecule  {
0 1
  N        1.6268380     0.6089620    -0.4693990
  C        0.3031040     0.1485790    -0.2066970
  C       -0.7706010     1.0561020    -0.0842670
  C        0.1121709    -1.0434576    -0.1281794
  C       -2.0579110     0.5582020     0.1415980
  C       -1.2176000    -1.6989120     0.1341680
  C       -2.2850370    -0.8120180     0.2620550
  C       -0.5406870     2.5426280    -0.1993030
  C        1.2072340    -2.2197810    -0.3093320
  C        2.5023020     0.6131830     0.7097540
  H       -2.8885640     1.2560570     0.2350690
  H       -1.3937740    -2.7714120     0.2029680
  H        1.5916390     1.5501200    -0.8540680
  H       -3.2895990    -1.1861590     0.4450020
  H        0.2351210     2.8885850     0.4923550
  H       -0.2380210     2.8365620    -1.2118290
  H       -1.4595390     3.0868260     0.0338520
  H        1.9415750    -1.8136360    -1.0094830
  H        1.7264620    -2.4417900     0.6300600
  H        0.8237630    -3.1662910    -0.7010550
  H        2.0935470     1.1833990     1.5571020
  H        3.4676080     1.0418550     0.4271840
  H        2.6734620    -0.4116070     1.0419720
units angstrom
no_reorient  #important for SAPT in psi4, default
symmetry c1  #important for SAPT in psi4, default
}

set PROPERTIES_ORIGIN ["COM"]
properties('MP2/aug-cc-pvtz', properties = ['dipole'])
--------------------------------------------------------------------------

    Molecular point group: c1
  Charge       = 0
  Multiplicity = 1
  Basis Set: AUG-CC-PVTZ
    Blend: AUG-CC-PVTZ
  Basis Set: (AUG-CC-PVTZ AUX)
    Blend: AUG-CC-PVTZ-JKFIT

    Orbital Energies [Eh]
    ---------------------

    Doubly Occupied:

       1A    -15.549052     2A    -11.247694     3A    -11.240293
       4A    -11.233650     5A    -11.231155     6A    -11.229568
       7A    -11.225786     8A    -11.224184     9A    -11.220115
      10A    -11.217173    11A     -1.235717    12A     -1.134164
      13A     -1.046544    14A     -1.022591    15A     -0.946753
      16A     -0.914036    17A     -0.896703    18A     -0.812319
      19A     -0.769900    20A     -0.697070    21A     -0.652878
      22A     -0.633345    23A     -0.603074    24A     -0.594452
      25A     -0.584758    26A     -0.568094    27A     -0.560763
      28A     -0.552348    29A     -0.543331    30A     -0.529314
      31A     -0.524024    32A     -0.494098    33A     -0.480563
      34A     -0.438925    35A     -0.401638    36A     -0.332660
      37A     -0.304745

  @DF-RHF Final Energy:  -402.90531613274095

   => Energetics <=

    Nuclear Repulsion Energy =            523.6805103784374751
    One-Electron Energy =               -1583.3846973365346003
    Two-Electron Energy =                 656.7988708253561754
    Total Energy =                       -402.9053161327409498
  Basis Set: (AUG-CC-PVTZ AUX)
    Blend: AUG-CC-PVTZ-RI
    Molecular point group: c1

    Geometry (in Angstrom), charge = 0, multiplicity = 1:

       Center              X                  Y                   Z               Mass
    ------------   -----------------  -----------------  -----------------  -----------------
         N            1.662799293361     0.606517862542    -0.458768339470    14.003074004430
         C            0.339065293361     0.146134862542    -0.196066339470    12.000000000000
         C           -0.734639706639     1.053657862542    -0.073636339470    12.000000000000
         C            0.148132193361    -1.045901737458    -0.117548739470    12.000000000000
         C           -2.021949706639     0.555757862542     0.152228660530    12.000000000000
         C           -1.181638706639    -1.701356137458     0.144798660530    12.000000000000
         C           -2.249075706639    -0.814462137458     0.272685660530    12.000000000000
         C           -0.504725706639     2.540183862542    -0.188672339470    12.000000000000
         C            1.243195293361    -2.222225137458    -0.298701339470    12.000000000000
         C            2.538263293361     0.610738862542     0.720384660530    12.000000000000
         H           -2.852602706639     1.253612862542     0.245699660530     1.007825032230
         H           -1.357812706639    -2.773856137458     0.213598660530     1.007825032230
         H            1.627600293361     1.547675862542    -0.843437339470     1.007825032230
         H           -3.253637706639    -1.188603137458     0.455632660530     1.007825032230
         H            0.271082293361     2.886140862542     0.502985660530     1.007825032230
         H           -0.202059706639     2.834117862542    -1.201198339470     1.007825032230
         H           -1.423577706639     3.084381862542     0.044482660530     1.007825032230
         H            1.977536293361    -1.816080137458    -0.998852339470     1.007825032230
         H            1.762423293361    -2.444234137458     0.640690660530     1.007825032230
         H            0.859724293361    -3.168735137458    -0.690424339470     1.007825032230
         H            2.129508293361     1.180954862542     1.567732660530     1.007825032230
         H            3.503569293361     1.039410862542     0.437814660530     1.007825032230
         H            2.709423293361    -0.414051137458     1.052602660530     1.007825032230

  Basis Set: AUG-CC-PVTZ
    Blend: AUG-CC-PVTZ
  Basis Set: (AUG-CC-PVTZ AUX)
    Blend: AUG-CC-PVTZ-JKFIT
	 Reference Energy          =    -402.9053161327409498 [Eh]
	 Singles Energy            =      -0.0000000000000000 [Eh]
	 Same-Spin Energy          =      -0.4462226803142161 [Eh]
	 Opposite-Spin Energy      =      -1.4663848709835288 [Eh]
	 Correlation Energy        =      -1.9126075512977447 [Eh]
	 Total Energy              =    -404.8179236840387034 [Eh]

	 ================> DF-SCS-MP2 Energies <==================
	-----------------------------------------------------------
	 SCS Same-Spin Scale       =       0.3333333333333333 [-]
	 SCS Opposite-Spin Scale   =       1.2000000000000000 [-]
	 SCS Same-Spin Energy      =      -0.1487408934380720 [Eh]
	 SCS Opposite-Spin Energy  =      -1.7596618451802344 [Eh]
	 SCS Correlation Energy    =      -1.9084027386183064 [Eh]
	 SCS Total Energy          =    -404.8137188713592423 [Eh]
	-----------------------------------------------------------

  Dipole Moment: [D]
     X:     0.2480      Y:     1.0655      Z:     0.5565     Total:     1.2274

*** Psi4 exiting successfully. Buy a developer a beer!
