                               Psi4 1.4a3.dev225

  ==> Input File <==

--------------------------------------------------------------------------
#psi4
#
memory 32 gb

molecule  {
0 1
  N        1.6268380     0.6089620    -0.4693990
  C        0.3031040     0.1485790    -0.2066970
  C       -0.7706010     1.0561020    -0.0842670
  C        0.1044886    -1.2078201    -0.1486766
  C       -2.0579110     0.5582020     0.1415980
  C       -1.2176000    -1.6989120     0.1341680
  C       -2.2850370    -0.8120180     0.2620550
  C       -0.5406870     2.5426280    -0.1993030
  C        1.2072340    -2.2197810    -0.3093320
  C        2.5023020     0.6131830     0.7097540
  H       -2.8885640     1.2560570     0.2350690
  H       -1.3937740    -2.7714120     0.2029680
  H        1.5916390     1.5501200    -0.8540680
  H       -3.2895990    -1.1861590     0.4450020
  H        0.2351210     2.8885850     0.4923550
  H       -0.2380210     2.8365620    -1.2118290
  H       -1.4595390     3.0868260     0.0338520
  H        1.9415750    -1.8136360    -1.0094830
  H        1.7264620    -2.4417900     0.6300600
  H        0.8237630    -3.1662910    -0.7010550
  H        2.0935470     1.1833990     1.5571020
  H        3.4676080     1.0418550     0.4271840
  H        2.6734620    -0.4116070     1.0419720
units angstrom
no_reorient  #important for SAPT in psi4, default
symmetry c1  #important for SAPT in psi4, default
}

set PROPERTIES_ORIGIN ["COM"]
properties('MP2/aug-cc-pvtz', properties = ['dipole'])
--------------------------------------------------------------------------

    Molecular point group: c1
  Charge       = 0
  Multiplicity = 1
  Basis Set: AUG-CC-PVTZ
    Blend: AUG-CC-PVTZ
  Basis Set: (AUG-CC-PVTZ AUX)
    Blend: AUG-CC-PVTZ-JKFIT

    Orbital Energies [Eh]
    ---------------------

    Doubly Occupied:

       1A    -15.552097     2A    -11.253792     3A    -11.249009
       4A    -11.237097     5A    -11.231589     6A    -11.228819
       7A    -11.227341     8A    -11.225378     9A    -11.224078
      10A    -11.214186    11A     -1.227540    12A     -1.129498
      13A     -1.052637    14A     -1.014325    15A     -0.947180
      16A     -0.919815    17A     -0.892553    18A     -0.796802
      19A     -0.779863    20A     -0.692616    21A     -0.659210
      22A     -0.629933    23A     -0.603686    24A     -0.591089
      25A     -0.581237    26A     -0.568222    27A     -0.566718
      28A     -0.556067    29A     -0.549739    30A     -0.530150
      31A     -0.521650    32A     -0.486726    33A     -0.475645
      34A     -0.469257    35A     -0.401985    36A     -0.312877
      37A     -0.307813

  @DF-RHF Final Energy:  -402.95910080921965

   => Energetics <=

    Nuclear Repulsion Energy =            521.5787920262456510
    One-Electron Energy =               -1579.2593523714292587
    Two-Electron Energy =                 654.7214595359638452
    Total Energy =                       -402.9591008092196489
  Basis Set: (AUG-CC-PVTZ AUX)
    Blend: AUG-CC-PVTZ-RI
    Molecular point group: c1

    Geometry (in Angstrom), charge = 0, multiplicity = 1:

       Center              X                  Y                   Z               Mass
    ------------   -----------------  -----------------  -----------------  -----------------
         N            1.663481634775     0.621116529714    -0.456947779423    14.003074004430
         C            0.339747634775     0.160733529714    -0.194245779423    12.000000000000
         C           -0.733957365225     1.068256529714    -0.071815779423    12.000000000000
         C            0.141132234775    -1.195665570286    -0.136225379423    12.000000000000
         C           -2.021267365225     0.570356529714     0.154049220577    12.000000000000
         C           -1.180956365225    -1.686757470286     0.146619220577    12.000000000000
         C           -2.248393365225    -0.799863470286     0.274506220577    12.000000000000
         C           -0.504043365225     2.554782529714    -0.186851779423    12.000000000000
         C            1.243877634775    -2.207626470286    -0.296880779423    12.000000000000
         C            2.538945634775     0.625337529714     0.722205220577    12.000000000000
         H           -2.851920365225     1.268211529714     0.247520220577     1.007825032230
         H           -1.357130365225    -2.759257470286     0.215419220577     1.007825032230
         H            1.628282634775     1.562274529714    -0.841616779423     1.007825032230
         H           -3.252955365225    -1.174004470286     0.457453220577     1.007825032230
         H            0.271764634775     2.900739529714     0.504806220577     1.007825032230
         H           -0.201377365225     2.848716529714    -1.199377779423     1.007825032230
         H           -1.422895365225     3.098980529714     0.046303220577     1.007825032230
         H            1.978218634775    -1.801481470286    -0.997031779423     1.007825032230
         H            1.763105634775    -2.429635470286     0.642511220577     1.007825032230
         H            0.860406634775    -3.154136470286    -0.688603779423     1.007825032230
         H            2.130190634775     1.195553529714     1.569553220577     1.007825032230
         H            3.504251634775     1.054009529714     0.439635220577     1.007825032230
         H            2.710105634775    -0.399452470286     1.054423220577     1.007825032230

  Basis Set: AUG-CC-PVTZ
    Blend: AUG-CC-PVTZ
  Basis Set: (AUG-CC-PVTZ AUX)
    Blend: AUG-CC-PVTZ-JKFIT
	 Reference Energy          =    -402.9591008092196489 [Eh]
	 Singles Energy            =      -0.0000000000000000 [Eh]
	 Same-Spin Energy          =      -0.4478483295901911 [Eh]
	 Opposite-Spin Energy      =      -1.4660110612694917 [Eh]
	 Correlation Energy        =      -1.9138593908596828 [Eh]
	 Total Energy              =    -404.8729602000793193 [Eh]

	 ================> DF-SCS-MP2 Energies <==================
	-----------------------------------------------------------
	 SCS Same-Spin Scale       =       0.3333333333333333 [-]
	 SCS Opposite-Spin Scale   =       1.2000000000000000 [-]
	 SCS Same-Spin Energy      =      -0.1492827765300637 [Eh]
	 SCS Opposite-Spin Energy  =      -1.7592132735233899 [Eh]
	 SCS Correlation Energy    =      -1.9084960500534536 [Eh]
	 SCS Total Energy          =    -404.8675968592730783 [Eh]
	-----------------------------------------------------------

  Dipole Moment: [D]
     X:     0.4885      Y:     1.0608      Z:     0.5374     Total:     1.2856

*** Psi4 exiting successfully. Buy a developer a beer!
