                               Psi4 1.4a3.dev225

  ==> Input File <==

--------------------------------------------------------------------------
#psi4
#
memory 32 gb

molecule  {
0 1
  N        1.6268380     0.6089620    -0.4693990
  C        0.3031040     0.1485790    -0.2066970
  C       -0.7706010     1.0561020    -0.0842670
  C        0.0806060    -1.2405240    -0.1151990
  C       -2.0579110     0.5582020     0.1415980
  C       -1.2176000    -1.6989120     0.1341680
  C       -2.2817787    -0.7923610     0.2603269
  C       -0.5406870     2.5426280    -0.1993030
  C        1.2072340    -2.2197810    -0.3093320
  C        2.5023020     0.6131830     0.7097540
  H       -2.8885640     1.2560570     0.2350690
  H       -1.3937740    -2.7714120     0.2029680
  H        1.5916390     1.5501200    -0.8540680
  H       -3.2895990    -1.1861590     0.4450020
  H        0.2351210     2.8885850     0.4923550
  H       -0.2380210     2.8365620    -1.2118290
  H       -1.4595390     3.0868260     0.0338520
  H        1.9415750    -1.8136360    -1.0094830
  H        1.7264620    -2.4417900     0.6300600
  H        0.8237630    -3.1662910    -0.7010550
  H        2.0935470     1.1833990     1.5571020
  H        3.4676080     1.0418550     0.4271840
  H        2.6734620    -0.4116070     1.0419720
units angstrom
no_reorient  #important for SAPT in psi4, default
symmetry c1  #important for SAPT in psi4, default
}

set PROPERTIES_ORIGIN ["COM"]
properties('MP2/aug-cc-pvtz', properties = ['dipole'])
--------------------------------------------------------------------------

    Molecular point group: c1
  Charge       = 0
  Multiplicity = 1
  Basis Set: AUG-CC-PVTZ
    Blend: AUG-CC-PVTZ
  Basis Set: (AUG-CC-PVTZ AUX)
    Blend: AUG-CC-PVTZ-JKFIT

    Orbital Energies [Eh]
    ---------------------

    Doubly Occupied:

       1A    -15.553718     2A    -11.258026     3A    -11.249591
       4A    -11.235709     5A    -11.232174     6A    -11.228309
       7A    -11.224733     8A    -11.223688     9A    -11.222493
      10A    -11.214110    11A     -1.226530    12A     -1.131827
      13A     -1.054472    14A     -1.013079    15A     -0.945316
      16A     -0.922385    17A     -0.892142    18A     -0.794739
      19A     -0.780417    20A     -0.693054    21A     -0.660624
      22A     -0.629264    23A     -0.602641    24A     -0.591740
      25A     -0.578993    26A     -0.568883    27A     -0.565231
      28A     -0.557070    29A     -0.552081    30A     -0.530100
      31A     -0.521778    32A     -0.483342    33A     -0.478031
      34A     -0.471571    35A     -0.402561    36A     -0.317179
      37A     -0.303141

  @DF-RHF Final Energy:  -402.96132285222700

   => Energetics <=

    Nuclear Repulsion Energy =            521.5202644918806527
    One-Electron Energy =               -1579.1416941640459299
    Two-Electron Energy =                 654.6601068199382780
    Total Energy =                       -402.9613228522269992
  Basis Set: (AUG-CC-PVTZ AUX)
    Blend: AUG-CC-PVTZ-RI
    Molecular point group: c1

    Geometry (in Angstrom), charge = 0, multiplicity = 1:

       Center              X                  Y                   Z               Mass
    ------------   -----------------  -----------------  -----------------  -----------------
         N            1.665313483837     0.622275354572    -0.459767768066    14.003074004430
         C            0.341579483837     0.161892354572    -0.197065768066    12.000000000000
         C           -0.732125516163     1.069415354572    -0.074635768066    12.000000000000
         C            0.119081483837    -1.227210645428    -0.105567768066    12.000000000000
         C           -2.019435516163     0.571515354572     0.151229231934    12.000000000000
         C           -1.179124516163    -1.685598645428     0.143799231934    12.000000000000
         C           -2.243303216163    -0.779047645428     0.269958131934    12.000000000000
         C           -0.502211516163     2.555941354572    -0.189671768066    12.000000000000
         C            1.245709483837    -2.206467645428    -0.299700768066    12.000000000000
         C            2.540777483837     0.626496354572     0.719385231934    12.000000000000
         H           -2.850088516163     1.269370354572     0.244700231934     1.007825032230
         H           -1.355298516163    -2.758098645428     0.212599231934     1.007825032230
         H            1.630114483837     1.563433354572    -0.844436768066     1.007825032230
         H           -3.251123516163    -1.172845645428     0.454633231934     1.007825032230
         H            0.273596483837     2.901898354572     0.501986231934     1.007825032230
         H           -0.199545516163     2.849875354572    -1.202197768066     1.007825032230
         H           -1.421063516163     3.100139354572     0.043483231934     1.007825032230
         H            1.980050483837    -1.800322645428    -0.999851768066     1.007825032230
         H            1.764937483837    -2.428476645428     0.639691231934     1.007825032230
         H            0.862238483837    -3.152977645428    -0.691423768066     1.007825032230
         H            2.132022483837     1.196712354572     1.566733231934     1.007825032230
         H            3.506083483837     1.055168354572     0.436815231934     1.007825032230
         H            2.711937483837    -0.398293645428     1.051603231934     1.007825032230

  Basis Set: AUG-CC-PVTZ
    Blend: AUG-CC-PVTZ
  Basis Set: (AUG-CC-PVTZ AUX)
    Blend: AUG-CC-PVTZ-JKFIT
	 Reference Energy          =    -402.9613228522269992 [Eh]
	 Singles Energy            =      -0.0000000000000000 [Eh]
	 Same-Spin Energy          =      -0.4479993015461155 [Eh]
	 Opposite-Spin Energy      =      -1.4658810867743362 [Eh]
	 Correlation Energy        =      -1.9138803883204516 [Eh]
	 Total Energy              =    -404.8752032405474779 [Eh]

	 ================> DF-SCS-MP2 Energies <==================
	-----------------------------------------------------------
	 SCS Same-Spin Scale       =       0.3333333333333333 [-]
	 SCS Opposite-Spin Scale   =       1.2000000000000000 [-]
	 SCS Same-Spin Energy      =      -0.1493331005153718 [Eh]
	 SCS Opposite-Spin Energy  =      -1.7590573041292032 [Eh]
	 SCS Correlation Energy    =      -1.9083904046445750 [Eh]
	 SCS Total Energy          =    -404.8697132568715915 [Eh]
	-----------------------------------------------------------

  Dipole Moment: [D]
     X:     0.5418      Y:     1.0681      Z:     0.5202     Total:     1.3057

*** Psi4 exiting successfully. Buy a developer a beer!
