                               Psi4 1.4a3.dev225

  ==> Input File <==

--------------------------------------------------------------------------
#psi4
#
memory 32 gb

molecule  {
0 1
  N        1.6268380     0.6089620    -0.4693990
  C        0.3031040     0.1485790    -0.2066970
  C       -0.7706010     1.0561020    -0.0842670
  C        0.0806060    -1.2405240    -0.1151990
  C       -2.0579110     0.5582020     0.1415980
  C       -1.2176000    -1.6989120     0.1341680
  C       -2.2768912    -0.7628755     0.2577349
  C       -0.5406870     2.5426280    -0.1993030
  C        1.2072340    -2.2197810    -0.3093320
  C        2.5023020     0.6131830     0.7097540
  H       -2.8885640     1.2560570     0.2350690
  H       -1.3937740    -2.7714120     0.2029680
  H        1.5916390     1.5501200    -0.8540680
  H       -3.2895990    -1.1861590     0.4450020
  H        0.2351210     2.8885850     0.4923550
  H       -0.2380210     2.8365620    -1.2118290
  H       -1.4595390     3.0868260     0.0338520
  H        1.9415750    -1.8136360    -1.0094830
  H        1.7264620    -2.4417900     0.6300600
  H        0.8237630    -3.1662910    -0.7010550
  H        2.0935470     1.1833990     1.5571020
  H        3.4676080     1.0418550     0.4271840
  H        2.6734620    -0.4116070     1.0419720
units angstrom
no_reorient  #important for SAPT in psi4, default
symmetry c1  #important for SAPT in psi4, default
}

set PROPERTIES_ORIGIN ["COM"]
properties('MP2/aug-cc-pvtz', properties = ['dipole'])
--------------------------------------------------------------------------

    Molecular point group: c1
  Charge       = 0
  Multiplicity = 1
  Basis Set: AUG-CC-PVTZ
    Blend: AUG-CC-PVTZ
  Basis Set: (AUG-CC-PVTZ AUX)
    Blend: AUG-CC-PVTZ-JKFIT

    Orbital Energies [Eh]
    ---------------------

    Doubly Occupied:

       1A    -15.553613     2A    -11.257759     3A    -11.249528
       4A    -11.235436     5A    -11.232384     6A    -11.228201
       7A    -11.225352     8A    -11.223416     9A    -11.219270
      10A    -11.214082    11A     -1.226517    12A     -1.133556
      13A     -1.054691    14A     -1.014320    15A     -0.945255
      16A     -0.922662    17A     -0.892188    18A     -0.795184
      19A     -0.778790    20A     -0.693776    21A     -0.660745
      22A     -0.628987    23A     -0.601445    24A     -0.592036
      25A     -0.579230    26A     -0.568999    27A     -0.565200
      28A     -0.557605    29A     -0.551791    30A     -0.529147
      31A     -0.522693    32A     -0.482684    33A     -0.476945
      34A     -0.472196    35A     -0.402745    36A     -0.318385
      37A     -0.302894

  @DF-RHF Final Energy:  -402.95864236148566

   => Energetics <=

    Nuclear Repulsion Energy =            521.8407210501179634
    One-Electron Energy =               -1579.7793110724767303
    Two-Electron Energy =                 654.9799476608731084
    Total Energy =                       -402.9586423614856585
  Basis Set: (AUG-CC-PVTZ AUX)
    Blend: AUG-CC-PVTZ-RI
    Molecular point group: c1

    Geometry (in Angstrom), charge = 0, multiplicity = 1:

       Center              X                  Y                   Z               Mass
    ------------   -----------------  -----------------  -----------------  -----------------
         N            1.664879376386     0.619656454270    -0.459537546785    14.003074004430
         C            0.341145376386     0.159273454270    -0.196835546785    12.000000000000
         C           -0.732559623614     1.066796454270    -0.074405546785    12.000000000000
         C            0.118647376386    -1.229829545730    -0.105337546785    12.000000000000
         C           -2.019869623614     0.568896454270     0.151459453215    12.000000000000
         C           -1.179558623614    -1.688217545730     0.144029453215    12.000000000000
         C           -2.238849823614    -0.752181045730     0.267596353215    12.000000000000
         C           -0.502645623614     2.553322454270    -0.189441546785    12.000000000000
         C            1.245275376386    -2.209086545730    -0.299470546785    12.000000000000
         C            2.540343376386     0.623877454270     0.719615453215    12.000000000000
         H           -2.850522623614     1.266751454270     0.244930453215     1.007825032230
         H           -1.355732623614    -2.760717545730     0.212829453215     1.007825032230
         H            1.629680376386     1.560814454270    -0.844206546785     1.007825032230
         H           -3.251557623614    -1.175464545730     0.454863453215     1.007825032230
         H            0.273162376386     2.899279454270     0.502216453215     1.007825032230
         H           -0.199979623614     2.847256454270    -1.201967546785     1.007825032230
         H           -1.421497623614     3.097520454270     0.043713453215     1.007825032230
         H            1.979616376386    -1.802941545730    -0.999621546785     1.007825032230
         H            1.764503376386    -2.431095545730     0.639921453215     1.007825032230
         H            0.861804376386    -3.155596545730    -0.691193546785     1.007825032230
         H            2.131588376386     1.194093454270     1.566963453215     1.007825032230
         H            3.505649376386     1.052549454270     0.437045453215     1.007825032230
         H            2.711503376386    -0.400912545730     1.051833453215     1.007825032230

  Basis Set: AUG-CC-PVTZ
    Blend: AUG-CC-PVTZ
  Basis Set: (AUG-CC-PVTZ AUX)
    Blend: AUG-CC-PVTZ-JKFIT
	 Reference Energy          =    -402.9586423614856585 [Eh]
	 Singles Energy            =      -0.0000000000000000 [Eh]
	 Same-Spin Energy          =      -0.4479850028138747 [Eh]
	 Opposite-Spin Energy      =      -1.4659041969222391 [Eh]
	 Correlation Energy        =      -1.9138891997361136 [Eh]
	 Total Energy              =    -404.8725315612217628 [Eh]

	 ================> DF-SCS-MP2 Energies <==================
	-----------------------------------------------------------
	 SCS Same-Spin Scale       =       0.3333333333333333 [-]
	 SCS Opposite-Spin Scale   =       1.2000000000000000 [-]
	 SCS Same-Spin Energy      =      -0.1493283342712916 [Eh]
	 SCS Opposite-Spin Energy  =      -1.7590850363066868 [Eh]
	 SCS Correlation Energy    =      -1.9084133705779782 [Eh]
	 SCS Total Energy          =    -404.8670557320636476 [Eh]
	-----------------------------------------------------------

  Dipole Moment: [D]
     X:     0.5469      Y:     1.0617      Z:     0.5195     Total:     1.3024

*** Psi4 exiting successfully. Buy a developer a beer!
