                               Psi4 1.4a3.dev225

  ==> Input File <==

--------------------------------------------------------------------------
#psi4
#
memory 32 gb

molecule  {
0 1
  N        1.6268380     0.6089620    -0.4693990
  C        0.3031040     0.1485790    -0.2066970
  C       -0.7706010     1.0561020    -0.0842670
  C        0.0806060    -1.2405240    -0.1151990
  C       -2.0579110     0.5582020     0.1415980
  C       -1.2176000    -1.6989120     0.1341680
  C       -2.2850370    -0.8120180     0.2620550
  C       -0.5406870     2.5426280    -0.1993030
  C        1.2072340    -2.2197810    -0.3093320
  C        2.5023020     0.6131830     0.7097540
  H       -2.8885640     1.2560570     0.2350690
  H       -1.3937740    -2.7714120     0.2029680
  H        1.5933689     1.5038643    -0.8351624
  H       -3.2895990    -1.1861590     0.4450020
  H        0.2351210     2.8885850     0.4923550
  H       -0.2380210     2.8365620    -1.2118290
  H       -1.4595390     3.0868260     0.0338520
  H        1.9415750    -1.8136360    -1.0094830
  H        1.7264620    -2.4417900     0.6300600
  H        0.8237630    -3.1662910    -0.7010550
  H        2.0935470     1.1833990     1.5571020
  H        3.4676080     1.0418550     0.4271840
  H        2.6734620    -0.4116070     1.0419720
units angstrom
no_reorient  #important for SAPT in psi4, default
symmetry c1  #important for SAPT in psi4, default
}

set PROPERTIES_ORIGIN ["COM"]
properties('MP2/aug-cc-pvtz', properties = ['dipole'])
--------------------------------------------------------------------------

    Molecular point group: c1
  Charge       = 0
  Multiplicity = 1
  Basis Set: AUG-CC-PVTZ
    Blend: AUG-CC-PVTZ
  Basis Set: (AUG-CC-PVTZ AUX)
    Blend: AUG-CC-PVTZ-JKFIT

    Orbital Energies [Eh]
    ---------------------

    Doubly Occupied:

       1A    -15.548432     2A    -11.258110     3A    -11.249643
       4A    -11.236014     5A    -11.231985     6A    -11.228338
       7A    -11.225434     8A    -11.224263     9A    -11.223013
      10A    -11.214135    11A     -1.231910    12A     -1.132185
      13A     -1.054436    14A     -1.012865    15A     -0.945476
      16A     -0.922363    17A     -0.895434    18A     -0.797696
      19A     -0.781421    20A     -0.696706    21A     -0.660883
      22A     -0.630651    23A     -0.604196    24A     -0.592397
      25A     -0.578941    26A     -0.569806    27A     -0.565354
      28A     -0.556653    29A     -0.552473    30A     -0.532515
      31A     -0.520994    32A     -0.485690    33A     -0.477556
      34A     -0.471023    35A     -0.403429    36A     -0.317104
      37A     -0.302951

  @DF-RHF Final Energy:  -402.96155516739520

   => Energetics <=

    Nuclear Repulsion Energy =            521.6015370344699704
    One-Electron Energy =               -1579.2612337371633657
    Two-Electron Energy =                 654.6981415352983049
    Total Energy =                       -402.9615551673952041
  Basis Set: (AUG-CC-PVTZ AUX)
    Blend: AUG-CC-PVTZ-RI
    Molecular point group: c1

    Geometry (in Angstrom), charge = 0, multiplicity = 1:

       Center              X                  Y                   Z               Mass
    ------------   -----------------  -----------------  -----------------  -----------------
         N            1.665589981516     0.624366336191    -0.460062285634    14.003074004430
         C            0.341855981516     0.163983336191    -0.197360285634    12.000000000000
         C           -0.731849018484     1.071506336191    -0.074930285634    12.000000000000
         C            0.119357981516    -1.225119663809    -0.105862285634    12.000000000000
         C           -2.019159018484     0.573606336191     0.150934714366    12.000000000000
         C           -1.178848018484    -1.683507663809     0.143504714366    12.000000000000
         C           -2.246285018484    -0.796613663809     0.271391714366    12.000000000000
         C           -0.501935018484     2.558032336191    -0.189966285634    12.000000000000
         C            1.245985981516    -2.204376663809    -0.299995285634    12.000000000000
         C            2.541053981516     0.628587336191     0.719090714366    12.000000000000
         H           -2.849812018484     1.271461336191     0.244405714366     1.007825032230
         H           -1.355022018484    -2.756007663809     0.212304714366     1.007825032230
         H            1.632120881516     1.519268636191    -0.825825685634     1.007825032230
         H           -3.250847018484    -1.170754663809     0.454338714366     1.007825032230
         H            0.273872981516     2.903989336191     0.501691714366     1.007825032230
         H           -0.199269018484     2.851966336191    -1.202492285634     1.007825032230
         H           -1.420787018484     3.102230336191     0.043188714366     1.007825032230
         H            1.980326981516    -1.798231663809    -1.000146285634     1.007825032230
         H            1.765213981516    -2.426385663809     0.639396714366     1.007825032230
         H            0.862514981516    -3.150886663809    -0.691718285634     1.007825032230
         H            2.132298981516     1.198803336191     1.566438714366     1.007825032230
         H            3.506359981516     1.057259336191     0.436520714366     1.007825032230
         H            2.712213981516    -0.396202663809     1.051308714366     1.007825032230

  Basis Set: AUG-CC-PVTZ
    Blend: AUG-CC-PVTZ
  Basis Set: (AUG-CC-PVTZ AUX)
    Blend: AUG-CC-PVTZ-JKFIT
	 Reference Energy          =    -402.9615551673952041 [Eh]
	 Singles Energy            =      -0.0000000000000000 [Eh]
	 Same-Spin Energy          =      -0.4475956150563616 [Eh]
	 Opposite-Spin Energy      =      -1.4649233099306362 [Eh]
	 Correlation Energy        =      -1.9125189249869978 [Eh]
	 Total Energy              =    -404.8740740923822159 [Eh]

	 ================> DF-SCS-MP2 Energies <==================
	-----------------------------------------------------------
	 SCS Same-Spin Scale       =       0.3333333333333333 [-]
	 SCS Opposite-Spin Scale   =       1.2000000000000000 [-]
	 SCS Same-Spin Energy      =      -0.1491985383521205 [Eh]
	 SCS Opposite-Spin Energy  =      -1.7579079719167634 [Eh]
	 SCS Correlation Energy    =      -1.9071065102688840 [Eh]
	 SCS Total Energy          =    -404.8686616776640790 [Eh]
	-----------------------------------------------------------

  Dipole Moment: [D]
     X:     0.5399      Y:     1.0567      Z:     0.5282     Total:     1.2989

*** Psi4 exiting successfully. Buy a developer a beer!
