                               Psi4 1.4a3.dev225

  ==> Input File <==

--------------------------------------------------------------------------
#psi4
#
memory 32 gb

molecule  {
0 1
  N        1.6268380     0.6089620    -0.4693990
  C        0.3031040     0.1485790    -0.2066970
  C       -0.7706010     1.0561020    -0.0842670
  C        0.0806060    -1.2405240    -0.1151990
  C       -2.0579110     0.5582020     0.1415980
  C       -1.2176000    -1.6989120     0.1341680
  C       -2.2850370    -0.8120180     0.2620550
  C       -0.5406870     2.5426280    -0.1993030
  C        1.2072340    -2.2197810    -0.3093320
  C        2.5023020     0.6131830     0.7097540
  H       -2.8885640     1.2560570     0.2350690
  H       -1.3937740    -2.7714120     0.2029680
  H        1.5916390     1.5501200    -0.8540680
  H       -3.2895990    -1.1861590     0.4450020
  H        0.2351210     2.8885850     0.4923550
  H       -0.2380210     2.8365620    -1.2118290
  H       -1.4595390     3.0868260     0.0338520
  H        1.9415750    -1.8136360    -1.0094830
  H        1.7264620    -2.4417900     0.6300600
  H        0.8062335    -3.2095584    -0.7189617
  H        2.0935470     1.1833990     1.5571020
  H        3.4676080     1.0418550     0.4271840
  H        2.6734620    -0.4116070     1.0419720
units angstrom
no_reorient  #important for SAPT in psi4, default
symmetry c1  #important for SAPT in psi4, default
}

set PROPERTIES_ORIGIN ["COM"]
properties('MP2/aug-cc-pvtz', properties = ['dipole'])
--------------------------------------------------------------------------

    Molecular point group: c1
  Charge       = 0
  Multiplicity = 1
  Basis Set: AUG-CC-PVTZ
    Blend: AUG-CC-PVTZ
  Basis Set: (AUG-CC-PVTZ AUX)
    Blend: AUG-CC-PVTZ-JKFIT

    Orbital Energies [Eh]
    ---------------------

    Doubly Occupied:

       1A    -15.554118     2A    -11.258610     3A    -11.249950
       4A    -11.236090     5A    -11.232467     6A    -11.228549
       7A    -11.225544     8A    -11.224337     9A    -11.223104
      10A    -11.220151    11A     -1.226871    12A     -1.130969
      13A     -1.053980    14A     -1.012149    15A     -0.944409
      16A     -0.921304    17A     -0.891396    18A     -0.794665
      19A     -0.780425    20A     -0.692678    21A     -0.660904
      22A     -0.629321    23A     -0.603752    24A     -0.591777
      25A     -0.579045    26A     -0.567169    27A     -0.565144
      28A     -0.554202    29A     -0.552503    30A     -0.531046
      31A     -0.517009    32A     -0.485710    33A     -0.476633
      34A     -0.470553    35A     -0.402766    36A     -0.317149
      37A     -0.302984

  @DF-RHF Final Energy:  -402.95960454761325

   => Energetics <=

    Nuclear Repulsion Energy =            521.0861266224742394
    One-Electron Energy =               -1578.2725953802914773
    Two-Electron Energy =                 654.2268642102039848
    Total Energy =                       -402.9596045476132531
  Basis Set: (AUG-CC-PVTZ AUX)
    Blend: AUG-CC-PVTZ-RI
    Molecular point group: c1

    Geometry (in Angstrom), charge = 0, multiplicity = 1:

       Center              X                  Y                   Z               Mass
    ------------   -----------------  -----------------  -----------------  -----------------
         N            1.665733648547     0.624344044729    -0.459787681345    14.003074004430
         C            0.341999648547     0.163961044729    -0.197085681345    12.000000000000
         C           -0.731705351453     1.071484044729    -0.074655681345    12.000000000000
         C            0.119501648547    -1.225141955271    -0.105587681345    12.000000000000
         C           -2.019015351453     0.573584044729     0.151209318655    12.000000000000
         C           -1.178704351453    -1.683529955271     0.143779318655    12.000000000000
         C           -2.246141351453    -0.796635955271     0.271666318655    12.000000000000
         C           -0.501791351453     2.558010044729    -0.189691681345    12.000000000000
         C            1.246129648547    -2.204398955271    -0.299720681345    12.000000000000
         C            2.541197648547     0.628565044729     0.719365318655    12.000000000000
         H           -2.849668351453     1.271439044729     0.244680318655     1.007825032230
         H           -1.354878351453    -2.756029955271     0.212579318655     1.007825032230
         H            1.630534648547     1.565502044729    -0.844456681345     1.007825032230
         H           -3.250703351453    -1.170776955271     0.454613318655     1.007825032230
         H            0.274016648547     2.903967044729     0.501966318655     1.007825032230
         H           -0.199125351453     2.851944044729    -1.202217681345     1.007825032230
         H           -1.420643351453     3.102208044729     0.043463318655     1.007825032230
         H            1.980470648547    -1.798253955271    -0.999871681345     1.007825032230
         H            1.765357648547    -2.426407955271     0.639671318655     1.007825032230
         H            0.845129148547    -3.194176355271    -0.709350381345     1.007825032230
         H            2.132442648547     1.198781044729     1.566713318655     1.007825032230
         H            3.506503648547     1.057237044729     0.436795318655     1.007825032230
         H            2.712357648547    -0.396224955271     1.051583318655     1.007825032230

  Basis Set: AUG-CC-PVTZ
    Blend: AUG-CC-PVTZ
  Basis Set: (AUG-CC-PVTZ AUX)
    Blend: AUG-CC-PVTZ-JKFIT
	 Reference Energy          =    -402.9596045476132531 [Eh]
	 Singles Energy            =      -0.0000000000000000 [Eh]
	 Same-Spin Energy          =      -0.4480043868746419 [Eh]
	 Opposite-Spin Energy      =      -1.4662862175283486 [Eh]
	 Correlation Energy        =      -1.9142906044029906 [Eh]
	 Total Energy              =    -404.8738951520162459 [Eh]

	 ================> DF-SCS-MP2 Energies <==================
	-----------------------------------------------------------
	 SCS Same-Spin Scale       =       0.3333333333333333 [-]
	 SCS Opposite-Spin Scale   =       1.2000000000000000 [-]
	 SCS Same-Spin Energy      =      -0.1493347956248806 [Eh]
	 SCS Opposite-Spin Energy  =      -1.7595434610340184 [Eh]
	 SCS Correlation Energy    =      -1.9088782566588991 [Eh]
	 SCS Total Energy          =    -404.8684828042721620 [Eh]
	-----------------------------------------------------------

  Dipole Moment: [D]
     X:     0.5371      Y:     1.1074      Z:     0.5311     Total:     1.3404

*** Psi4 exiting successfully. Buy a developer a beer!
