                               Psi4 1.4a3.dev225

  ==> Input File <==

--------------------------------------------------------------------------
#psi4
#
memory 32 gb

molecule  {
0 1
  N        1.6268380     0.6089620    -0.4693990
  C        0.3031040     0.1485790    -0.2066970
  C       -0.7706010     1.0561020    -0.0842670
  C        0.0806060    -1.2405240    -0.1151990
  C       -2.0579110     0.5582020     0.1415980
  C       -1.2176000    -1.6989120     0.1341680
  C       -2.2850370    -0.8120180     0.2620550
  C       -0.5406870     2.5426280    -0.1993030
  C        1.2072340    -2.2197810    -0.3093320
  C        2.5023020     0.6131830     0.7097540
  H       -2.8885640     1.2560570     0.2350690
  H       -1.3937740    -2.7714120     0.2029680
  H        1.5916390     1.5501200    -0.8540680
  H       -3.2895990    -1.1861590     0.4450020
  H        0.2351210     2.8885850     0.4923550
  H       -0.2380210     2.8365620    -1.2118290
  H       -1.4595390     3.0868260     0.0338520
  H        1.9415750    -1.8136360    -1.0094830
  H        1.7264620    -2.4417900     0.6300600
  H        0.7536452    -3.3393607    -0.7726817
  H        2.0935470     1.1833990     1.5571020
  H        3.4676080     1.0418550     0.4271840
  H        2.6734620    -0.4116070     1.0419720
units angstrom
no_reorient  #important for SAPT in psi4, default
symmetry c1  #important for SAPT in psi4, default
}

set PROPERTIES_ORIGIN ["COM"]
properties('MP2/aug-cc-pvtz', properties = ['dipole'])
--------------------------------------------------------------------------

    Molecular point group: c1
  Charge       = 0
  Multiplicity = 1
  Basis Set: AUG-CC-PVTZ
    Blend: AUG-CC-PVTZ
  Basis Set: (AUG-CC-PVTZ AUX)
    Blend: AUG-CC-PVTZ-JKFIT

    Orbital Energies [Eh]
    ---------------------

    Doubly Occupied:

       1A    -15.555309     2A    -11.260081     3A    -11.251088
       4A    -11.237172     5A    -11.236849     6A    -11.234005
       7A    -11.229197     8A    -11.226232     9A    -11.224836
      10A    -11.223565    11A     -1.228074    12A     -1.131634
      13A     -1.053618    14A     -1.012107    15A     -0.943142
      16A     -0.919875    17A     -0.890062    18A     -0.795062
      19A     -0.778808    20A     -0.693282    21A     -0.661671
      22A     -0.629439    23A     -0.604814    24A     -0.592739
      25A     -0.580006    26A     -0.568187    27A     -0.564631
      28A     -0.553860    29A     -0.547773    30A     -0.532276
      31A     -0.502034    32A     -0.487123    33A     -0.475545
      34A     -0.466249    35A     -0.403870    36A     -0.317475
      37A     -0.303903

  @DF-RHF Final Energy:  -402.94154240958795

   => Energetics <=

    Nuclear Repulsion Energy =            520.4710227010544941
    One-Electron Energy =               -1576.9939465626353012
    Two-Electron Energy =                 653.5813814519927973
    Total Energy =                       -402.9415424095878961
  Basis Set: (AUG-CC-PVTZ AUX)
    Blend: AUG-CC-PVTZ-RI
    Molecular point group: c1

    Geometry (in Angstrom), charge = 0, multiplicity = 1:

       Center              X                  Y                   Z               Mass
    ------------   -----------------  -----------------  -----------------  -----------------
         N            1.666125935167     0.625312315344    -0.459386952718    14.003074004430
         C            0.342391935167     0.164929315344    -0.196684952718    12.000000000000
         C           -0.731313064833     1.072452315344    -0.074254952718    12.000000000000
         C            0.119893935167    -1.224173684656    -0.105186952718    12.000000000000
         C           -2.018623064833     0.574552315344     0.151610047282    12.000000000000
         C           -1.178312064833    -1.682561684656     0.144180047282    12.000000000000
         C           -2.245749064833    -0.795667684656     0.272067047282    12.000000000000
         C           -0.501399064833     2.558978315344    -0.189290952718    12.000000000000
         C            1.246521935167    -2.203430684656    -0.299319952718    12.000000000000
         C            2.541589935167     0.629533315344     0.719766047282    12.000000000000
         H           -2.849276064833     1.272407315344     0.245081047282     1.007825032230
         H           -1.354486064833    -2.755061684656     0.212980047282     1.007825032230
         H            1.630926935167     1.566470315344    -0.844055952718     1.007825032230
         H           -3.250311064833    -1.169808684656     0.455014047282     1.007825032230
         H            0.274408935167     2.904935315344     0.502367047282     1.007825032230
         H           -0.198733064833     2.852912315344    -1.201816952718     1.007825032230
         H           -1.420251064833     3.103176315344     0.043864047282     1.007825032230
         H            1.980862935167    -1.797285684656    -0.999470952718     1.007825032230
         H            1.765749935167    -2.425439684656     0.640072047282     1.007825032230
         H            0.792933135167    -3.323010384656    -0.762669652718     1.007825032230
         H            2.132834935167     1.199749315344     1.567114047282     1.007825032230
         H            3.506895935167     1.058205315344     0.437196047282     1.007825032230
         H            2.712749935167    -0.395256684656     1.051984047282     1.007825032230

  Basis Set: AUG-CC-PVTZ
    Blend: AUG-CC-PVTZ
  Basis Set: (AUG-CC-PVTZ AUX)
    Blend: AUG-CC-PVTZ-JKFIT
	 Reference Energy          =    -402.9415424095879530 [Eh]
	 Singles Energy            =      -0.0000000000000000 [Eh]
	 Same-Spin Energy          =      -0.4480415614621325 [Eh]
	 Opposite-Spin Energy      =      -1.4676101073578138 [Eh]
	 Correlation Energy        =      -1.9156516688199463 [Eh]
	 Total Energy              =    -404.8571940784078720 [Eh]

	 ================> DF-SCS-MP2 Energies <==================
	-----------------------------------------------------------
	 SCS Same-Spin Scale       =       0.3333333333333333 [-]
	 SCS Opposite-Spin Scale   =       1.2000000000000000 [-]
	 SCS Same-Spin Energy      =      -0.1493471871540442 [Eh]
	 SCS Opposite-Spin Energy  =      -1.7611321288293766 [Eh]
	 SCS Correlation Energy    =      -1.9104793159834208 [Eh]
	 SCS Total Energy          =    -404.8520217255713760 [Eh]
	-----------------------------------------------------------

  Dipole Moment: [D]
     X:     0.5306      Y:     1.2366      Z:     0.5714     Total:     1.4619

*** Psi4 exiting successfully. Buy a developer a beer!
