                               Psi4 1.4a3.dev225

  ==> Input File <==

--------------------------------------------------------------------------
#psi4
#
memory 32 gb

molecule  {
0 1
  N        1.6268380     0.6089620    -0.4693990
  C        0.2855888     0.1920063    -0.2235633
  C       -0.7706010     1.0561020    -0.0842670
  C        0.0806060    -1.2405240    -0.1151990
  C       -2.0579110     0.5582020     0.1415980
  C       -1.2176000    -1.6989120     0.1341680
  C       -2.2850370    -0.8120180     0.2620550
  C       -0.5406870     2.5426280    -0.1993030
  C        1.2072340    -2.2197810    -0.3093320
  C        2.5023020     0.6131830     0.7097540
  H       -2.8885640     1.2560570     0.2350690
  H       -1.3937740    -2.7714120     0.2029680
  H        1.5916390     1.5501200    -0.8540680
  H       -3.2895990    -1.1861590     0.4450020
  H        0.2351210     2.8885850     0.4923550
  H       -0.2380210     2.8365620    -1.2118290
  H       -1.4595390     3.0868260     0.0338520
  H        1.9415750    -1.8136360    -1.0094830
  H        1.7264620    -2.4417900     0.6300600
  H        0.8237630    -3.1662910    -0.7010550
  H        2.0935470     1.1833990     1.5571020
  H        3.4676080     1.0418550     0.4271840
  H        2.6734620    -0.4116070     1.0419720
units angstrom
no_reorient  #important for SAPT in psi4, default
symmetry c1  #important for SAPT in psi4, default
}

set PROPERTIES_ORIGIN ["COM"]
properties('MP2/aug-cc-pvtz', properties = ['dipole'])
--------------------------------------------------------------------------

    Molecular point group: c1
  Charge       = 0
  Multiplicity = 1
  Basis Set: AUG-CC-PVTZ
    Blend: AUG-CC-PVTZ
  Basis Set: (AUG-CC-PVTZ AUX)
    Blend: AUG-CC-PVTZ-JKFIT

    Orbital Energies [Eh]
    ---------------------

    Doubly Occupied:

       1A    -15.554235     2A    -11.257834     3A    -11.250405
       4A    -11.236271     5A    -11.231246     6A    -11.227361
       7A    -11.225503     8A    -11.224208     9A    -11.222290
      10A    -11.214812    11A     -1.227030    12A     -1.131011
      13A     -1.054599    14A     -1.011990    15A     -0.945933
      16A     -0.922241    17A     -0.892472    18A     -0.791207
      19A     -0.784641    20A     -0.690824    21A     -0.662226
      22A     -0.626810    23A     -0.604792    24A     -0.592292
      25A     -0.579161    26A     -0.568920    27A     -0.564716
      28A     -0.556520    29A     -0.551851    30A     -0.530548
      31A     -0.521508    32A     -0.488122    33A     -0.472530
      34A     -0.469238    35A     -0.404657    36A     -0.318916
      37A     -0.301136

  @DF-RHF Final Energy:  -402.95886437316989

   => Energetics <=

    Nuclear Repulsion Energy =            521.2633683984161053
    One-Electron Energy =               -1578.6243543588611828
    Two-Electron Energy =                 654.4021215872752464
    Total Energy =                       -402.9588643731698312
  Basis Set: (AUG-CC-PVTZ AUX)
    Blend: AUG-CC-PVTZ-RI
    Molecular point group: c1

    Geometry (in Angstrom), charge = 0, multiplicity = 1:

       Center              X                  Y                   Z               Mass
    ------------   -----------------  -----------------  -----------------  -----------------
         N            1.667158584833     0.620164077983    -0.458423194070    14.003074004430
         C            0.325909384833     0.203208377983    -0.212587494070    12.000000000000
         C           -0.730280415167     1.067304077983    -0.073291194070    12.000000000000
         C            0.120926584833    -1.229321922017    -0.104223194070    12.000000000000
         C           -2.017590415167     0.569404077983     0.152573805930    12.000000000000
         C           -1.177279415167    -1.687709922017     0.145143805930    12.000000000000
         C           -2.244716415167    -0.800815922017     0.273030805930    12.000000000000
         C           -0.500366415167     2.553830077983    -0.188327194070    12.000000000000
         C            1.247554584833    -2.208578922017    -0.298356194070    12.000000000000
         C            2.542622584833     0.624385077983     0.720729805930    12.000000000000
         H           -2.848243415167     1.267259077983     0.246044805930     1.007825032230
         H           -1.353453415167    -2.760209922017     0.213943805930     1.007825032230
         H            1.631959584833     1.561322077983    -0.843092194070     1.007825032230
         H           -3.249278415167    -1.174956922017     0.455977805930     1.007825032230
         H            0.275441584833     2.899787077983     0.503330805930     1.007825032230
         H           -0.197700415167     2.847764077983    -1.200853194070     1.007825032230
         H           -1.419218415167     3.098028077983     0.044827805930     1.007825032230
         H            1.981895584833    -1.802433922017    -0.998507194070     1.007825032230
         H            1.766782584833    -2.430587922017     0.641035805930     1.007825032230
         H            0.864083584833    -3.155088922017    -0.690079194070     1.007825032230
         H            2.133867584833     1.194601077983     1.568077805930     1.007825032230
         H            3.507928584833     1.053057077983     0.438159805930     1.007825032230
         H            2.713782584833    -0.400404922017     1.052947805930     1.007825032230

  Basis Set: AUG-CC-PVTZ
    Blend: AUG-CC-PVTZ
  Basis Set: (AUG-CC-PVTZ AUX)
    Blend: AUG-CC-PVTZ-JKFIT
	 Reference Energy          =    -402.9588643731698880 [Eh]
	 Singles Energy            =      -0.0000000000000000 [Eh]
	 Same-Spin Energy          =      -0.4479488874485367 [Eh]
	 Opposite-Spin Energy      =      -1.4660694699013777 [Eh]
	 Correlation Energy        =      -1.9140183573499143 [Eh]
	 Total Energy              =    -404.8728827305197910 [Eh]

	 ================> DF-SCS-MP2 Energies <==================
	-----------------------------------------------------------
	 SCS Same-Spin Scale       =       0.3333333333333333 [-]
	 SCS Opposite-Spin Scale   =       1.2000000000000000 [-]
	 SCS Same-Spin Energy      =      -0.1493162958161789 [Eh]
	 SCS Opposite-Spin Energy  =      -1.7592833638816532 [Eh]
	 SCS Correlation Energy    =      -1.9085996596978321 [Eh]
	 SCS Total Energy          =    -404.8674640328677015 [Eh]
	-----------------------------------------------------------

  Dipole Moment: [D]
     X:     0.5630      Y:     1.0600      Z:     0.5334     Total:     1.3135

*** Psi4 exiting successfully. Buy a developer a beer!
