                               Psi4 1.4a3.dev225

  ==> Input File <==

--------------------------------------------------------------------------
#psi4
#
memory 32 gb

molecule  {
0 1
  N        1.6268380     0.6089620    -0.4693990
  C        0.3031040     0.1485790    -0.2066970
  C       -0.7706010     1.0561020    -0.0842670
  C        0.0806060    -1.2405240    -0.1151990
  C       -2.0579110     0.5582020     0.1415980
  C       -1.2176000    -1.6989120     0.1341680
  C       -2.2850370    -0.8120180     0.2620550
  C       -0.5406870     2.5426280    -0.1993030
  C        1.2072340    -2.2197810    -0.3093320
  C        2.5023020     0.6131830     0.7097540
  H       -2.8885640     1.2560570     0.2350690
  H       -1.3937740    -2.7714120     0.2029680
  H        1.5916390     1.5501200    -0.8540680
  H       -3.2895990    -1.1861590     0.4450020
  H        0.2351210     2.8885850     0.4923550
  H       -0.2380210     2.8365620    -1.2118290
  H       -1.4595390     3.0868260     0.0338520
  H        1.9415750    -1.8136360    -1.0094830
  H        1.7264620    -2.4417900     0.6300600
  H        0.8938808    -2.9932213    -0.6294283
  H        2.0935470     1.1833990     1.5571020
  H        3.4676080     1.0418550     0.4271840
  H        2.6734620    -0.4116070     1.0419720
units angstrom
no_reorient  #important for SAPT in psi4, default
symmetry c1  #important for SAPT in psi4, default
}

set PROPERTIES_ORIGIN ["COM"]
properties('MP2/aug-cc-pvtz', properties = ['dipole'])
--------------------------------------------------------------------------

    Molecular point group: c1
  Charge       = 0
  Multiplicity = 1
  Basis Set: AUG-CC-PVTZ
    Blend: AUG-CC-PVTZ
  Basis Set: (AUG-CC-PVTZ AUX)
    Blend: AUG-CC-PVTZ-JKFIT

    Orbital Energies [Eh]
    ---------------------

    Doubly Occupied:

       1A    -15.552895     2A    -11.257159     3A    -11.248750
       4A    -11.235359     5A    -11.230834     6A    -11.227922
       7A    -11.225046     8A    -11.223978     9A    -11.222890
      10A    -11.189343    11A     -1.225686    12A     -1.130838
      13A     -1.058730    14A     -1.015330    15A     -0.954074
      16A     -0.926548    17A     -0.895148    18A     -0.795409
      19A     -0.785763    20A     -0.692690    21A     -0.660459
      22A     -0.632707    23A     -0.603237    24A     -0.592249
      25A     -0.590575    26A     -0.578014    27A     -0.564567
      28A     -0.560004    29A     -0.551412    30A     -0.530041
      31A     -0.529030    32A     -0.484371    33A     -0.477982
      34A     -0.471081    35A     -0.401657    36A     -0.317071
      37A     -0.302099

  @DF-RHF Final Energy:  -402.92798676106139

   => Energetics <=

    Nuclear Repulsion Energy =            522.3794430097946133
    One-Electron Energy =               -1580.7329619009572070
    Two-Electron Energy =                 655.4255321301012600
    Total Energy =                       -402.9279867610613337
  Basis Set: (AUG-CC-PVTZ AUX)
    Blend: AUG-CC-PVTZ-RI
    Molecular point group: c1

    Geometry (in Angstrom), charge = 0, multiplicity = 1:

       Center              X                  Y                   Z               Mass
    ------------   -----------------  -----------------  -----------------  -----------------
         N            1.665079836519     0.622730260869    -0.460455562886    14.003074004430
         C            0.341345836519     0.162347260869    -0.197753562886    12.000000000000
         C           -0.732359163481     1.069870260869    -0.075323562886    12.000000000000
         C            0.118847836519    -1.226755739131    -0.106255562886    12.000000000000
         C           -2.019669163481     0.571970260869     0.150541437114    12.000000000000
         C           -1.179358163481    -1.685143739131     0.143111437114    12.000000000000
         C           -2.246795163481    -0.798249739131     0.270998437114    12.000000000000
         C           -0.502445163481     2.556396260869    -0.190359562886    12.000000000000
         C            1.245475836519    -2.206012739131    -0.300388562886    12.000000000000
         C            2.540543836519     0.626951260869     0.718697437114    12.000000000000
         H           -2.850322163481     1.269825260869     0.244012437114     1.007825032230
         H           -1.355532163481    -2.757643739131     0.211911437114     1.007825032230
         H            1.629880836519     1.563888260869    -0.845124562886     1.007825032230
         H           -3.251357163481    -1.172390739131     0.453945437114     1.007825032230
         H            0.273362836519     2.902353260869     0.501298437114     1.007825032230
         H           -0.199779163481     2.850330260869    -1.202885562886     1.007825032230
         H           -1.421297163481     3.100594260869     0.042795437114     1.007825032230
         H            1.979816836519    -1.799867739131    -1.000539562886     1.007825032230
         H            1.764703836519    -2.428021739131     0.639003437114     1.007825032230
         H            0.932122636519    -2.979453039131    -0.620484862886     1.007825032230
         H            2.131788836519     1.197167260869     1.566045437114     1.007825032230
         H            3.505849836519     1.055623260869     0.436127437114     1.007825032230
         H            2.711703836519    -0.397838739131     1.050915437114     1.007825032230

  Basis Set: AUG-CC-PVTZ
    Blend: AUG-CC-PVTZ
  Basis Set: (AUG-CC-PVTZ AUX)
    Blend: AUG-CC-PVTZ-JKFIT
	 Reference Energy          =    -402.9279867610613906 [Eh]
	 Singles Energy            =      -0.0000000000000000 [Eh]
	 Same-Spin Energy          =      -0.4480436952395905 [Eh]
	 Opposite-Spin Energy      =      -1.4651838784072602 [Eh]
	 Correlation Energy        =      -1.9132275736468507 [Eh]
	 Total Energy              =    -404.8412143347082406 [Eh]

	 ================> DF-SCS-MP2 Energies <==================
	-----------------------------------------------------------
	 SCS Same-Spin Scale       =       0.3333333333333333 [-]
	 SCS Opposite-Spin Scale   =       1.2000000000000000 [-]
	 SCS Same-Spin Energy      =      -0.1493478984131968 [Eh]
	 SCS Opposite-Spin Energy  =      -1.7582206540887122 [Eh]
	 SCS Correlation Energy    =      -1.9075685525019090 [Eh]
	 SCS Total Energy          =    -404.8355553135633045 [Eh]
	-----------------------------------------------------------

  Dipole Moment: [D]
     X:     0.5454      Y:     0.9772      Z:     0.4938     Total:     1.2232

*** Psi4 exiting successfully. Buy a developer a beer!
