                               Psi4 1.4a3.dev225

  ==> Input File <==

--------------------------------------------------------------------------
#psi4
#
memory 32 gb

molecule  {
0 1
  N        1.6268380     0.6089620    -0.4693990
  C        0.3031040     0.1485790    -0.2066970
  C       -0.7706010     1.0561020    -0.0842670
  C        0.0806060    -1.2405240    -0.1151990
  C       -2.0579110     0.5582020     0.1415980
  C       -1.2176000    -1.6989120     0.1341680
  C       -2.2697188    -0.8247453     0.2602198
  C       -0.5406870     2.5426280    -0.1993030
  C        1.2072340    -2.2197810    -0.3093320
  C        2.5023020     0.6131830     0.7097540
  H       -2.8885640     1.2560570     0.2350690
  H       -1.3937740    -2.7714120     0.2029680
  H        1.5916390     1.5501200    -0.8540680
  H       -3.2895990    -1.1861590     0.4450020
  H        0.2351210     2.8885850     0.4923550
  H       -0.2380210     2.8365620    -1.2118290
  H       -1.4595390     3.0868260     0.0338520
  H        1.9415750    -1.8136360    -1.0094830
  H        1.7264620    -2.4417900     0.6300600
  H        0.8237630    -3.1662910    -0.7010550
  H        2.0935470     1.1833990     1.5571020
  H        3.4676080     1.0418550     0.4271840
  H        2.6734620    -0.4116070     1.0419720
units angstrom
no_reorient  #important for SAPT in psi4, default
symmetry c1  #important for SAPT in psi4, default
}

set PROPERTIES_ORIGIN ["COM"]
properties('MP2/aug-cc-pvtz', properties = ['dipole'])
--------------------------------------------------------------------------

    Molecular point group: c1
  Charge       = 0
  Multiplicity = 1
  Basis Set: AUG-CC-PVTZ
    Blend: AUG-CC-PVTZ
  Basis Set: (AUG-CC-PVTZ AUX)
    Blend: AUG-CC-PVTZ-JKFIT

    Orbital Energies [Eh]
    ---------------------

    Doubly Occupied:

       1A    -15.553656     2A    -11.257870     3A    -11.249530
       4A    -11.236104     5A    -11.231929     6A    -11.228410
       7A    -11.225932     8A    -11.223983     9A    -11.221089
      10A    -11.214102    11A     -1.226480    12A     -1.131792
      13A     -1.054753    14A     -1.012635    15A     -0.945362
      16A     -0.923206    17A     -0.891537    18A     -0.793268
      19A     -0.781992    20A     -0.692800    21A     -0.661516
      22A     -0.627583    23A     -0.603332    24A     -0.591734
      25A     -0.579058    26A     -0.569072    27A     -0.565096
      28A     -0.556665    29A     -0.553118    30A     -0.530170
      31A     -0.520702    32A     -0.486859    33A     -0.474682
      34A     -0.471679    35A     -0.402668    36A     -0.317902
      37A     -0.302558

  @DF-RHF Final Energy:  -402.96135273089772

   => Energetics <=

    Nuclear Repulsion Energy =            521.5229085344394662
    One-Electron Energy =               -1579.1468696573513171
    Two-Electron Energy =                 654.6626083920141355
    Total Energy =                       -402.9613527308977154
  Basis Set: (AUG-CC-PVTZ AUX)
    Blend: AUG-CC-PVTZ-RI
    Molecular point group: c1

    Geometry (in Angstrom), charge = 0, multiplicity = 1:

       Center              X                  Y                   Z               Mass
    ------------   -----------------  -----------------  -----------------  -----------------
         N            1.664242324258     0.625151726112    -0.459758255451    14.003074004430
         C            0.340508324258     0.164768726112    -0.197056255451    12.000000000000
         C           -0.733196675742     1.072291726112    -0.074626255451    12.000000000000
         C            0.118010324258    -1.224334273888    -0.105558255451    12.000000000000
         C           -2.020506675742     0.574391726112     0.151238744549    12.000000000000
         C           -1.180195675742    -1.682722273888     0.143808744549    12.000000000000
         C           -2.232314475742    -0.808555573888     0.269860544549    12.000000000000
         C           -0.503282675742     2.558817726112    -0.189662255451    12.000000000000
         C            1.244638324258    -2.203591273888    -0.299691255451    12.000000000000
         C            2.539706324258     0.629372726112     0.719394744549    12.000000000000
         H           -2.851159675742     1.272246726112     0.244709744549     1.007825032230
         H           -1.356369675742    -2.755222273888     0.212608744549     1.007825032230
         H            1.629043324258     1.566309726112    -0.844427255451     1.007825032230
         H           -3.252194675742    -1.169969273888     0.454642744549     1.007825032230
         H            0.272525324258     2.904774726112     0.501995744549     1.007825032230
         H           -0.200616675742     2.852751726112    -1.202188255451     1.007825032230
         H           -1.422134675742     3.103015726112     0.043492744549     1.007825032230
         H            1.978979324258    -1.797446273888    -0.999842255451     1.007825032230
         H            1.763866324258    -2.425600273888     0.639700744549     1.007825032230
         H            0.861167324258    -3.150101273888    -0.691414255451     1.007825032230
         H            2.130951324258     1.199588726112     1.566742744549     1.007825032230
         H            3.505012324258     1.058044726112     0.436824744549     1.007825032230
         H            2.710866324258    -0.395417273888     1.051612744549     1.007825032230

  Basis Set: AUG-CC-PVTZ
    Blend: AUG-CC-PVTZ
  Basis Set: (AUG-CC-PVTZ AUX)
    Blend: AUG-CC-PVTZ-JKFIT
	 Reference Energy          =    -402.9613527308977154 [Eh]
	 Singles Energy            =      -0.0000000000000000 [Eh]
	 Same-Spin Energy          =      -0.4479834705563643 [Eh]
	 Opposite-Spin Energy      =      -1.4658643286871651 [Eh]
	 Correlation Energy        =      -1.9138477992435294 [Eh]
	 Total Energy              =    -404.8752005301412282 [Eh]

	 ================> DF-SCS-MP2 Energies <==================
	-----------------------------------------------------------
	 SCS Same-Spin Scale       =       0.3333333333333333 [-]
	 SCS Opposite-Spin Scale   =       1.2000000000000000 [-]
	 SCS Same-Spin Energy      =      -0.1493278235187881 [Eh]
	 SCS Opposite-Spin Energy  =      -1.7590371944245982 [Eh]
	 SCS Correlation Energy    =      -1.9083650179433862 [Eh]
	 SCS Total Energy          =    -404.8697177488410830 [Eh]
	-----------------------------------------------------------

  Dipole Moment: [D]
     X:     0.5367      Y:     1.0774      Z:     0.5201     Total:     1.3113

*** Psi4 exiting successfully. Buy a developer a beer!
