                               Psi4 1.4a3.dev225

  ==> Input File <==

--------------------------------------------------------------------------
#psi4
#
memory 32 gb

molecule  {
0 1
  N        1.6268380     0.6089620    -0.4693990
  C        0.2746578     0.1720368    -0.3513245
  C       -0.7706010     1.0561020    -0.0842670
  C        0.0806060    -1.2405240    -0.1151990
  C       -2.0579110     0.5582020     0.1415980
  C       -1.2176000    -1.6989120     0.1341680
  C       -2.2850370    -0.8120180     0.2620550
  C       -0.5406870     2.5426280    -0.1993030
  C        1.2072340    -2.2197810    -0.3093320
  C        2.5023020     0.6131830     0.7097540
  H       -2.8885640     1.2560570     0.2350690
  H       -1.3937740    -2.7714120     0.2029680
  H        1.5916390     1.5501200    -0.8540680
  H       -3.2895990    -1.1861590     0.4450020
  H        0.2351210     2.8885850     0.4923550
  H       -0.2380210     2.8365620    -1.2118290
  H       -1.4595390     3.0868260     0.0338520
  H        1.9415750    -1.8136360    -1.0094830
  H        1.7264620    -2.4417900     0.6300600
  H        0.8237630    -3.1662910    -0.7010550
  H        2.0935470     1.1833990     1.5571020
  H        3.4676080     1.0418550     0.4271840
  H        2.6734620    -0.4116070     1.0419720
units angstrom
no_reorient  #important for SAPT in psi4, default
symmetry c1  #important for SAPT in psi4, default
}

set PROPERTIES_ORIGIN ["COM"]
properties('MP2/aug-cc-pvtz', properties = ['dipole'])
--------------------------------------------------------------------------

    Molecular point group: c1
  Charge       = 0
  Multiplicity = 1
  Basis Set: AUG-CC-PVTZ
    Blend: AUG-CC-PVTZ
  Basis Set: (AUG-CC-PVTZ AUX)
    Blend: AUG-CC-PVTZ-JKFIT

    Orbital Energies [Eh]
    ---------------------

    Doubly Occupied:

       1A    -15.551651     2A    -11.260304     3A    -11.251763
       4A    -11.236429     5A    -11.234744     6A    -11.227439
       7A    -11.226094     8A    -11.224673     9A    -11.222741
      10A    -11.214723    11A     -1.223620    12A     -1.129907
      13A     -1.054172    14A     -1.012332    15A     -0.946736
      16A     -0.922417    17A     -0.892069    18A     -0.791003
      19A     -0.781749    20A     -0.688242    21A     -0.661647
      22A     -0.626079    23A     -0.607215    24A     -0.592239
      25A     -0.577633    26A     -0.569026    27A     -0.564908
      28A     -0.557073    29A     -0.552843    30A     -0.529746
      31A     -0.520984    32A     -0.487235    33A     -0.475377
      34A     -0.467416    35A     -0.400925    36A     -0.316857
      37A     -0.300851

  @DF-RHF Final Energy:  -402.95238184665538

   => Energetics <=

    Nuclear Repulsion Energy =            520.7306475660242313
    One-Electron Energy =               -1577.5643325487862967
    Two-Electron Energy =                 653.8813031361065669
    Total Energy =                       -402.9523818466553848
  Basis Set: (AUG-CC-PVTZ AUX)
    Blend: AUG-CC-PVTZ-RI
    Molecular point group: c1

    Geometry (in Angstrom), charge = 0, multiplicity = 1:

       Center              X                  Y                   Z               Mass
    ------------   -----------------  -----------------  -----------------  -----------------
         N            1.668129475583     0.621937767749    -0.447075452121    14.003074004430
         C            0.315949275583     0.185012567749    -0.329000952121    12.000000000000
         C           -0.729309524417     1.069077767749    -0.061943452121    12.000000000000
         C            0.121897475583    -1.227548232251    -0.092875452121    12.000000000000
         C           -2.016619524417     0.571177767749     0.163921547879    12.000000000000
         C           -1.176308524417    -1.685936232251     0.156491547879    12.000000000000
         C           -2.243745524417    -0.799042232251     0.284378547879    12.000000000000
         C           -0.499395524417     2.555603767749    -0.176979452121    12.000000000000
         C            1.248525475583    -2.206805232251    -0.287008452121    12.000000000000
         C            2.543593475583     0.626158767749     0.732077547879    12.000000000000
         H           -2.847272524417     1.269032767749     0.257392547879     1.007825032230
         H           -1.352482524417    -2.758436232251     0.225291547879     1.007825032230
         H            1.632930475583     1.563095767749    -0.831744452121     1.007825032230
         H           -3.248307524417    -1.173183232251     0.467325547879     1.007825032230
         H            0.276412475583     2.901560767749     0.514678547879     1.007825032230
         H           -0.196729524417     2.849537767749    -1.189505452121     1.007825032230
         H           -1.418247524417     3.099801767749     0.056175547879     1.007825032230
         H            1.982866475583    -1.800660232251    -0.987159452121     1.007825032230
         H            1.767753475583    -2.428814232251     0.652383547879     1.007825032230
         H            0.865054475583    -3.153315232251    -0.678731452121     1.007825032230
         H            2.134838475583     1.196374767749     1.579425547879     1.007825032230
         H            3.508899475583     1.054830767749     0.449507547879     1.007825032230
         H            2.714753475583    -0.398631232251     1.064295547879     1.007825032230

  Basis Set: AUG-CC-PVTZ
    Blend: AUG-CC-PVTZ
  Basis Set: (AUG-CC-PVTZ AUX)
    Blend: AUG-CC-PVTZ-JKFIT
	 Reference Energy          =    -402.9523818466553848 [Eh]
	 Singles Energy            =      -0.0000000000000000 [Eh]
	 Same-Spin Energy          =      -0.4482545050248625 [Eh]
	 Opposite-Spin Energy      =      -1.4666124179829314 [Eh]
	 Correlation Energy        =      -1.9148669230077939 [Eh]
	 Total Energy              =    -404.8672487696632061 [Eh]

	 ================> DF-SCS-MP2 Energies <==================
	-----------------------------------------------------------
	 SCS Same-Spin Scale       =       0.3333333333333333 [-]
	 SCS Opposite-Spin Scale   =       1.2000000000000000 [-]
	 SCS Same-Spin Energy      =      -0.1494181683416208 [Eh]
	 SCS Opposite-Spin Energy  =      -1.7599349015795176 [Eh]
	 SCS Correlation Energy    =      -1.9093530699211385 [Eh]
	 SCS Total Energy          =    -404.8617349165765518 [Eh]
	-----------------------------------------------------------

  Dipole Moment: [D]
     X:     0.5263      Y:     1.0287      Z:     0.5545     Total:     1.2817

*** Psi4 exiting successfully. Buy a developer a beer!
