                               Psi4 1.4a3.dev225

  ==> Input File <==

--------------------------------------------------------------------------
#psi4
#
memory 32 gb

molecule  {
0 1
  N        1.6268380     0.6089620    -0.4693990
  C        0.3031040     0.1485790    -0.2066970
  C       -0.7706010     1.0561020    -0.0842670
  C        0.0806060    -1.2405240    -0.1151990
  C       -2.0106561     0.5488940     0.1346475
  C       -1.2176000    -1.6989120     0.1341680
  C       -2.2850370    -0.8120180     0.2620550
  C       -0.5406870     2.5426280    -0.1993030
  C        1.2072340    -2.2197810    -0.3093320
  C        2.5023020     0.6131830     0.7097540
  H       -2.8885640     1.2560570     0.2350690
  H       -1.3937740    -2.7714120     0.2029680
  H        1.5916390     1.5501200    -0.8540680
  H       -3.2895990    -1.1861590     0.4450020
  H        0.2351210     2.8885850     0.4923550
  H       -0.2380210     2.8365620    -1.2118290
  H       -1.4595390     3.0868260     0.0338520
  H        1.9415750    -1.8136360    -1.0094830
  H        1.7264620    -2.4417900     0.6300600
  H        0.8237630    -3.1662910    -0.7010550
  H        2.0935470     1.1833990     1.5571020
  H        3.4676080     1.0418550     0.4271840
  H        2.6734620    -0.4116070     1.0419720
units angstrom
no_reorient  #important for SAPT in psi4, default
symmetry c1  #important for SAPT in psi4, default
}

set PROPERTIES_ORIGIN ["COM"]
properties('MP2/aug-cc-pvtz', properties = ['dipole'])
--------------------------------------------------------------------------

    Molecular point group: c1
  Charge       = 0
  Multiplicity = 1
  Basis Set: AUG-CC-PVTZ
    Blend: AUG-CC-PVTZ
  Basis Set: (AUG-CC-PVTZ AUX)
    Blend: AUG-CC-PVTZ-JKFIT

    Orbital Energies [Eh]
    ---------------------

    Doubly Occupied:

       1A    -15.553854     2A    -11.258651     3A    -11.249796
       4A    -11.231424     5A    -11.230638     6A    -11.228764
       7A    -11.224773     8A    -11.223965     9A    -11.222942
      10A    -11.213762    11A     -1.227187    12A     -1.134848
      13A     -1.056884    14A     -1.012042    15A     -0.945566
      16A     -0.923176    17A     -0.892124    18A     -0.798095
      19A     -0.778215    20A     -0.692906    21A     -0.659426
      22A     -0.631714    23A     -0.602829    24A     -0.591880
      25A     -0.576680    26A     -0.568332    27A     -0.565558
      28A     -0.557347    29A     -0.548530    30A     -0.531634
      31A     -0.521414    32A     -0.484895    33A     -0.477258
      34A     -0.471755    35A     -0.401985    36A     -0.321664
      37A     -0.301435

  @DF-RHF Final Energy:  -402.95897729378220

   => Energetics <=

    Nuclear Repulsion Energy =            522.2415556217364383
    One-Electron Energy =               -1580.5731683153480844
    Two-Electron Energy =                 655.3726353998292780
    Total Energy =                       -402.9589772937822545
  Basis Set: (AUG-CC-PVTZ AUX)
    Blend: AUG-CC-PVTZ-RI
    Molecular point group: c1

    Geometry (in Angstrom), charge = 0, multiplicity = 1:

       Center              X                  Y                   Z               Mass
    ------------   -----------------  -----------------  -----------------  -----------------
         N            1.661405708523     0.624848024095    -0.459303914818    14.003074004430
         C            0.337671708523     0.164465024095    -0.196601914818    12.000000000000
         C           -0.736033291477     1.071988024095    -0.074171914818    12.000000000000
         C            0.115173708523    -1.224637975905    -0.105103914818    12.000000000000
         C           -1.976088391477     0.564780024095     0.144742585182    12.000000000000
         C           -1.183032291477    -1.683025975905     0.144263085182    12.000000000000
         C           -2.250469291477    -0.796131975905     0.272150085182    12.000000000000
         C           -0.506119291477     2.558514024095    -0.189207914818    12.000000000000
         C            1.241801708523    -2.203894975905    -0.299236914818    12.000000000000
         C            2.536869708523     0.629069024095     0.719849085182    12.000000000000
         H           -2.853996291477     1.271943024095     0.245164085182     1.007825032230
         H           -1.359206291477    -2.755525975905     0.213063085182     1.007825032230
         H            1.626206708523     1.566006024095    -0.843972914818     1.007825032230
         H           -3.255031291477    -1.170272975905     0.455097085182     1.007825032230
         H            0.269688708523     2.904471024095     0.502450085182     1.007825032230
         H           -0.203453291477     2.852448024095    -1.201733914818     1.007825032230
         H           -1.424971291477     3.102712024095     0.043947085182     1.007825032230
         H            1.976142708523    -1.797749975905    -0.999387914818     1.007825032230
         H            1.761029708523    -2.425903975905     0.640155085182     1.007825032230
         H            0.858330708523    -3.150404975905    -0.690959914818     1.007825032230
         H            2.128114708523     1.199285024095     1.567197085182     1.007825032230
         H            3.502175708523     1.057741024095     0.437279085182     1.007825032230
         H            2.708029708523    -0.395720975905     1.052067085182     1.007825032230

  Basis Set: AUG-CC-PVTZ
    Blend: AUG-CC-PVTZ
  Basis Set: (AUG-CC-PVTZ AUX)
    Blend: AUG-CC-PVTZ-JKFIT
	 Reference Energy          =    -402.9589772937821976 [Eh]
	 Singles Energy            =      -0.0000000000000000 [Eh]
	 Same-Spin Energy          =      -0.4480691731225178 [Eh]
	 Opposite-Spin Energy      =      -1.4659829416448629 [Eh]
	 Correlation Energy        =      -1.9140521147673808 [Eh]
	 Total Energy              =    -404.8730294085495984 [Eh]

	 ================> DF-SCS-MP2 Energies <==================
	-----------------------------------------------------------
	 SCS Same-Spin Scale       =       0.3333333333333333 [-]
	 SCS Opposite-Spin Scale   =       1.2000000000000000 [-]
	 SCS Same-Spin Energy      =      -0.1493563910408393 [Eh]
	 SCS Opposite-Spin Energy  =      -1.7591795299738353 [Eh]
	 SCS Correlation Energy    =      -1.9085359210146746 [Eh]
	 SCS Total Energy          =    -404.8675132147968725 [Eh]
	-----------------------------------------------------------

  Dipole Moment: [D]
     X:     0.5486      Y:     1.0614      Z:     0.5190     Total:     1.3026

*** Psi4 exiting successfully. Buy a developer a beer!
