                               Psi4 1.4a2.dev612

  ==> Input File <==

--------------------------------------------------------------------------
#psi4
#
memory 32 gb

molecule  {
0 1
  O       -3.1417080     0.0705380     0.3169670
  C        0.9902420    -0.0039870    -0.3612050
  C        2.4872910    -0.0052090    -0.5397260
  C        0.2806140    -1.2015640    -0.2442060
  C        0.2597275     1.1955052    -0.3855028
  C        3.2312830    -0.0061060     0.7967240
  C       -1.0960700    -1.2065460    -0.0157640
  C       -1.0950530     1.2066380    -0.0091780
  C       -1.7865290     0.0017960     0.1015840
  H        2.7838010    -0.8823900    -1.1265120
  H        2.7835740     0.8731460    -1.1246690
  H        0.8095070    -2.1483250    -0.3363770
  H        0.8092330     2.1418130    -0.3228610
  H        2.9650580     0.8755680     1.3857970
  H        4.3169070    -0.0053560     0.6533480
  H        2.9660240    -0.8892340     1.3840690
  H       -1.6288030    -2.1532140     0.0657430
  H       -1.6431320     2.1402150     0.0795740
  H       -3.4941530    -0.8345020     0.3676020
units angstrom
no_reorient  #important for SAPT in psi4, default
symmetry c1  #important for SAPT in psi4, default
}

set PROPERTIES_ORIGIN ["COM"]
properties('MP2/aug-cc-pvtz', properties = ['dipole'])
--------------------------------------------------------------------------

    Molecular point group: c1
  Charge       = 0
  Multiplicity = 1
  Basis Set: AUG-CC-PVTZ
    Blend: AUG-CC-PVTZ
  Basis Set: (AUG-CC-PVTZ AUX)
    Blend: AUG-CC-PVTZ-JKFIT

    Orbital Energies [Eh]
    ---------------------

    Doubly Occupied:

       1A    -20.589281     2A    -11.299044     3A    -11.238254
       4A    -11.238111     5A    -11.236029     6A    -11.232902
       7A    -11.230237     8A    -11.227134     9A    -11.215612
      10A     -1.398508    11A     -1.150219    12A     -1.057994
      13A     -1.015487    14A     -0.976001    15A     -0.861305
      16A     -0.843020    17A     -0.789758    18A     -0.727557
      19A     -0.672113    20A     -0.646357    21A     -0.612551
      22A     -0.596217    23A     -0.589246    24A     -0.583206
      25A     -0.569076    26A     -0.554359    27A     -0.523003
      28A     -0.497701    29A     -0.480047    30A     -0.477797
      31A     -0.466696    32A     -0.339941    33A     -0.305593

  @DF-RHF Final Energy:  -383.75973983878049

   => Energetics <=

    Nuclear Repulsion Energy =            417.8861836007190504
    One-Electron Energy =               -1348.8111336302788459
    Two-Electron Energy =                 547.1652101907792485
    Total Energy =                       -383.7597398387805470
  Basis Set: (AUG-CC-PVTZ AUX)
    Blend: AUG-CC-PVTZ-RI
    Molecular point group: c1

    Geometry (in Angstrom), charge = 0, multiplicity = 1:

       Center              X                  Y                   Z               Mass
    ------------   -----------------  -----------------  -----------------  -----------------
         O           -3.139727289082     0.070493823003     0.331578608157    15.994914619570
         C            0.992222710918    -0.004031176997    -0.346593391843    12.000000000000
         C            2.489271710918    -0.005253176997    -0.525114391843    12.000000000000
         C            0.282594710918    -1.201608176997    -0.229594391843    12.000000000000
         C            0.261708210918     1.195461023003    -0.370891191843    12.000000000000
         C            3.233263710918    -0.006150176997     0.811335608157    12.000000000000
         C           -1.094089289082    -1.206590176997    -0.001152391843    12.000000000000
         C           -1.093072289082     1.206593823003     0.005433608157    12.000000000000
         C           -1.784548289082     0.001751823003     0.116195608157    12.000000000000
         H            2.785781710918    -0.882434176997    -1.111900391843     1.007825032230
         H            2.785554710918     0.873101823003    -1.110057391843     1.007825032230
         H            0.811487710918    -2.148369176997    -0.321765391843     1.007825032230
         H            0.811213710918     2.141768823003    -0.308249391843     1.007825032230
         H            2.967038710918     0.875523823003     1.400408608157     1.007825032230
         H            4.318887710918    -0.005400176997     0.667959608157     1.007825032230
         H            2.968004710918    -0.889278176997     1.398680608157     1.007825032230
         H           -1.626822289082    -2.153258176997     0.080354608157     1.007825032230
         H           -1.641151289082     2.140170823003     0.094185608157     1.007825032230
         H           -3.492172289082    -0.834546176997     0.382213608157     1.007825032230

  Basis Set: AUG-CC-PVTZ
    Blend: AUG-CC-PVTZ
  Basis Set: (AUG-CC-PVTZ AUX)
    Blend: AUG-CC-PVTZ-JKFIT
	 Reference Energy          =    -383.7597398387804901 [Eh]
	 Singles Energy            =      -0.0000000000000000 [Eh]
	 Same-Spin Energy          =      -0.4130829706196967 [Eh]
	 Opposite-Spin Energy      =      -1.3197728624275744 [Eh]
	 Correlation Energy        =      -1.7328558330472710 [Eh]
	 Total Energy              =    -385.4925956718277575 [Eh]

	 ================> DF-SCS-MP2 Energies <==================
	-----------------------------------------------------------
	 SCS Same-Spin Scale       =       0.3333333333333333 [-]
	 SCS Opposite-Spin Scale   =       1.2000000000000000 [-]
	 SCS Same-Spin Energy      =      -0.1376943235398989 [Eh]
	 SCS Opposite-Spin Energy  =      -1.5837274349130892 [Eh]
	 SCS Correlation Energy    =      -1.7214217584529881 [Eh]
	 SCS Total Energy          =    -385.4811615972334948 [Eh]
	-----------------------------------------------------------

  Dipole Moment: [D]
     X:     0.4628      Y:    -1.3207      Z:     0.0776     Total:     1.4016

*** Psi4 exiting successfully. Buy a developer a beer!
