                               Psi4 1.4a2.dev612

  ==> Input File <==

--------------------------------------------------------------------------
#psi4
#
memory 32 gb

molecule  {
0 1
  O       -3.1417080     0.0705380     0.3169670
  C        0.9902420    -0.0039870    -0.3612050
  C        2.4872910    -0.0052090    -0.5397260
  C        0.2806140    -1.2015640    -0.2442060
  C        0.2798770     1.1950560    -0.2368630
  C        3.2312830    -0.0061060     0.7967240
  C       -1.0960700    -1.2065460    -0.0157640
  C       -1.0553371     1.2059476     0.2376462
  C       -1.7865290     0.0017960     0.1015840
  H        2.7838010    -0.8823900    -1.1265120
  H        2.7835740     0.8731460    -1.1246690
  H        0.8095070    -2.1483250    -0.3363770
  H        0.8092330     2.1418130    -0.3228610
  H        2.9650580     0.8755680     1.3857970
  H        4.3169070    -0.0053560     0.6533480
  H        2.9660240    -0.8892340     1.3840690
  H       -1.6288030    -2.1532140     0.0657430
  H       -1.6431320     2.1402150     0.0795740
  H       -3.4941530    -0.8345020     0.3676020
units angstrom
no_reorient  #important for SAPT in psi4, default
symmetry c1  #important for SAPT in psi4, default
}

set PROPERTIES_ORIGIN ["COM"]
properties('MP2/aug-cc-pvtz', properties = ['dipole'])
--------------------------------------------------------------------------

    Molecular point group: c1
  Charge       = 0
  Multiplicity = 1
  Basis Set: AUG-CC-PVTZ
    Blend: AUG-CC-PVTZ
  Basis Set: (AUG-CC-PVTZ AUX)
    Blend: AUG-CC-PVTZ-JKFIT

    Orbital Energies [Eh]
    ---------------------

    Doubly Occupied:

       1A    -20.591350     2A    -11.305076     3A    -11.241696
       4A    -11.241352     5A    -11.234799     6A    -11.233027
       7A    -11.230784     8A    -11.227445     9A    -11.215443
      10A     -1.400080    11A     -1.149949    12A     -1.057285
      13A     -1.014256    14A     -0.975287    15A     -0.860377
      16A     -0.842264    17A     -0.789742    18A     -0.729010
      19A     -0.671279    20A     -0.642942    21A     -0.612826
      22A     -0.595895    23A     -0.588702    24A     -0.578014
      25A     -0.568499    26A     -0.555646    27A     -0.521137
      28A     -0.495768    29A     -0.480541    30A     -0.477703
      31A     -0.464653    32A     -0.340252    33A     -0.305852

  @DF-RHF Final Energy:  -383.74795523290157

   => Energetics <=

    Nuclear Repulsion Energy =            417.7103418187210195
    One-Electron Energy =               -1348.4387338122276105
    Two-Electron Energy =                 546.9804367606051301
    Total Energy =                       -383.7479552329015178
  Basis Set: (AUG-CC-PVTZ AUX)
    Blend: AUG-CC-PVTZ-RI
    Molecular point group: c1

    Geometry (in Angstrom), charge = 0, multiplicity = 1:

       Center              X                  Y                   Z               Mass
    ------------   -----------------  -----------------  -----------------  -----------------
         O           -3.145612159851     0.070605847624     0.292703823496    15.994914619570
         C            0.986337840149    -0.003919152376    -0.385468176504    12.000000000000
         C            2.483386840149    -0.005141152376    -0.563989176504    12.000000000000
         C            0.276709840149    -1.201496152376    -0.268469176504    12.000000000000
         C            0.275972840149     1.195123847624    -0.261126176504    12.000000000000
         C            3.227378840149    -0.006038152376     0.772460823496    12.000000000000
         C           -1.099974159851    -1.206478152376    -0.040027176504    12.000000000000
         C           -1.059241259851     1.206015447624     0.213383023496    12.000000000000
         C           -1.790433159851     0.001863847624     0.077320823496    12.000000000000
         H            2.779896840149    -0.882322152376    -1.150775176504     1.007825032230
         H            2.779669840149     0.873213847624    -1.148932176504     1.007825032230
         H            0.805602840149    -2.148257152376    -0.360640176504     1.007825032230
         H            0.805328840149     2.141880847624    -0.347124176504     1.007825032230
         H            2.961153840149     0.875635847624     1.361533823496     1.007825032230
         H            4.313002840149    -0.005288152376     0.629084823496     1.007825032230
         H            2.962119840149    -0.889166152376     1.359805823496     1.007825032230
         H           -1.632707159851    -2.153146152376     0.041479823496     1.007825032230
         H           -1.647036159851     2.140282847624     0.055310823496     1.007825032230
         H           -3.498057159851    -0.834434152376     0.343338823496     1.007825032230

  Basis Set: AUG-CC-PVTZ
    Blend: AUG-CC-PVTZ
  Basis Set: (AUG-CC-PVTZ AUX)
    Blend: AUG-CC-PVTZ-JKFIT
	 Reference Energy          =    -383.7479552329015746 [Eh]
	 Singles Energy            =      -0.0000000000000000 [Eh]
	 Same-Spin Energy          =      -0.4136424455210236 [Eh]
	 Opposite-Spin Energy      =      -1.3215119914687499 [Eh]
	 Correlation Energy        =      -1.7351544369897733 [Eh]
	 Total Energy              =    -385.4831096698913484 [Eh]

	 ================> DF-SCS-MP2 Energies <==================
	-----------------------------------------------------------
	 SCS Same-Spin Scale       =       0.3333333333333333 [-]
	 SCS Opposite-Spin Scale   =       1.2000000000000000 [-]
	 SCS Same-Spin Energy      =      -0.1378808151736745 [Eh]
	 SCS Opposite-Spin Energy  =      -1.5858143897624999 [Eh]
	 SCS Correlation Energy    =      -1.7236952049361745 [Eh]
	 SCS Total Energy          =    -385.4716504378377522 [Eh]
	-----------------------------------------------------------

  Dipole Moment: [D]
     X:     0.4851      Y:    -1.4019      Z:    -0.1866     Total:     1.4951

*** Psi4 exiting successfully. Buy a developer a beer!
