                               Psi4 1.4a2.dev612

  ==> Input File <==

--------------------------------------------------------------------------
#psi4
#
memory 32 gb

molecule  {
0 1
  O       -3.1417080     0.0705380     0.3169670
  C        0.9902420    -0.0039870    -0.3612050
  C        2.4872910    -0.0052090    -0.5397260
  C        0.2806140    -1.2015640    -0.2442060
  C        0.2798770     1.1950560    -0.2368630
  C        3.2312830    -0.0061060     0.7967240
  C       -1.0960700    -1.2065460    -0.0157640
  C       -1.0712234     1.2062238     0.1389165
  C       -1.7865290     0.0017960     0.1015840
  H        2.7838010    -0.8823900    -1.1265120
  H        2.7835740     0.8731460    -1.1246690
  H        0.8095070    -2.1483250    -0.3363770
  H        0.8092330     2.1418130    -0.3228610
  H        2.9650580     0.8755680     1.3857970
  H        4.3169070    -0.0053560     0.6533480
  H        2.9660240    -0.8892340     1.3840690
  H       -1.6288030    -2.1532140     0.0657430
  H       -1.6431320     2.1402150     0.0795740
  H       -3.4941530    -0.8345020     0.3676020
units angstrom
no_reorient  #important for SAPT in psi4, default
symmetry c1  #important for SAPT in psi4, default
}

set PROPERTIES_ORIGIN ["COM"]
properties('MP2/aug-cc-pvtz', properties = ['dipole'])
--------------------------------------------------------------------------

    Molecular point group: c1
  Charge       = 0
  Multiplicity = 1
  Basis Set: AUG-CC-PVTZ
    Blend: AUG-CC-PVTZ
  Basis Set: (AUG-CC-PVTZ AUX)
    Blend: AUG-CC-PVTZ-JKFIT

    Orbital Energies [Eh]
    ---------------------

    Doubly Occupied:

       1A    -20.590131     2A    -11.301497     3A    -11.239430
       4A    -11.238216     5A    -11.234724     6A    -11.230872
       7A    -11.229974     8A    -11.227204     9A    -11.215301
      10A     -1.399137    11A     -1.150659    12A     -1.057717
      13A     -1.015841    14A     -0.975517    15A     -0.861175
      16A     -0.842607    17A     -0.790732    18A     -0.728683
      19A     -0.671803    20A     -0.645106    21A     -0.612937
      22A     -0.596448    23A     -0.587731    24A     -0.582469
      25A     -0.570060    26A     -0.555452    27A     -0.522079
      28A     -0.497260    29A     -0.480211    30A     -0.477910
      31A     -0.467002    32A     -0.340368    33A     -0.305856

  @DF-RHF Final Energy:  -383.76003185890653

   => Energetics <=

    Nuclear Repulsion Energy =            418.1226704260013776
    One-Electron Energy =               -1349.2811877522635768
    Two-Electron Energy =                 547.3984854673556129
    Total Energy =                       -383.7600318589065864
  Basis Set: (AUG-CC-PVTZ AUX)
    Blend: AUG-CC-PVTZ-RI
    Molecular point group: c1

    Geometry (in Angstrom), charge = 0, multiplicity = 1:

       Center              X                  Y                   Z               Mass
    ------------   -----------------  -----------------  -----------------  -----------------
         O           -3.144050509507     0.070578696693     0.302409121140    15.994914619570
         C            0.987899490493    -0.003946303307    -0.375762878860    12.000000000000
         C            2.484948490493    -0.005168303307    -0.554283878860    12.000000000000
         C            0.278271490493    -1.201523303307    -0.258763878860    12.000000000000
         C            0.277534490493     1.195096696693    -0.251420878860    12.000000000000
         C            3.228940490493    -0.006065303307     0.782166121140    12.000000000000
         C           -1.098412509507    -1.206505303307    -0.030321878860    12.000000000000
         C           -1.073565909507     1.206264496693     0.124358621140    12.000000000000
         C           -1.788871509507     0.001836696693     0.087026121140    12.000000000000
         H            2.781458490493    -0.882349303307    -1.141069878860     1.007825032230
         H            2.781231490493     0.873186696693    -1.139226878860     1.007825032230
         H            0.807164490493    -2.148284303307    -0.350934878860     1.007825032230
         H            0.806890490493     2.141853696693    -0.337418878860     1.007825032230
         H            2.962715490493     0.875608696693     1.371239121140     1.007825032230
         H            4.314564490493    -0.005315303307     0.638790121140     1.007825032230
         H            2.963681490493    -0.889193303307     1.369511121140     1.007825032230
         H           -1.631145509507    -2.153173303307     0.051185121140     1.007825032230
         H           -1.645474509507     2.140255696693     0.065016121140     1.007825032230
         H           -3.496495509507    -0.834461303307     0.353044121140     1.007825032230

  Basis Set: AUG-CC-PVTZ
    Blend: AUG-CC-PVTZ
  Basis Set: (AUG-CC-PVTZ AUX)
    Blend: AUG-CC-PVTZ-JKFIT
	 Reference Energy          =    -383.7600318589065296 [Eh]
	 Singles Energy            =      -0.0000000000000000 [Eh]
	 Same-Spin Energy          =      -0.4130887325780042 [Eh]
	 Opposite-Spin Energy      =      -1.3197107508829458 [Eh]
	 Correlation Energy        =      -1.7327994834609499 [Eh]
	 Total Energy              =    -385.4928313423674808 [Eh]

	 ================> DF-SCS-MP2 Energies <==================
	-----------------------------------------------------------
	 SCS Same-Spin Scale       =       0.3333333333333333 [-]
	 SCS Opposite-Spin Scale   =       1.2000000000000000 [-]
	 SCS Same-Spin Energy      =      -0.1376962441926681 [Eh]
	 SCS Opposite-Spin Energy  =      -1.5836529010595348 [Eh]
	 SCS Correlation Energy    =      -1.7213491452522030 [Eh]
	 SCS Total Energy          =    -385.4813810041587203 [Eh]
	-----------------------------------------------------------

  Dipole Moment: [D]
     X:     0.4642      Y:    -1.3200      Z:    -0.1152     Total:     1.4040

*** Psi4 exiting successfully. Buy a developer a beer!
