                               Psi4 1.4a2.dev612

  ==> Input File <==

--------------------------------------------------------------------------
#psi4
#
memory 32 gb

molecule  {
0 1
  O       -3.1417080     0.0705380     0.3169670
  C        0.9902420    -0.0039870    -0.3612050
  C        2.4872910    -0.0052090    -0.5397260
  C        0.2806140    -1.2015640    -0.2442060
  C        0.2798770     1.1950560    -0.2368630
  C        3.2312830    -0.0061060     0.7967240
  C       -1.0960700    -1.2065460    -0.0157640
  C       -1.0871098     1.2064999     0.0401868
  C       -1.7865290     0.0017960     0.1015840
  H        2.7838010    -0.8823900    -1.1265120
  H        2.7835740     0.8731460    -1.1246690
  H        0.8095070    -2.1483250    -0.3363770
  H        0.8092330     2.1418130    -0.3228610
  H        2.9650580     0.8755680     1.3857970
  H        4.3169070    -0.0053560     0.6533480
  H        2.9660240    -0.8892340     1.3840690
  H       -1.6288030    -2.1532140     0.0657430
  H       -1.6431320     2.1402150     0.0795740
  H       -3.4941530    -0.8345020     0.3676020
units angstrom
no_reorient  #important for SAPT in psi4, default
symmetry c1  #important for SAPT in psi4, default
}

set PROPERTIES_ORIGIN ["COM"]
properties('MP2/aug-cc-pvtz', properties = ['dipole'])
--------------------------------------------------------------------------

    Molecular point group: c1
  Charge       = 0
  Multiplicity = 1
  Basis Set: AUG-CC-PVTZ
    Blend: AUG-CC-PVTZ
  Basis Set: (AUG-CC-PVTZ AUX)
    Blend: AUG-CC-PVTZ-JKFIT

    Orbital Energies [Eh]
    ---------------------

    Doubly Occupied:

       1A    -20.589492     2A    -11.299607     3A    -11.238300
       4A    -11.236556     5A    -11.234687     6A    -11.230928
       7A    -11.228366     8A    -11.227083     9A    -11.215244
      10A     -1.398635    11A     -1.151053    12A     -1.057968
      13A     -1.016608    14A     -0.975646    15A     -0.861645
      16A     -0.842751    17A     -0.791318    18A     -0.728539
      19A     -0.672149    20A     -0.646527    21A     -0.612983
      22A     -0.596359    23A     -0.586559    24A     -0.586176
      25A     -0.570062    26A     -0.555344    27A     -0.522937
      28A     -0.497996    29A     -0.480009    30A     -0.477980
      31A     -0.468125    32A     -0.340468    33A     -0.305865

  @DF-RHF Final Energy:  -383.76599535035183

   => Energetics <=

    Nuclear Repulsion Energy =            418.3140883154120502
    One-Electron Energy =               -1349.6722362771195094
    Two-Electron Energy =                 547.5921526113556865
    Total Energy =                       -383.7659953503517727
  Basis Set: (AUG-CC-PVTZ AUX)
    Blend: AUG-CC-PVTZ-RI
    Molecular point group: c1

    Geometry (in Angstrom), charge = 0, multiplicity = 1:

       Center              X                  Y                   Z               Mass
    ------------   -----------------  -----------------  -----------------  -----------------
         O           -3.142488849333     0.070551555593     0.312114418783    15.994914619570
         C            0.989461150667    -0.003973444407    -0.366057581217    12.000000000000
         C            2.486510150667    -0.005195444407    -0.544578581217    12.000000000000
         C            0.279833150667    -1.201550444407    -0.249058581217    12.000000000000
         C            0.279096150667     1.195069555593    -0.241715581217    12.000000000000
         C            3.230502150667    -0.006092444407     0.791871418783    12.000000000000
         C           -1.096850849333    -1.206532444407    -0.020616581217    12.000000000000
         C           -1.087890649333     1.206513455593     0.035334218783    12.000000000000
         C           -1.787309849333     0.001809555593     0.096731418783    12.000000000000
         H            2.783020150667    -0.882376444407    -1.131364581217     1.007825032230
         H            2.782793150667     0.873159555593    -1.129521581217     1.007825032230
         H            0.808726150667    -2.148311444407    -0.341229581217     1.007825032230
         H            0.808452150667     2.141826555593    -0.327713581217     1.007825032230
         H            2.964277150667     0.875581555593     1.380944418783     1.007825032230
         H            4.316126150667    -0.005342444407     0.648495418783     1.007825032230
         H            2.965243150667    -0.889220444407     1.379216418783     1.007825032230
         H           -1.629583849333    -2.153200444407     0.060890418783     1.007825032230
         H           -1.643912849333     2.140228555593     0.074721418783     1.007825032230
         H           -3.494933849333    -0.834488444407     0.362749418783     1.007825032230

  Basis Set: AUG-CC-PVTZ
    Blend: AUG-CC-PVTZ
  Basis Set: (AUG-CC-PVTZ AUX)
    Blend: AUG-CC-PVTZ-JKFIT
	 Reference Energy          =    -383.7659953503518295 [Eh]
	 Singles Energy            =      -0.0000000000000000 [Eh]
	 Same-Spin Energy          =      -0.4127915255544576 [Eh]
	 Opposite-Spin Energy      =      -1.3188234839777602 [Eh]
	 Correlation Energy        =      -1.7316150095322178 [Eh]
	 Total Energy              =    -385.4976103598840496 [Eh]

	 ================> DF-SCS-MP2 Energies <==================
	-----------------------------------------------------------
	 SCS Same-Spin Scale       =       0.3333333333333333 [-]
	 SCS Opposite-Spin Scale   =       1.2000000000000000 [-]
	 SCS Same-Spin Energy      =      -0.1375971751848192 [Eh]
	 SCS Opposite-Spin Energy  =      -1.5825881807733122 [Eh]
	 SCS Correlation Energy    =      -1.7201853559581315 [Eh]
	 SCS Total Energy          =    -385.4861807063099377 [Eh]
	-----------------------------------------------------------

  Dipole Moment: [D]
     X:     0.4598      Y:    -1.2780      Z:    -0.0496     Total:     1.3591

*** Psi4 exiting successfully. Buy a developer a beer!
