                               Psi4 1.4a2.dev612

  ==> Input File <==

--------------------------------------------------------------------------
#psi4
#
memory 32 gb

molecule  {
0 1
  O       -3.1417080     0.0705380     0.3169670
  C        0.9902420    -0.0039870    -0.3612050
  C        2.4872910    -0.0052090    -0.5397260
  C        0.2806140    -1.2015640    -0.2442060
  C        0.2664440     1.1953555    -0.3359562
  C        3.2312830    -0.0061060     0.7967240
  C       -1.0960700    -1.2065460    -0.0157640
  C       -1.0950530     1.2066380    -0.0091780
  C       -1.7865290     0.0017960     0.1015840
  H        2.7838010    -0.8823900    -1.1265120
  H        2.7835740     0.8731460    -1.1246690
  H        0.8095070    -2.1483250    -0.3363770
  H        0.8092330     2.1418130    -0.3228610
  H        2.9650580     0.8755680     1.3857970
  H        4.3169070    -0.0053560     0.6533480
  H        2.9660240    -0.8892340     1.3840690
  H       -1.6288030    -2.1532140     0.0657430
  H       -1.6431320     2.1402150     0.0795740
  H       -3.4941530    -0.8345020     0.3676020
units angstrom
no_reorient  #important for SAPT in psi4, default
symmetry c1  #important for SAPT in psi4, default
}

set PROPERTIES_ORIGIN ["COM"]
properties('MP2/aug-cc-pvtz', properties = ['dipole'])
--------------------------------------------------------------------------

    Molecular point group: c1
  Charge       = 0
  Multiplicity = 1
  Basis Set: AUG-CC-PVTZ
    Blend: AUG-CC-PVTZ
  Basis Set: (AUG-CC-PVTZ AUX)
    Blend: AUG-CC-PVTZ-JKFIT

    Orbital Energies [Eh]
    ---------------------

    Doubly Occupied:

       1A    -20.589324     2A    -11.299185     3A    -11.238144
       4A    -11.237176     5A    -11.235344     6A    -11.231804
       7A    -11.229142     8A    -11.227081     9A    -11.215447
      10A     -1.398517    11A     -1.150674    12A     -1.057976
      13A     -1.016071    14A     -0.975952    15A     -0.861476
      16A     -0.842992    17A     -0.790540    18A     -0.728093
      19A     -0.672219    20A     -0.646558    21A     -0.612827
      22A     -0.596206    23A     -0.588860    24A     -0.584087
      25A     -0.569786    26A     -0.554731    27A     -0.523151
      28A     -0.497976    29A     -0.479990    30A     -0.477990
      31A     -0.467469    32A     -0.340127    33A     -0.305790

  @DF-RHF Final Energy:  -383.76368128600387

   => Energetics <=

    Nuclear Repulsion Energy =            418.0877891921386436
    One-Electron Energy =               -1349.2175336072182290
    Two-Electron Energy =                 547.3660631290756555
    Total Energy =                       -383.7636812860039299
  Basis Set: (AUG-CC-PVTZ AUX)
    Blend: AUG-CC-PVTZ-RI
    Molecular point group: c1

    Geometry (in Angstrom), charge = 0, multiplicity = 1:

       Center              X                  Y                   Z               Mass
    ------------   -----------------  -----------------  -----------------  -----------------
         O           -3.140387532470     0.070508538768     0.326708093001    15.994914619570
         C            0.991562467530    -0.004016461232    -0.351463906999    12.000000000000
         C            2.488611467530    -0.005238461232    -0.529984906999    12.000000000000
         C            0.281934467530    -1.201593461232    -0.234464906999    12.000000000000
         C            0.267764467530     1.195326038768    -0.326215106999    12.000000000000
         C            3.232603467530    -0.006135461232     0.806465093001    12.000000000000
         C           -1.094749532470    -1.206575461232    -0.006022906999    12.000000000000
         C           -1.093732532470     1.206608538768     0.000563093001    12.000000000000
         C           -1.785208532470     0.001766538768     0.111325093001    12.000000000000
         H            2.785121467530    -0.882419461232    -1.116770906999     1.007825032230
         H            2.784894467530     0.873116538768    -1.114927906999     1.007825032230
         H            0.810827467530    -2.148354461232    -0.326635906999     1.007825032230
         H            0.810553467530     2.141783538768    -0.313119906999     1.007825032230
         H            2.966378467530     0.875538538768     1.395538093001     1.007825032230
         H            4.318227467530    -0.005385461232     0.663089093001     1.007825032230
         H            2.967344467530    -0.889263461232     1.393810093001     1.007825032230
         H           -1.627482532470    -2.153243461232     0.075484093001     1.007825032230
         H           -1.641811532470     2.140185538768     0.089315093001     1.007825032230
         H           -3.492832532470    -0.834531461232     0.377343093001     1.007825032230

  Basis Set: AUG-CC-PVTZ
    Blend: AUG-CC-PVTZ
  Basis Set: (AUG-CC-PVTZ AUX)
    Blend: AUG-CC-PVTZ-JKFIT
	 Reference Energy          =    -383.7636812860038731 [Eh]
	 Singles Energy            =      -0.0000000000000000 [Eh]
	 Same-Spin Energy          =      -0.4128812577639920 [Eh]
	 Opposite-Spin Energy      =      -1.3191622450235454 [Eh]
	 Correlation Energy        =      -1.7320435027875374 [Eh]
	 Total Energy              =    -385.4957247887913923 [Eh]

	 ================> DF-SCS-MP2 Energies <==================
	-----------------------------------------------------------
	 SCS Same-Spin Scale       =       0.3333333333333333 [-]
	 SCS Opposite-Spin Scale   =       1.2000000000000000 [-]
	 SCS Same-Spin Energy      =      -0.1376270859213307 [Eh]
	 SCS Opposite-Spin Energy  =      -1.5829946940282544 [Eh]
	 SCS Correlation Energy    =      -1.7206217799495851 [Eh]
	 SCS Total Energy          =    -385.4843030659534406 [Eh]
	-----------------------------------------------------------

  Dipole Moment: [D]
     X:     0.4672      Y:    -1.2946      Z:     0.0438     Total:     1.3771

*** Psi4 exiting successfully. Buy a developer a beer!
