                               Psi4 1.4a2.dev612

  ==> Input File <==

--------------------------------------------------------------------------
#psi4
#
memory 32 gb

molecule  {
0 1
  O       -3.1417080     0.0705380     0.3169670
  C        0.9902420    -0.0039870    -0.3612050
  C        2.4872910    -0.0052090    -0.5397260
  C        0.2806140    -1.2015640    -0.2442060
  C        0.2798770     1.1950560    -0.2368630
  C        3.2312830    -0.0061060     0.7967240
  C       -1.0960700    -1.2065460    -0.0157640
  C       -1.0791666     1.2063619     0.0895517
  C       -1.7865290     0.0017960     0.1015840
  H        2.7838010    -0.8823900    -1.1265120
  H        2.7835740     0.8731460    -1.1246690
  H        0.8095070    -2.1483250    -0.3363770
  H        0.8092330     2.1418130    -0.3228610
  H        2.9650580     0.8755680     1.3857970
  H        4.3169070    -0.0053560     0.6533480
  H        2.9660240    -0.8892340     1.3840690
  H       -1.6288030    -2.1532140     0.0657430
  H       -1.6431320     2.1402150     0.0795740
  H       -3.4941530    -0.8345020     0.3676020
units angstrom
no_reorient  #important for SAPT in psi4, default
symmetry c1  #important for SAPT in psi4, default
}

set PROPERTIES_ORIGIN ["COM"]
properties('MP2/aug-cc-pvtz', properties = ['dipole'])
--------------------------------------------------------------------------

    Molecular point group: c1
  Charge       = 0
  Multiplicity = 1
  Basis Set: AUG-CC-PVTZ
    Blend: AUG-CC-PVTZ
  Basis Set: (AUG-CC-PVTZ AUX)
    Blend: AUG-CC-PVTZ-JKFIT

    Orbital Energies [Eh]
    ---------------------

    Doubly Occupied:

       1A    -20.589739     2A    -11.300330     3A    -11.238727
       4A    -11.237192     5A    -11.234703     6A    -11.230906
       7A    -11.228979     8A    -11.227130     9A    -11.215263
      10A     -1.398830    11A     -1.150902    12A     -1.057870
      13A     -1.016320    14A     -0.975597    15A     -0.861463
      16A     -0.842702    17A     -0.791084    18A     -0.728594
      19A     -0.672013    20A     -0.645950    21A     -0.612967
      22A     -0.596487    23A     -0.587181    24A     -0.584431
      25A     -0.570247    26A     -0.555376    27A     -0.522514
      28A     -0.497718    29A     -0.480086    30A     -0.477947
      31A     -0.467722    32A     -0.340428    33A     -0.305864

  @DF-RHF Final Energy:  -383.76376277610365

   => Energetics <=

    Nuclear Repulsion Energy =            418.2467572564270881
    One-Electron Energy =               -1349.5345126858971980
    Two-Electron Energy =                 547.5239926533663493
    Total Energy =                       -383.7637627761037038
  Basis Set: (AUG-CC-PVTZ AUX)
    Blend: AUG-CC-PVTZ-RI
    Molecular point group: c1

    Geometry (in Angstrom), charge = 0, multiplicity = 1:

       Center              X                  Y                   Z               Mass
    ------------   -----------------  -----------------  -----------------  -----------------
         O           -3.143269679420     0.070565121228     0.307261765046    15.994914619570
         C            0.988680320580    -0.003959878772    -0.370910234954    12.000000000000
         C            2.485729320580    -0.005181878772    -0.549431234954    12.000000000000
         C            0.279052320580    -1.201536878772    -0.253911234954    12.000000000000
         C            0.278315320580     1.195083121228    -0.246568234954    12.000000000000
         C            3.229721320580    -0.006078878772     0.787018765046    12.000000000000
         C           -1.097631679420    -1.206518878772    -0.025469234954    12.000000000000
         C           -1.080728279420     1.206389021228     0.079846465046    12.000000000000
         C           -1.788090679420     0.001823121228     0.091878765046    12.000000000000
         H            2.782239320580    -0.882362878772    -1.136217234954     1.007825032230
         H            2.782012320580     0.873173121228    -1.134374234954     1.007825032230
         H            0.807945320580    -2.148297878772    -0.346082234954     1.007825032230
         H            0.807671320580     2.141840121228    -0.332566234954     1.007825032230
         H            2.963496320580     0.875595121228     1.376091765046     1.007825032230
         H            4.315345320580    -0.005328878772     0.643642765046     1.007825032230
         H            2.964462320580    -0.889206878772     1.374363765046     1.007825032230
         H           -1.630364679420    -2.153186878772     0.056037765046     1.007825032230
         H           -1.644693679420     2.140242121228     0.069868765046     1.007825032230
         H           -3.495714679420    -0.834474878772     0.357896765046     1.007825032230

  Basis Set: AUG-CC-PVTZ
    Blend: AUG-CC-PVTZ
  Basis Set: (AUG-CC-PVTZ AUX)
    Blend: AUG-CC-PVTZ-JKFIT
	 Reference Energy          =    -383.7637627761036470 [Eh]
	 Singles Energy            =      -0.0000000000000000 [Eh]
	 Same-Spin Energy          =      -0.4129061154833303 [Eh]
	 Opposite-Spin Energy      =      -1.3191466837577894 [Eh]
	 Correlation Energy        =      -1.7320527992411197 [Eh]
	 Total Energy              =    -385.4958155753447500 [Eh]

	 ================> DF-SCS-MP2 Energies <==================
	-----------------------------------------------------------
	 SCS Same-Spin Scale       =       0.3333333333333333 [-]
	 SCS Opposite-Spin Scale   =       1.2000000000000000 [-]
	 SCS Same-Spin Energy      =      -0.1376353718277767 [Eh]
	 SCS Opposite-Spin Energy  =      -1.5829760205093473 [Eh]
	 SCS Correlation Energy    =      -1.7206113923371240 [Eh]
	 SCS Total Energy          =    -385.4843741684407519 [Eh]
	-----------------------------------------------------------

  Dipole Moment: [D]
     X:     0.4599      Y:    -1.2939      Z:    -0.0818     Total:     1.3756

*** Psi4 exiting successfully. Buy a developer a beer!
