                               Psi4 1.4a2.dev612

  ==> Input File <==

--------------------------------------------------------------------------
#psi4
#
memory 32 gb

molecule  {
0 1
  O       -3.1417080     0.0705380     0.3169670
  C        0.9902420    -0.0039870    -0.3612050
  C        2.4872910    -0.0052090    -0.5397260
  C        0.2806140    -1.2015640    -0.2442060
  C        0.2798770     1.1950560    -0.2368630
  C        3.2312830    -0.0061060     0.7967240
  C       -1.0960700    -1.2065460    -0.0157640
  C       -1.0950530     1.2066380    -0.0091780
  C       -1.7865290     0.0017960     0.1015840
  H        2.7838010    -0.8823900    -1.1265120
  H        2.7835740     0.8731460    -1.1246690
  H        0.8095070    -2.1483250    -0.3363770
  H        0.8092330     2.1418130    -0.3228610
  H        2.9650580     0.8755680     1.3857970
  H        4.3169070    -0.0053560     0.6533480
  H        2.9660240    -0.8892340     1.3840690
  H       -1.6288030    -2.1532140     0.0657430
  H       -1.6431320     2.1402150     0.0795740
  H       -3.4941530    -0.8345020     0.3676020
units angstrom
no_reorient  #important for SAPT in psi4, default
symmetry c1  #important for SAPT in psi4, default
}

set PROPERTIES_ORIGIN ["COM"]
properties('MP2/aug-cc-pvtz', properties = ['dipole'])
--------------------------------------------------------------------------

    Molecular point group: c1
  Charge       = 0
  Multiplicity = 1
  Basis Set: AUG-CC-PVTZ
    Blend: AUG-CC-PVTZ
  Basis Set: (AUG-CC-PVTZ AUX)
    Blend: AUG-CC-PVTZ-JKFIT

    Orbital Energies [Eh]
    ---------------------

    Doubly Occupied:

       1A    -20.589387     2A    -11.299336     3A    -11.238141
       4A    -11.236318     5A    -11.234673     6A    -11.230934
       7A    -11.228148     8A    -11.227061     9A    -11.215244
      10A     -1.398549    11A     -1.151103    12A     -1.058002
      13A     -1.016711    14A     -0.975659    15A     -0.861705
      16A     -0.842754    17A     -0.791421    18A     -0.728509
      19A     -0.672188    20A     -0.646788    21A     -0.612988
      22A     -0.596087    23A     -0.587781    24A     -0.585731
      25A     -0.569520    26A     -0.555367    27A     -0.523350
      28A     -0.498101    29A     -0.479989    30A     -0.478019
      31A     -0.468202    32A     -0.340477    33A     -0.305852

  @DF-RHF Final Energy:  -383.76675064248843

   => Energetics <=

    Nuclear Repulsion Energy =            418.3237940575026528
    One-Electron Energy =               -1349.6928988640365787
    Two-Electron Energy =                 547.6023541640454368
    Total Energy =                       -383.7667506424884323
  Basis Set: (AUG-CC-PVTZ AUX)
    Blend: AUG-CC-PVTZ-RI
    Molecular point group: c1

    Geometry (in Angstrom), charge = 0, multiplicity = 1:

       Center              X                  Y                   Z               Mass
    ------------   -----------------  -----------------  -----------------  -----------------
         O           -3.141708019246     0.070537980128     0.316967062689    15.994914619570
         C            0.990241980754    -0.003987019872    -0.361204937311    12.000000000000
         C            2.487290980754    -0.005209019872    -0.539725937311    12.000000000000
         C            0.280613980754    -1.201564019872    -0.244205937311    12.000000000000
         C            0.279876980754     1.195055980128    -0.236862937311    12.000000000000
         C            3.231282980754    -0.006106019872     0.796724062689    12.000000000000
         C           -1.096070019246    -1.206546019872    -0.015763937311    12.000000000000
         C           -1.095053019246     1.206637980128    -0.009177937311    12.000000000000
         C           -1.786529019246     0.001795980128     0.101584062689    12.000000000000
         H            2.783800980754    -0.882390019872    -1.126511937311     1.007825032230
         H            2.783573980754     0.873145980128    -1.124668937311     1.007825032230
         H            0.809506980754    -2.148325019872    -0.336376937311     1.007825032230
         H            0.809232980754     2.141812980128    -0.322860937311     1.007825032230
         H            2.965057980754     0.875567980128     1.385797062689     1.007825032230
         H            4.316906980754    -0.005356019872     0.653348062689     1.007825032230
         H            2.966023980754    -0.889234019872     1.384069062689     1.007825032230
         H           -1.628803019246    -2.153214019872     0.065743062689     1.007825032230
         H           -1.643132019246     2.140214980128     0.079574062689     1.007825032230
         H           -3.494153019246    -0.834502019872     0.367602062689     1.007825032230

  Basis Set: AUG-CC-PVTZ
    Blend: AUG-CC-PVTZ
  Basis Set: (AUG-CC-PVTZ AUX)
    Blend: AUG-CC-PVTZ-JKFIT
	 Reference Energy          =    -383.7667506424884323 [Eh]
	 Singles Energy            =      -0.0000000000000000 [Eh]
	 Same-Spin Energy          =      -0.4127478300476727 [Eh]
	 Opposite-Spin Energy      =      -1.3187328738705633 [Eh]
	 Correlation Energy        =      -1.7314807039182361 [Eh]
	 Total Energy              =    -385.4982313464066692 [Eh]

	 ================> DF-SCS-MP2 Energies <==================
	-----------------------------------------------------------
	 SCS Same-Spin Scale       =       0.3333333333333333 [-]
	 SCS Opposite-Spin Scale   =       1.2000000000000000 [-]
	 SCS Same-Spin Energy      =      -0.1375826100158909 [Eh]
	 SCS Opposite-Spin Energy  =      -1.5824794486446758 [Eh]
	 SCS Correlation Energy    =      -1.7200620586605666 [Eh]
	 SCS Total Energy          =    -385.4868127011490060 [Eh]
	-----------------------------------------------------------

  Dipole Moment: [D]
     X:     0.4642      Y:    -1.2724      Z:    -0.0184     Total:     1.3545

*** Psi4 exiting successfully. Buy a developer a beer!
