                               Psi4 1.4a2.dev612

  ==> Input File <==

--------------------------------------------------------------------------
#psi4
#
memory 32 gb

molecule  {
0 1
  O       -3.1417080     0.0705380     0.3169670
  C        0.9902420    -0.0039870    -0.3612050
  C        2.4872910    -0.0052090    -0.5397260
  C        0.2806140    -1.2015640    -0.2442060
  C        0.2530110     1.1956550    -0.4350494
  C        3.2312830    -0.0061060     0.7967240
  C       -1.0960700    -1.2065460    -0.0157640
  C       -1.0950530     1.2066380    -0.0091780
  C       -1.7865290     0.0017960     0.1015840
  H        2.7838010    -0.8823900    -1.1265120
  H        2.7835740     0.8731460    -1.1246690
  H        0.8095070    -2.1483250    -0.3363770
  H        0.8092330     2.1418130    -0.3228610
  H        2.9650580     0.8755680     1.3857970
  H        4.3169070    -0.0053560     0.6533480
  H        2.9660240    -0.8892340     1.3840690
  H       -1.6288030    -2.1532140     0.0657430
  H       -1.6431320     2.1402150     0.0795740
  H       -3.4941530    -0.8345020     0.3676020
units angstrom
no_reorient  #important for SAPT in psi4, default
symmetry c1  #important for SAPT in psi4, default
}

set PROPERTIES_ORIGIN ["COM"]
properties('MP2/aug-cc-pvtz', properties = ['dipole'])
--------------------------------------------------------------------------

    Molecular point group: c1
  Charge       = 0
  Multiplicity = 1
  Basis Set: AUG-CC-PVTZ
    Blend: AUG-CC-PVTZ
  Basis Set: (AUG-CC-PVTZ AUX)
    Blend: AUG-CC-PVTZ-JKFIT

    Orbital Energies [Eh]
    ---------------------

    Doubly Occupied:

       1A    -20.589236     2A    -11.298869     3A    -11.239655
       4A    -11.238240     5A    -11.236876     6A    -11.234416
       7A    -11.231707     8A    -11.227217     9A    -11.215825
      10A     -1.398510    11A     -1.149620    12A     -1.058042
      13A     -1.014730    14A     -0.975988    15A     -0.861096
      16A     -0.842995    17A     -0.788783    18A     -0.726853
      19A     -0.671956    20A     -0.646097    21A     -0.612195
      22A     -0.596192    23A     -0.589532    24A     -0.582428
      25A     -0.567702    26A     -0.553942    27A     -0.522819
      28A     -0.497275    29A     -0.480151    30A     -0.477441
      31A     -0.465660    32A     -0.339776    33A     -0.305293

  @DF-RHF Final Energy:  -383.75416599457014

   => Energetics <=

    Nuclear Repulsion Energy =            417.6306261020947659
    One-Electron Energy =               -1348.2953522316324779
    Two-Electron Energy =                 546.9105601349675680
    Total Energy =                       -383.7541659945701440
  Basis Set: (AUG-CC-PVTZ AUX)
    Blend: AUG-CC-PVTZ-RI
    Molecular point group: c1

    Geometry (in Angstrom), charge = 0, multiplicity = 1:

       Center              X                  Y                   Z               Mass
    ------------   -----------------  -----------------  -----------------  -----------------
         O           -3.139067045694     0.070479097408     0.336449123314    15.994914619570
         C            0.992882954306    -0.004045902592    -0.341722876686    12.000000000000
         C            2.489931954306    -0.005267902592    -0.520243876686    12.000000000000
         C            0.283254954306    -1.201622902592    -0.224723876686    12.000000000000
         C            0.255651954306     1.195596097408    -0.415567276686    12.000000000000
         C            3.233923954306    -0.006164902592     0.816206123314    12.000000000000
         C           -1.093429045694    -1.206604902592     0.003718123314    12.000000000000
         C           -1.092412045694     1.206579097408     0.010304123314    12.000000000000
         C           -1.783888045694     0.001737097408     0.121066123314    12.000000000000
         H            2.786441954306    -0.882448902592    -1.107029876686     1.007825032230
         H            2.786214954306     0.873087097408    -1.105186876686     1.007825032230
         H            0.812147954306    -2.148383902592    -0.316894876686     1.007825032230
         H            0.811873954306     2.141754097408    -0.303378876686     1.007825032230
         H            2.967698954306     0.875509097408     1.405279123314     1.007825032230
         H            4.319547954306    -0.005414902592     0.672830123314     1.007825032230
         H            2.968664954306    -0.889292902592     1.403551123314     1.007825032230
         H           -1.626162045694    -2.153272902592     0.085225123314     1.007825032230
         H           -1.640491045694     2.140156097408     0.099056123314     1.007825032230
         H           -3.491512045694    -0.834560902592     0.387084123314     1.007825032230

  Basis Set: AUG-CC-PVTZ
    Blend: AUG-CC-PVTZ
  Basis Set: (AUG-CC-PVTZ AUX)
    Blend: AUG-CC-PVTZ-JKFIT
	 Reference Energy          =    -383.7541659945701440 [Eh]
	 Singles Energy            =      -0.0000000000000000 [Eh]
	 Same-Spin Energy          =      -0.4133692674918050 [Eh]
	 Opposite-Spin Energy      =      -1.3206383342551686 [Eh]
	 Correlation Energy        =      -1.7340076017469737 [Eh]
	 Total Energy              =    -385.4881735963170968 [Eh]

	 ================> DF-SCS-MP2 Energies <==================
	-----------------------------------------------------------
	 SCS Same-Spin Scale       =       0.3333333333333333 [-]
	 SCS Opposite-Spin Scale   =       1.2000000000000000 [-]
	 SCS Same-Spin Energy      =      -0.1377897558306017 [Eh]
	 SCS Opposite-Spin Energy  =      -1.5847660011062024 [Eh]
	 SCS Correlation Energy    =      -1.7225557569368040 [Eh]
	 SCS Total Energy          =    -385.4767217515069433 [Eh]
	-----------------------------------------------------------

  Dipole Moment: [D]
     X:     0.4546      Y:    -1.3566      Z:     0.1136     Total:     1.4352

*** Psi4 exiting successfully. Buy a developer a beer!
