                               Psi4 1.4a2.dev612

  ==> Input File <==

--------------------------------------------------------------------------
#psi4
#
memory 32 gb

molecule  {
0 1
  O       -3.1417080     0.0705380     0.3169670
  C        0.9902420    -0.0039870    -0.3612050
  C        2.4872910    -0.0052090    -0.5397260
  C        0.2806140    -1.2015640    -0.2442060
  C        0.2731605     1.1952057    -0.2864096
  C        3.2312830    -0.0061060     0.7967240
  C       -1.0960700    -1.2065460    -0.0157640
  C       -1.0950530     1.2066380    -0.0091780
  C       -1.7865290     0.0017960     0.1015840
  H        2.7838010    -0.8823900    -1.1265120
  H        2.7835740     0.8731460    -1.1246690
  H        0.8095070    -2.1483250    -0.3363770
  H        0.8092330     2.1418130    -0.3228610
  H        2.9650580     0.8755680     1.3857970
  H        4.3169070    -0.0053560     0.6533480
  H        2.9660240    -0.8892340     1.3840690
  H       -1.6288030    -2.1532140     0.0657430
  H       -1.6431320     2.1402150     0.0795740
  H       -3.4941530    -0.8345020     0.3676020
units angstrom
no_reorient  #important for SAPT in psi4, default
symmetry c1  #important for SAPT in psi4, default
}

set PROPERTIES_ORIGIN ["COM"]
properties('MP2/aug-cc-pvtz', properties = ['dipole'])
--------------------------------------------------------------------------

    Molecular point group: c1
  Charge       = 0
  Multiplicity = 1
  Basis Set: AUG-CC-PVTZ
    Blend: AUG-CC-PVTZ
  Basis Set: (AUG-CC-PVTZ AUX)
    Blend: AUG-CC-PVTZ-JKFIT

    Orbital Energies [Eh]
    ---------------------

    Doubly Occupied:

       1A    -20.589361     2A    -11.299285     3A    -11.238152
       4A    -11.236537     5A    -11.234889     6A    -11.231146
       7A    -11.228442     8A    -11.227057     9A    -11.215326
      10A     -1.398532    11A     -1.150972    12A     -1.057981
      13A     -1.016480    14A     -0.975838    15A     -0.861610
      16A     -0.842905    17A     -0.791101    18A     -0.728420
      19A     -0.672250    20A     -0.646702    21A     -0.612981
      22A     -0.596158    23A     -0.588365    24A     -0.584977
      25A     -0.569904    26A     -0.555067    27A     -0.523266
      28A     -0.498108    29A     -0.479979    30A     -0.478051
      31A     -0.467975    32A     -0.340311    33A     -0.305878

  @DF-RHF Final Energy:  -383.76601280308898

   => Energetics <=

    Nuclear Repulsion Energy =            418.2339754224514650
    One-Electron Energy =               -1349.5119672533287485
    Two-Electron Energy =                 547.5119790277882430
    Total Energy =                       -383.7660128030889837
  Basis Set: (AUG-CC-PVTZ AUX)
    Blend: AUG-CC-PVTZ-RI
    Molecular point group: c1

    Geometry (in Angstrom), charge = 0, multiplicity = 1:

       Center              X                  Y                   Z               Mass
    ------------   -----------------  -----------------  -----------------  -----------------
         O           -3.141047775858     0.070523264363     0.321837577845    15.994914619570
         C            0.990902224142    -0.004001735637    -0.356334422155    12.000000000000
         C            2.487951224142    -0.005223735637    -0.534855422155    12.000000000000
         C            0.281274224142    -1.201578735637    -0.239335422155    12.000000000000
         C            0.273820724142     1.195190964363    -0.281539022155    12.000000000000
         C            3.231943224142    -0.006120735637     0.801594577845    12.000000000000
         C           -1.095409775858    -1.206560735637    -0.010893422155    12.000000000000
         C           -1.094392775858     1.206623264363    -0.004307422155    12.000000000000
         C           -1.785868775858     0.001781264363     0.106454577845    12.000000000000
         H            2.784461224142    -0.882404735637    -1.121641422155     1.007825032230
         H            2.784234224142     0.873131264363    -1.119798422155     1.007825032230
         H            0.810167224142    -2.148339735637    -0.331506422155     1.007825032230
         H            0.809893224142     2.141798264363    -0.317990422155     1.007825032230
         H            2.965718224142     0.875553264363     1.390667577845     1.007825032230
         H            4.317567224142    -0.005370735637     0.658218577845     1.007825032230
         H            2.966684224142    -0.889248735637     1.388939577845     1.007825032230
         H           -1.628142775858    -2.153228735637     0.070613577845     1.007825032230
         H           -1.642471775858     2.140200264363     0.084444577845     1.007825032230
         H           -3.493492775858    -0.834516735637     0.372472577845     1.007825032230

  Basis Set: AUG-CC-PVTZ
    Blend: AUG-CC-PVTZ
  Basis Set: (AUG-CC-PVTZ AUX)
    Blend: AUG-CC-PVTZ-JKFIT
	 Reference Energy          =    -383.7660128030889837 [Eh]
	 Singles Energy            =      -0.0000000000000000 [Eh]
	 Same-Spin Energy          =      -0.4127687076692795 [Eh]
	 Opposite-Spin Energy      =      -1.3188175857978790 [Eh]
	 Correlation Energy        =      -1.7315862934671586 [Eh]
	 Total Energy              =    -385.4975990965561436 [Eh]

	 ================> DF-SCS-MP2 Energies <==================
	-----------------------------------------------------------
	 SCS Same-Spin Scale       =       0.3333333333333333 [-]
	 SCS Opposite-Spin Scale   =       1.2000000000000000 [-]
	 SCS Same-Spin Energy      =      -0.1375895692230932 [Eh]
	 SCS Opposite-Spin Energy  =      -1.5825811029574548 [Eh]
	 SCS Correlation Energy    =      -1.7201706721805481 [Eh]
	 SCS Total Energy          =    -385.4861834752695131 [Eh]
	-----------------------------------------------------------

  Dipole Moment: [D]
     X:     0.4677      Y:    -1.2785      Z:     0.0120     Total:     1.3614

*** Psi4 exiting successfully. Buy a developer a beer!
