                               Psi4 1.4a2.dev612

  ==> Input File <==

--------------------------------------------------------------------------
#psi4
#
memory 32 gb

molecule  {
0 1
  O       -3.1417080     0.0705380     0.3169670
  C        0.9902420    -0.0039870    -0.3612050
  C        2.4872910    -0.0052090    -0.5397260
  C        0.2806140    -1.2015640    -0.2442060
  C        0.2395780     1.1959544    -0.5341426
  C        3.2312830    -0.0061060     0.7967240
  C       -1.0960700    -1.2065460    -0.0157640
  C       -1.0950530     1.2066380    -0.0091780
  C       -1.7865290     0.0017960     0.1015840
  H        2.7838010    -0.8823900    -1.1265120
  H        2.7835740     0.8731460    -1.1246690
  H        0.8095070    -2.1483250    -0.3363770
  H        0.8092330     2.1418130    -0.3228610
  H        2.9650580     0.8755680     1.3857970
  H        4.3169070    -0.0053560     0.6533480
  H        2.9660240    -0.8892340     1.3840690
  H       -1.6288030    -2.1532140     0.0657430
  H       -1.6431320     2.1402150     0.0795740
  H       -3.4941530    -0.8345020     0.3676020
units angstrom
no_reorient  #important for SAPT in psi4, default
symmetry c1  #important for SAPT in psi4, default
}

set PROPERTIES_ORIGIN ["COM"]
properties('MP2/aug-cc-pvtz', properties = ['dipole'])
--------------------------------------------------------------------------

    Molecular point group: c1
  Charge       = 0
  Multiplicity = 1
  Basis Set: AUG-CC-PVTZ
    Blend: AUG-CC-PVTZ
  Basis Set: (AUG-CC-PVTZ AUX)
    Blend: AUG-CC-PVTZ-JKFIT

    Orbital Energies [Eh]
    ---------------------

    Doubly Occupied:

       1A    -20.589170     2A    -11.298458     3A    -11.243494
       4A    -11.240216     5A    -11.239061     6A    -11.237228
       7A    -11.235653     8A    -11.227479     9A    -11.216405
      10A     -1.398569    11A     -1.148064    12A     -1.058262
      13A     -1.012712    14A     -0.975758    15A     -0.860568
      16A     -0.842813    17A     -0.786406    18A     -0.725141
      19A     -0.671622    20A     -0.645394    21A     -0.611430
      22A     -0.596122    23A     -0.589806    24A     -0.581297
      25A     -0.563098    26A     -0.552869    27A     -0.522306
      28A     -0.495919    29A     -0.480418    30A     -0.476157
      31A     -0.462774    32A     -0.339615    33A     -0.304430

  @DF-RHF Final Energy:  -383.73802603275055

   => Energetics <=

    Nuclear Repulsion Energy =            416.9658916810561777
    One-Electron Energy =               -1346.9504096983152976
    Two-Electron Energy =                 546.2464919845085660
    Total Energy =                       -383.7380260327505539
  Basis Set: (AUG-CC-PVTZ AUX)
    Blend: AUG-CC-PVTZ-RI
    Molecular point group: c1

    Geometry (in Angstrom), charge = 0, multiplicity = 1:

       Center              X                  Y                   Z               Mass
    ------------   -----------------  -----------------  -----------------  -----------------
         O           -3.137746558918     0.070449665878     0.346190153626    15.994914619570
         C            0.994203441082    -0.004075334122    -0.331981846374    12.000000000000
         C            2.491252441082    -0.005297334122    -0.510502846374    12.000000000000
         C            0.284575441082    -1.201652334122    -0.214982846374    12.000000000000
         C            0.243539441082     1.195866065878    -0.504919446374    12.000000000000
         C            3.235244441082    -0.006194334122     0.825947153626    12.000000000000
         C           -1.092108558918    -1.206634334122     0.013459153626    12.000000000000
         C           -1.091091558918     1.206549665878     0.020045153626    12.000000000000
         C           -1.782567558918     0.001707665878     0.130807153626    12.000000000000
         H            2.787762441082    -0.882478334122    -1.097288846374     1.007825032230
         H            2.787535441082     0.873057665878    -1.095445846374     1.007825032230
         H            0.813468441082    -2.148413334122    -0.307153846374     1.007825032230
         H            0.813194441082     2.141724665878    -0.293637846374     1.007825032230
         H            2.969019441082     0.875479665878     1.415020153626     1.007825032230
         H            4.320868441082    -0.005444334122     0.682571153626     1.007825032230
         H            2.969985441082    -0.889322334122     1.413292153626     1.007825032230
         H           -1.624841558918    -2.153302334122     0.094966153626     1.007825032230
         H           -1.639170558918     2.140126665878     0.108797153626     1.007825032230
         H           -3.490191558918    -0.834590334122     0.396825153626     1.007825032230

  Basis Set: AUG-CC-PVTZ
    Blend: AUG-CC-PVTZ
  Basis Set: (AUG-CC-PVTZ AUX)
    Blend: AUG-CC-PVTZ-JKFIT
	 Reference Energy          =    -383.7380260327505539 [Eh]
	 Singles Energy            =      -0.0000000000000000 [Eh]
	 Same-Spin Energy          =      -0.4141723120825940 [Eh]
	 Opposite-Spin Energy      =      -1.3230838977172805 [Eh]
	 Correlation Energy        =      -1.7372562097998745 [Eh]
	 Total Energy              =    -385.4752822425504064 [Eh]

	 ================> DF-SCS-MP2 Energies <==================
	-----------------------------------------------------------
	 SCS Same-Spin Scale       =       0.3333333333333333 [-]
	 SCS Opposite-Spin Scale   =       1.2000000000000000 [-]
	 SCS Same-Spin Energy      =      -0.1380574373608646 [Eh]
	 SCS Opposite-Spin Energy  =      -1.5877006772607365 [Eh]
	 SCS Correlation Energy    =      -1.7257581146216012 [Eh]
	 SCS Total Energy          =    -385.4637841473721664 [Eh]
	-----------------------------------------------------------

  Dipole Moment: [D]
     X:     0.4273      Y:    -1.4566      Z:     0.1922     Total:     1.5301

*** Psi4 exiting successfully. Buy a developer a beer!
