                               Psi4 1.4a2.dev612

  ==> Input File <==

--------------------------------------------------------------------------
#psi4
#
memory 32 gb

molecule  {
0 1
  O       -3.1417080     0.0705380     0.3169670
  C        0.9902420    -0.0039870    -0.3612050
  C        2.4872910    -0.0052090    -0.5397260
  C        0.2806140    -1.2015640    -0.2442060
  C        0.2462945     1.1958047    -0.4845960
  C        3.2312830    -0.0061060     0.7967240
  C       -1.0960700    -1.2065460    -0.0157640
  C       -1.0950530     1.2066380    -0.0091780
  C       -1.7865290     0.0017960     0.1015840
  H        2.7838010    -0.8823900    -1.1265120
  H        2.7835740     0.8731460    -1.1246690
  H        0.8095070    -2.1483250    -0.3363770
  H        0.8092330     2.1418130    -0.3228610
  H        2.9650580     0.8755680     1.3857970
  H        4.3169070    -0.0053560     0.6533480
  H        2.9660240    -0.8892340     1.3840690
  H       -1.6288030    -2.1532140     0.0657430
  H       -1.6431320     2.1402150     0.0795740
  H       -3.4941530    -0.8345020     0.3676020
units angstrom
no_reorient  #important for SAPT in psi4, default
symmetry c1  #important for SAPT in psi4, default
}

set PROPERTIES_ORIGIN ["COM"]
properties('MP2/aug-cc-pvtz', properties = ['dipole'])
--------------------------------------------------------------------------

    Molecular point group: c1
  Charge       = 0
  Multiplicity = 1
  Basis Set: AUG-CC-PVTZ
    Blend: AUG-CC-PVTZ
  Basis Set: (AUG-CC-PVTZ AUX)
    Blend: AUG-CC-PVTZ-JKFIT

    Orbital Energies [Eh]
    ---------------------

    Doubly Occupied:

       1A    -20.589197     2A    -11.298670     3A    -11.241423
       4A    -11.238855     5A    -11.237605     6A    -11.236219
       7A    -11.233523     8A    -11.227332     9A    -11.216088
      10A     -1.398527    11A     -1.148894    12A     -1.058129
      13A     -1.013802    14A     -0.975908    15A     -0.860850
      16A     -0.842925    17A     -0.787651    18A     -0.726029
      19A     -0.671779    20A     -0.645776    21A     -0.611806
      22A     -0.596149    23A     -0.589719    24A     -0.581797
      25A     -0.565670    26A     -0.553459    27A     -0.522590
      28A     -0.496686    29A     -0.480286    30A     -0.476900
      31A     -0.464358    32A     -0.339657    33A     -0.304902

  @DF-RHF Final Energy:  -383.74693498083360

   => Energetics <=

    Nuclear Repulsion Energy =            417.3230713848313940
    One-Electron Energy =               -1347.6736868552086435
    Two-Electron Energy =                 546.6036804895436489
    Total Energy =                       -383.7469349808336574
  Basis Set: (AUG-CC-PVTZ AUX)
    Blend: AUG-CC-PVTZ-RI
    Molecular point group: c1

    Geometry (in Angstrom), charge = 0, multiplicity = 1:

       Center              X                  Y                   Z               Mass
    ------------   -----------------  -----------------  -----------------  -----------------
         O           -3.138406802306     0.070464381643     0.341319638470    15.994914619570
         C            0.993543197694    -0.004060618357    -0.336852361530    12.000000000000
         C            2.490592197694    -0.005282618357    -0.515373361530    12.000000000000
         C            0.283915197694    -1.201637618357    -0.219853361530    12.000000000000
         C            0.249595697694     1.195731081643    -0.460243361530    12.000000000000
         C            3.234584197694    -0.006179618357     0.821076638470    12.000000000000
         C           -1.092768802306    -1.206619618357     0.008588638470    12.000000000000
         C           -1.091751802306     1.206564381643     0.015174638470    12.000000000000
         C           -1.783227802306     0.001722381643     0.125936638470    12.000000000000
         H            2.787102197694    -0.882463618357    -1.102159361530     1.007825032230
         H            2.786875197694     0.873072381643    -1.100316361530     1.007825032230
         H            0.812808197694    -2.148398618357    -0.312024361530     1.007825032230
         H            0.812534197694     2.141739381643    -0.298508361530     1.007825032230
         H            2.968359197694     0.875494381643     1.410149638470     1.007825032230
         H            4.320208197694    -0.005429618357     0.677700638470     1.007825032230
         H            2.969325197694    -0.889307618357     1.408421638470     1.007825032230
         H           -1.625501802306    -2.153287618357     0.090095638470     1.007825032230
         H           -1.639830802306     2.140141381643     0.103926638470     1.007825032230
         H           -3.490851802306    -0.834575618357     0.391954638470     1.007825032230

  Basis Set: AUG-CC-PVTZ
    Blend: AUG-CC-PVTZ
  Basis Set: (AUG-CC-PVTZ AUX)
    Blend: AUG-CC-PVTZ-JKFIT
	 Reference Energy          =    -383.7469349808336005 [Eh]
	 Singles Energy            =      -0.0000000000000000 [Eh]
	 Same-Spin Energy          =      -0.4137345632051156 [Eh]
	 Opposite-Spin Energy      =      -1.3217460453216545 [Eh]
	 Correlation Energy        =      -1.7354806085267702 [Eh]
	 Total Energy              =    -385.4824155893603574 [Eh]

	 ================> DF-SCS-MP2 Energies <==================
	-----------------------------------------------------------
	 SCS Same-Spin Scale       =       0.3333333333333333 [-]
	 SCS Opposite-Spin Scale   =       1.2000000000000000 [-]
	 SCS Same-Spin Energy      =      -0.1379115210683718 [Eh]
	 SCS Opposite-Spin Energy  =      -1.5860952543859854 [Eh]
	 SCS Correlation Energy    =      -1.7240067754543573 [Eh]
	 SCS Total Energy          =    -385.4709417562879707 [Eh]
	-----------------------------------------------------------

  Dipole Moment: [D]
     X:     0.4428      Y:    -1.4020      Z:     0.1518     Total:     1.4781

*** Psi4 exiting successfully. Buy a developer a beer!
