                               Psi4 1.4a2.dev612

  ==> Input File <==

--------------------------------------------------------------------------
#psi4
#
memory 32 gb

molecule  {
0 1
  O       -3.1417080     0.0705380     0.3169670
  C        0.9902420    -0.0039870    -0.3612050
  C        2.4872910    -0.0052090    -0.5397260
  C        0.2806140    -1.2015640    -0.2442060
  C        0.2798770     1.1950560    -0.2368630
  C        3.2312830    -0.0061060     0.7967240
  C       -1.0960700    -1.2065460    -0.0157640
  C       -1.0632803     1.2060857     0.1882813
  C       -1.7865290     0.0017960     0.1015840
  H        2.7838010    -0.8823900    -1.1265120
  H        2.7835740     0.8731460    -1.1246690
  H        0.8095070    -2.1483250    -0.3363770
  H        0.8092330     2.1418130    -0.3228610
  H        2.9650580     0.8755680     1.3857970
  H        4.3169070    -0.0053560     0.6533480
  H        2.9660240    -0.8892340     1.3840690
  H       -1.6288030    -2.1532140     0.0657430
  H       -1.6431320     2.1402150     0.0795740
  H       -3.4941530    -0.8345020     0.3676020
units angstrom
no_reorient  #important for SAPT in psi4, default
symmetry c1  #important for SAPT in psi4, default
}

set PROPERTIES_ORIGIN ["COM"]
properties('MP2/aug-cc-pvtz', properties = ['dipole'])
--------------------------------------------------------------------------

    Molecular point group: c1
  Charge       = 0
  Multiplicity = 1
  Basis Set: AUG-CC-PVTZ
    Blend: AUG-CC-PVTZ
  Basis Set: (AUG-CC-PVTZ AUX)
    Blend: AUG-CC-PVTZ-JKFIT

    Orbital Energies [Eh]
    ---------------------

    Doubly Occupied:

       1A    -20.590668     2A    -11.303087     3A    -11.240418
       4A    -11.239612     5A    -11.234754     6A    -11.231338
       7A    -11.230823     8A    -11.227308     9A    -11.215360
      10A     -1.399555    11A     -1.150335    12A     -1.057518
      13A     -1.015158    14A     -0.975411    15A     -0.860804
      16A     -0.842462    17A     -0.790277    18A     -0.728817
      19A     -0.671546    20A     -0.644073    21A     -0.612891
      22A     -0.596243    23A     -0.588229    24A     -0.580321
      25A     -0.569479    26A     -0.555554    27A     -0.521623
      28A     -0.496613    29A     -0.480369    30A     -0.477840
      31A     -0.465977    32A     -0.340302    33A     -0.305848

  @DF-RHF Final Energy:  -383.75477358534204

   => Energetics <=

    Nuclear Repulsion Energy =            417.9432315748999827
    One-Electron Energy =               -1348.9147815086957962
    Two-Electron Energy =                 547.2167763484537772
    Total Energy =                       -383.7547735853420363
  Basis Set: (AUG-CC-PVTZ AUX)
    Blend: AUG-CC-PVTZ-RI
    Molecular point group: c1

    Geometry (in Angstrom), charge = 0, multiplicity = 1:

       Center              X                  Y                   Z               Mass
    ------------   -----------------  -----------------  -----------------  -----------------
         O           -3.144831329764     0.070592272159     0.297556477233    15.994914619570
         C            0.987118670236    -0.003932727841    -0.380615522767    12.000000000000
         C            2.484167670236    -0.005154727841    -0.559136522767    12.000000000000
         C            0.277490670236    -1.201509727841    -0.263616522767    12.000000000000
         C            0.276753670236     1.195110272159    -0.256273522767    12.000000000000
         C            3.228159670236    -0.006051727841     0.777313477233    12.000000000000
         C           -1.099193329764    -1.206491727841    -0.035174522767    12.000000000000
         C           -1.066403629764     1.206139972159     0.168870777233    12.000000000000
         C           -1.789652329764     0.001850272159     0.082173477233    12.000000000000
         H            2.780677670236    -0.882335727841    -1.145922522767     1.007825032230
         H            2.780450670236     0.873200272159    -1.144079522767     1.007825032230
         H            0.806383670236    -2.148270727841    -0.355787522767     1.007825032230
         H            0.806109670236     2.141867272159    -0.342271522767     1.007825032230
         H            2.961934670236     0.875622272159     1.366386477233     1.007825032230
         H            4.313783670236    -0.005301727841     0.633937477233     1.007825032230
         H            2.962900670236    -0.889179727841     1.364658477233     1.007825032230
         H           -1.631926329764    -2.153159727841     0.046332477233     1.007825032230
         H           -1.646255329764     2.140269272159     0.060163477233     1.007825032230
         H           -3.497276329764    -0.834447727841     0.348191477233     1.007825032230

  Basis Set: AUG-CC-PVTZ
    Blend: AUG-CC-PVTZ
  Basis Set: (AUG-CC-PVTZ AUX)
    Blend: AUG-CC-PVTZ-JKFIT
	 Reference Energy          =    -383.7547735853420363 [Eh]
	 Singles Energy            =      -0.0000000000000000 [Eh]
	 Same-Spin Energy          =      -0.4133358225557361 [Eh]
	 Opposite-Spin Energy      =      -1.3205047643388257 [Eh]
	 Correlation Energy        =      -1.7338405868945619 [Eh]
	 Total Energy              =    -385.4886141722366233 [Eh]

	 ================> DF-SCS-MP2 Energies <==================
	-----------------------------------------------------------
	 SCS Same-Spin Scale       =       0.3333333333333333 [-]
	 SCS Opposite-Spin Scale   =       1.2000000000000000 [-]
	 SCS Same-Spin Energy      =      -0.1377786075185787 [Eh]
	 SCS Opposite-Spin Energy  =      -1.5846057172065908 [Eh]
	 SCS Correlation Energy    =      -1.7223843247251696 [Eh]
	 SCS Total Energy          =    -385.4771579100672056 [Eh]
	-----------------------------------------------------------

  Dipole Moment: [D]
     X:     0.4727      Y:    -1.3561      Z:    -0.1501     Total:     1.4440

*** Psi4 exiting successfully. Buy a developer a beer!
