                               Psi4 1.4a2.dev612

  ==> Input File <==

--------------------------------------------------------------------------
#psi4
#
memory 32 gb

molecule  {
0 1
  O       -3.1417080     0.0705380     0.3169670
  C        0.9902420    -0.0039870    -0.3612050
  C        2.4872910    -0.0052090    -0.5397260
  C        0.2806140    -1.2015640    -0.2442060
  C        0.2798770     1.1950560    -0.2368630
  C        3.2312830    -0.0061060     0.7967240
  C       -1.0960700    -1.2065460    -0.0157640
  C       -1.0473939     1.2058096     0.2870110
  C       -1.7865290     0.0017960     0.1015840
  H        2.7838010    -0.8823900    -1.1265120
  H        2.7835740     0.8731460    -1.1246690
  H        0.8095070    -2.1483250    -0.3363770
  H        0.8092330     2.1418130    -0.3228610
  H        2.9650580     0.8755680     1.3857970
  H        4.3169070    -0.0053560     0.6533480
  H        2.9660240    -0.8892340     1.3840690
  H       -1.6288030    -2.1532140     0.0657430
  H       -1.6431320     2.1402150     0.0795740
  H       -3.4941530    -0.8345020     0.3676020
units angstrom
no_reorient  #important for SAPT in psi4, default
symmetry c1  #important for SAPT in psi4, default
}

set PROPERTIES_ORIGIN ["COM"]
properties('MP2/aug-cc-pvtz', properties = ['dipole'])
--------------------------------------------------------------------------

    Molecular point group: c1
  Charge       = 0
  Multiplicity = 1
  Basis Set: AUG-CC-PVTZ
    Blend: AUG-CC-PVTZ
  Basis Set: (AUG-CC-PVTZ AUX)
    Blend: AUG-CC-PVTZ-JKFIT

    Orbital Energies [Eh]
    ---------------------

    Doubly Occupied:

       1A    -20.592176     2A    -11.307432     3A    -11.243412
       4A    -11.243263     5A    -11.235019     6A    -11.234869
       7A    -11.230754     8A    -11.227620     9A    -11.215550
      10A     -1.400713    11A     -1.149521    12A     -1.057038
      13A     -1.013116    14A     -0.975152    15A     -0.859928
      16A     -0.842007    17A     -0.789149    18A     -0.729272
      19A     -0.671039    20A     -0.641813    21A     -0.612743
      22A     -0.595449    23A     -0.589164    24A     -0.575603
      25A     -0.567151    26A     -0.555654    27A     -0.520606
      28A     -0.494729    29A     -0.480702    30A     -0.477451
      31A     -0.463020    32A     -0.340242    33A     -0.305878

  @DF-RHF Final Energy:  -383.73954706319654

   => Energetics <=

    Nuclear Repulsion Energy =            417.4263352497360415
    One-Electron Energy =               -1347.8572956258719842
    Two-Electron Energy =                 546.6914133129395168
    Total Energy =                       -383.7395470631964827
  Basis Set: (AUG-CC-PVTZ AUX)
    Blend: AUG-CC-PVTZ-RI
    Molecular point group: c1

    Geometry (in Angstrom), charge = 0, multiplicity = 1:

       Center              X                  Y                   Z               Mass
    ------------   -----------------  -----------------  -----------------  -----------------
         O           -3.146392989938     0.070619413259     0.287851179590    15.994914619570
         C            0.985557010062    -0.003905586741    -0.390320820410    12.000000000000
         C            2.482606010062    -0.005127586741    -0.568841820410    12.000000000000
         C            0.275929010062    -1.201482586741    -0.273321820410    12.000000000000
         C            0.275192010062     1.195137413259    -0.265978820410    12.000000000000
         C            3.226598010062    -0.006024586741     0.767608179590    12.000000000000
         C           -1.100754989938    -1.206464586741    -0.044879820410    12.000000000000
         C           -1.052078889938     1.205891013259     0.257895179590    12.000000000000
         C           -1.791213989938     0.001877413259     0.072468179590    12.000000000000
         H            2.779116010062    -0.882308586741    -1.155627820410     1.007825032230
         H            2.778889010062     0.873227413259    -1.153784820410     1.007825032230
         H            0.804822010062    -2.148243586741    -0.365492820410     1.007825032230
         H            0.804548010062     2.141894413259    -0.351976820410     1.007825032230
         H            2.960373010062     0.875649413259     1.356681179590     1.007825032230
         H            4.312222010062    -0.005274586741     0.624232179590     1.007825032230
         H            2.961339010062    -0.889152586741     1.354953179590     1.007825032230
         H           -1.633487989938    -2.153132586741     0.036627179590     1.007825032230
         H           -1.647816989938     2.140296413259     0.050458179590     1.007825032230
         H           -3.498837989938    -0.834420586741     0.338486179590     1.007825032230

  Basis Set: AUG-CC-PVTZ
    Blend: AUG-CC-PVTZ
  Basis Set: (AUG-CC-PVTZ AUX)
    Blend: AUG-CC-PVTZ-JKFIT
	 Reference Energy          =    -383.7395470631965395 [Eh]
	 Singles Energy            =      -0.0000000000000000 [Eh]
	 Same-Spin Energy          =      -0.4140021900909658 [Eh]
	 Opposite-Spin Energy      =      -1.3227161896851616 [Eh]
	 Correlation Energy        =      -1.7367183797761274 [Eh]
	 Total Energy              =    -385.4762654429726467 [Eh]

	 ================> DF-SCS-MP2 Energies <==================
	-----------------------------------------------------------
	 SCS Same-Spin Scale       =       0.3333333333333333 [-]
	 SCS Opposite-Spin Scale   =       1.2000000000000000 [-]
	 SCS Same-Spin Energy      =      -0.1380007300303219 [Eh]
	 SCS Opposite-Spin Energy  =      -1.5872594276221939 [Eh]
	 SCS Correlation Energy    =      -1.7252601576525157 [Eh]
	 SCS Total Energy          =    -385.4648072208490817 [Eh]
	-----------------------------------------------------------

  Dipole Moment: [D]
     X:     0.5011      Y:    -1.4568      Z:    -0.2246     Total:     1.5568

*** Psi4 exiting successfully. Buy a developer a beer!
