                               Psi4 1.3.2 release

  ==> Input File <==

--------------------------------------------------------------------------
#psi4
#
memory 32 gb

molecule  {
-1 1
  O       -2.9259140    -0.9099280    -0.5693610
  O       -2.5318610     1.2678500    -0.0507790
  C        2.5515340     0.1562790    -0.6847320
  C        1.3133740    -0.4576390    -0.0973370
  C        0.1996320     0.2215300     0.2212070
  C       -1.0388440    -0.3710000     0.8261750
  C        3.7521530     0.0645780     0.2634350
  C       -2.2854840     0.0250790    -0.0044070
  H        2.8053070    -0.3466590    -1.6276820
  H        2.3518550     1.2059430    -0.9306210
  H        1.3523840    -1.5323490     0.0963350
  H        0.1538580     1.2934970     0.0216010
  H       -0.9504340    -1.4608690     0.8884060
  H       -1.1946936     0.0967130     2.0288519
  H        3.9732670    -0.9779260     0.5120620
  H        3.5426510     0.5954950     1.1964510
  H        4.6498360     0.5017940    -0.1852730
units angstrom
no_reorient  #important for SAPT in psi4, default
symmetry c1  #important for SAPT in psi4, default
}

set PROPERTIES_ORIGIN ["COM"]
properties('MP2/aug-cc-pvtz', properties = ['dipole'])
--------------------------------------------------------------------------

    Molecular point group: c1
  Charge       = -1
  Multiplicity = 1
  Basis Set: AUG-CC-PVTZ
    Blend: AUG-CC-PVTZ
  Basis Set: (AUG-CC-PVTZ AUX)
    Blend: AUG-CC-PVTZ-JKFIT

    Orbital Energies [Eh]
    ---------------------

    Doubly Occupied:

       1A    -20.300058     2A    -20.296130     3A    -11.146515
       4A    -11.124731     5A    -11.122865     6A    -11.102388
       7A    -11.098229     8A    -11.093446     9A     -1.166790
      10A     -1.065949    11A     -0.970236    12A     -0.899800
      13A     -0.801642    14A     -0.720259    15A     -0.623422
      16A     -0.534284    17A     -0.514620    18A     -0.498235
      19A     -0.453353    20A     -0.441474    21A     -0.417058
      22A     -0.413639    23A     -0.403085    24A     -0.383724
      25A     -0.372783    26A     -0.347983    27A     -0.317228
      28A     -0.238152    29A     -0.211583    30A     -0.196448
      31A     -0.190399

  @DF-RHF Final Energy:  -382.31345962979515

   => Energetics <=

    Nuclear Repulsion Energy =            337.9591729804770921
    One-Electron Energy =               -1201.6122452161566798
    Two-Electron Energy =                 481.3396126058844402
    Total Energy =                       -382.3134596297951475
  Basis Set: (AUG-CC-PVTZ AUX)
    Blend: AUG-CC-PVTZ-RI
    Molecular point group: c1

    Geometry (in Angstrom), charge = -1, multiplicity = 1:

       Center              X                  Y                   Z               Mass
    ------------   -----------------  -----------------  -----------------  -----------------
         O           -2.779322417209    -0.916664312320    -0.555110082468    15.994914619570
         O           -2.385269417209     1.261113687680    -0.036528082468    15.994914619570
         C            2.698125582791     0.149542687680    -0.670481082468    12.000000000000
         C            1.459965582791    -0.464375312320    -0.083086082468    12.000000000000
         C            0.346223582791     0.214793687680     0.235457917532    12.000000000000
         C           -0.892252417209    -0.377736312320     0.840425917532    12.000000000000
         C            3.898744582791     0.057841687680     0.277685917532    12.000000000000
         C           -2.138892417209     0.018342687680     0.009843917532    12.000000000000
         H            2.951898582791    -0.353395312320    -1.613431082468     1.007825032230
         H            2.498446582791     1.199206687680    -0.916370082468     1.007825032230
         H            1.498975582791    -1.539085312320     0.110585917532     1.007825032230
         H            0.300449582791     1.286760687680     0.035851917532     1.007825032230
         H           -0.803842417209    -1.467605312320     0.902656917532     1.007825032230
         H           -1.048102017209     0.089976687680     2.043102817532     1.007825032230
         H            4.119858582791    -0.984662312320     0.526312917532     1.007825032230
         H            3.689242582791     0.588758687680     1.210701917532     1.007825032230
         H            4.796427582791     0.495057687680    -0.171022082468     1.007825032230

  Basis Set: AUG-CC-PVTZ
    Blend: AUG-CC-PVTZ
  Basis Set: (AUG-CC-PVTZ AUX)
    Blend: AUG-CC-PVTZ-JKFIT
	 Reference Energy          =    -382.3134596297951475 [Eh]
	 Singles Energy            =      -0.0000000000000000 [Eh]
	 Same-Spin Energy          =      -0.3909851172187559 [Eh]
	 Opposite-Spin Energy      =      -1.2611425640251195 [Eh]
	 Correlation Energy        =      -1.6521276812438754 [Eh]
	 Total Energy              =    -383.9655873110390303 [Eh]

	 ================> DF-SCS-MP2 Energies <==================
	-----------------------------------------------------------
	 SCS Same-Spin Scale       =       0.3333333333333333 [-]
	 SCS Opposite-Spin Scale   =       1.2000000000000000 [-]
	 SCS Same-Spin Energy      =      -0.1303283724062519 [Eh]
	 SCS Opposite-Spin Energy  =      -1.5133710768301434 [Eh]
	 SCS Correlation Energy    =      -1.6436994492363954 [Eh]
	 SCS Total Energy          =    -383.9571590790315554 [Eh]
	-----------------------------------------------------------

  Dipole Moment: [D]
     X:    10.7761      Y:    -0.7417      Z:     1.4594     Total:    10.8997

*** Psi4 exiting successfully. Buy a developer a beer!
