                               Psi4 1.4a3.dev225

  ==> Input File <==

--------------------------------------------------------------------------
#psi4
#
memory 32 gb

molecule  {
-1 1
  O       -3.0493610    -0.8021490    -0.5876160
  O       -2.4328600     1.2902580     0.0530700
  C        2.5553900     0.3550440    -0.5884220
  C        1.3085550    -0.3848960    -0.2000760
  C        0.2108510     0.1869800     0.3208840
  C       -1.0406500    -0.5396790     0.7060670
  C        3.7725750    -0.0944570     0.2252300
  C       -2.2894080     0.0326700    -0.0161130
  H        2.7644980     0.1992670    -1.6554110
  H        2.3954460     1.4315290    -0.4528260
  H        1.3237782    -1.4183243    -0.3396686
  H        0.1904760     1.2677450     0.4620520
  H       -0.9472880    -1.6102600     0.4951310
  H       -1.2137680    -0.4258540     1.7866990
  H        3.9502020    -1.1668590     0.0980420
  H        3.6128950     0.0963670     1.2904210
  H        4.6769210     0.4370950    -0.0868020
units angstrom
no_reorient  #important for SAPT in psi4, default
symmetry c1  #important for SAPT in psi4, default
}

set PROPERTIES_ORIGIN ["COM"]
properties('MP2/aug-cc-pvtz', properties = ['dipole'])
--------------------------------------------------------------------------

    Molecular point group: c1
  Charge       = -1
  Multiplicity = 1
  Basis Set: AUG-CC-PVTZ
    Blend: AUG-CC-PVTZ
  Basis Set: (AUG-CC-PVTZ AUX)
    Blend: AUG-CC-PVTZ-JKFIT

    Orbital Energies [Eh]
    ---------------------

    Doubly Occupied:

       1A    -20.297865     2A    -20.296058     3A    -11.144398
       4A    -11.123328     5A    -11.120027     6A    -11.098062
       7A    -11.088534     8A    -11.069237     9A     -1.165925
      10A     -1.065408    11A     -0.969387    12A     -0.900519
      13A     -0.807304    14A     -0.721827    15A     -0.629523
      16A     -0.532667    17A     -0.513036    18A     -0.501349
      19A     -0.455336    20A     -0.444273    21A     -0.433136
      22A     -0.414375    23A     -0.401545    24A     -0.382576
      25A     -0.377454    26A     -0.345510    27A     -0.324160
      28A     -0.238490    29A     -0.211782    30A     -0.196217
      31A     -0.187720

  @DF-RHF Final Energy:  -382.33285776740058

   => Energetics <=

    Nuclear Repulsion Energy =            338.9170293217612766
    One-Electron Energy =               -1203.5857203225136800
    Two-Electron Energy =                 482.3358332333518774
    Total Energy =                       -382.3328577674005828
  Basis Set: (AUG-CC-PVTZ AUX)
    Blend: AUG-CC-PVTZ-RI
    Molecular point group: c1

    Geometry (in Angstrom), charge = -1, multiplicity = 1:

       Center              X                  Y                   Z               Mass
    ------------   -----------------  -----------------  -----------------  -----------------
         O           -2.902575140803    -0.813440370421    -0.573738102125    15.994914619570
         O           -2.286074140803     1.278966629579     0.066947897875    15.994914619570
         C            2.702175859197     0.343752629579    -0.574544102125    12.000000000000
         C            1.455340859197    -0.396187370421    -0.186198102125    12.000000000000
         C            0.357636859197     0.175688629579     0.334761897875    12.000000000000
         C           -0.893864140803    -0.550970370421     0.719944897875    12.000000000000
         C            3.919360859197    -0.105748370421     0.239107897875    12.000000000000
         C           -2.142622140803     0.021378629579    -0.002235102125    12.000000000000
         H            2.911283859197     0.187975629579    -1.641533102125     1.007825032230
         H            2.542231859197     1.420237629579    -0.438948102125     1.007825032230
         H            1.470564059197    -1.429615670421    -0.325790702125     1.007825032230
         H            0.337261859197     1.256453629579     0.475929897875     1.007825032230
         H           -0.800502140803    -1.621551370421     0.509008897875     1.007825032230
         H           -1.066982140803    -0.437145370421     1.800576897875     1.007825032230
         H            4.096987859197    -1.178150370421     0.111919897875     1.007825032230
         H            3.759680859197     0.085075629579     1.304298897875     1.007825032230
         H            4.823706859197     0.425803629579    -0.072924102125     1.007825032230

  Basis Set: AUG-CC-PVTZ
    Blend: AUG-CC-PVTZ
  Basis Set: (AUG-CC-PVTZ AUX)
    Blend: AUG-CC-PVTZ-JKFIT
	 Reference Energy          =    -382.3328577674005828 [Eh]
	 Singles Energy            =      -0.0000000000000000 [Eh]
	 Same-Spin Energy          =      -0.3908282860594797 [Eh]
	 Opposite-Spin Energy      =      -1.2591138082366018 [Eh]
	 Correlation Energy        =      -1.6499420942960814 [Eh]
	 Total Energy              =    -383.9827998616966624 [Eh]

	 ================> DF-SCS-MP2 Energies <==================
	-----------------------------------------------------------
	 SCS Same-Spin Scale       =       0.3333333333333333 [-]
	 SCS Opposite-Spin Scale   =       1.2000000000000000 [-]
	 SCS Same-Spin Energy      =      -0.1302760953531599 [Eh]
	 SCS Opposite-Spin Energy  =      -1.5109365698839221 [Eh]
	 SCS Correlation Energy    =      -1.6412126652370820 [Eh]
	 SCS Total Energy          =    -383.9740704326376886 [Eh]
	-----------------------------------------------------------

  Dipole Moment: [D]
     X:    10.7260      Y:    -1.0501      Z:     1.4657     Total:    10.8764

*** Psi4 exiting successfully. Buy a developer a beer!
