                               Psi4 1.3.2 release

  ==> Input File <==

--------------------------------------------------------------------------
#psi4
#
memory 32 gb

molecule  {
-1 1
  O       -2.9259140    -0.9099280    -0.5693610
  O       -2.5318610     1.2678500    -0.0507790
  C        2.5837294     0.0845791    -0.6865441
  C        1.3133740    -0.4576390    -0.0973370
  C        0.1996320     0.2215300     0.2212070
  C       -1.0329645    -0.5020453     0.8439568
  C        3.7521530     0.0645780     0.2634350
  C       -2.2854840     0.0250790    -0.0044070
  H        2.8053070    -0.3466590    -1.6276820
  H        2.3518550     1.2059430    -0.9306210
  H        1.3523840    -1.5323490     0.0963350
  H        0.1538580     1.2934970     0.0216010
  H       -0.9504340    -1.4608690     0.8884060
  H       -1.1707130     0.0247460     1.8437960
  H        3.9732670    -0.9779260     0.5120620
  H        3.5426510     0.5954950     1.1964510
  H        4.6498360     0.5017940    -0.1852730
units angstrom
no_reorient  #important for SAPT in psi4, default
symmetry c1  #important for SAPT in psi4, default
}

set PROPERTIES_ORIGIN ["COM"]
properties('MP2/aug-cc-pvtz', properties = ['dipole'])
--------------------------------------------------------------------------

    Molecular point group: c1
  Charge       = -1
  Multiplicity = 1
  Basis Set: AUG-CC-PVTZ
    Blend: AUG-CC-PVTZ
  Basis Set: (AUG-CC-PVTZ AUX)
    Blend: AUG-CC-PVTZ-JKFIT

    Orbital Energies [Eh]
    ---------------------

    Doubly Occupied:

       1A    -20.300357     2A    -20.296449     3A    -11.148556
       4A    -11.122611     5A    -11.121518     6A    -11.103878
       7A    -11.092685     8A    -11.068619     9A     -1.165255
      10A     -1.065569    11A     -0.968417    12A     -0.898606
      13A     -0.804966    14A     -0.722983    15A     -0.620924
      16A     -0.534515    17A     -0.517663    18A     -0.497492
      19A     -0.456858    20A     -0.444600    21A     -0.426366
      22A     -0.421431    23A     -0.404892    24A     -0.385960
      25A     -0.368695    26A     -0.346603    27A     -0.316962
      28A     -0.236918    29A     -0.214512    30A     -0.197144
      31A     -0.182562

  @DF-RHF Final Energy:  -382.30435640805973

   => Energetics <=

    Nuclear Repulsion Energy =            337.7591425616811307
    One-Electron Energy =               -1201.2178653889334328
    Two-Electron Energy =                 481.1543664191926268
    Total Energy =                       -382.3043564080597321
  Basis Set: (AUG-CC-PVTZ AUX)
    Blend: AUG-CC-PVTZ-RI
    Molecular point group: c1

    Geometry (in Angstrom), charge = -1, multiplicity = 1:

       Center              X                  Y                   Z               Mass
    ------------   -----------------  -----------------  -----------------  -----------------
         O           -2.783577378875    -0.894503805478    -0.555155478011    15.994914619570
         O           -2.389524378875     1.283274194522    -0.036573478011    15.994914619570
         C            2.726066021125     0.100003294522    -0.672338578011    12.000000000000
         C            1.455710621125    -0.442214805478    -0.083131478011    12.000000000000
         C            0.341968621125     0.236954194522     0.235412521989    12.000000000000
         C           -0.890627878875    -0.486621105478     0.858162321989    12.000000000000
         C            3.894489621125     0.080002194522     0.277640521989    12.000000000000
         C           -2.143147378875     0.040503194522     0.009798521989    12.000000000000
         H            2.947643621125    -0.331234805478    -1.613476478011     1.007825032230
         H            2.494191621125     1.221367194522    -0.916415478011     1.007825032230
         H            1.494720621125    -1.516924805478     0.110540521989     1.007825032230
         H            0.296194621125     1.308921194522     0.035806521989     1.007825032230
         H           -0.808097378875    -1.445444805478     0.902611521989     1.007825032230
         H           -1.028376378875     0.040170194522     1.858001521989     1.007825032230
         H            4.115603621125    -0.962501805478     0.526267521989     1.007825032230
         H            3.684987621125     0.610919194522     1.210656521989     1.007825032230
         H            4.792172621125     0.517218194522    -0.171067478011     1.007825032230

  Basis Set: AUG-CC-PVTZ
    Blend: AUG-CC-PVTZ
  Basis Set: (AUG-CC-PVTZ AUX)
    Blend: AUG-CC-PVTZ-JKFIT
	 Reference Energy          =    -382.3043564080597321 [Eh]
	 Singles Energy            =      -0.0000000000000000 [Eh]
	 Same-Spin Energy          =      -0.3912329124739287 [Eh]
	 Opposite-Spin Energy      =      -1.2606429732701976 [Eh]
	 Correlation Energy        =      -1.6518758857441262 [Eh]
	 Total Energy              =    -383.9562322938038506 [Eh]

	 ================> DF-SCS-MP2 Energies <==================
	-----------------------------------------------------------
	 SCS Same-Spin Scale       =       0.3333333333333333 [-]
	 SCS Opposite-Spin Scale   =       1.2000000000000000 [-]
	 SCS Same-Spin Energy      =      -0.1304109708246429 [Eh]
	 SCS Opposite-Spin Energy  =      -1.5127715679242371 [Eh]
	 SCS Correlation Energy    =      -1.6431825387488799 [Eh]
	 SCS Total Energy          =    -383.9475389468086064 [Eh]
	-----------------------------------------------------------

  Dipole Moment: [D]
     X:    10.6226      Y:    -0.8627      Z:     1.6203     Total:    10.7800

*** Psi4 exiting successfully. Buy a developer a beer!
