                               Psi4 1.3.2 release

  ==> Input File <==

--------------------------------------------------------------------------
#psi4
#
memory 32 gb

molecule  {
-1 1
  O       -2.9259140    -0.9099280    -0.5693610
  O       -2.5318610     1.2678500    -0.0507790
  C        2.5741566     0.1090014    -0.6841200
  C        1.3133740    -0.4576390    -0.0973370
  C        0.1996320     0.2215300     0.2212070
  C       -1.0388440    -0.3710000     0.8261750
  C        3.7521530     0.0645780     0.2634350
  C       -2.2854840     0.0250790    -0.0044070
  H        2.8053070    -0.3466590    -1.6276820
  H        2.3518550     1.2059430    -0.9306210
  H        1.3880844    -1.5327942     0.0829177
  H        0.1538580     1.2934970     0.0216010
  H       -0.9504340    -1.4608690     0.8884060
  H       -1.1707130     0.0247460     1.8437960
  H        3.9732670    -0.9779260     0.5120620
  H        3.5426510     0.5954950     1.1964510
  H        4.6498360     0.5017940    -0.1852730
units angstrom
no_reorient  #important for SAPT in psi4, default
symmetry c1  #important for SAPT in psi4, default
}

set PROPERTIES_ORIGIN ["COM"]
properties('MP2/aug-cc-pvtz', properties = ['dipole'])
--------------------------------------------------------------------------

    Molecular point group: c1
  Charge       = -1
  Multiplicity = 1
  Basis Set: AUG-CC-PVTZ
    Blend: AUG-CC-PVTZ
  Basis Set: (AUG-CC-PVTZ AUX)
    Blend: AUG-CC-PVTZ-JKFIT

    Orbital Energies [Eh]
    ---------------------

    Doubly Occupied:

       1A    -20.297840     2A    -20.295989     3A    -11.144139
       4A    -11.123485     5A    -11.121808     6A    -11.101872
       7A    -11.096372     8A    -11.069989     9A     -1.165664
      10A     -1.064821    11A     -0.970289    12A     -0.902840
      13A     -0.807516    14A     -0.722221    15A     -0.621535
      16A     -0.534411    17A     -0.514796    18A     -0.501553
      19A     -0.452204    20A     -0.446422    21A     -0.434021
      22A     -0.422130    23A     -0.401299    24A     -0.382193
      25A     -0.362747    26A     -0.346049    27A     -0.324223
      28A     -0.239345    29A     -0.211168    30A     -0.195611
      31A     -0.189803

  @DF-RHF Final Energy:  -382.32939445150180

   => Energetics <=

    Nuclear Repulsion Energy =            338.8179231093618000
    One-Electron Energy =               -1203.3659273360817679
    Two-Electron Energy =                 482.2186097752181695
    Total Energy =                       -382.3293944515017984
  Basis Set: (AUG-CC-PVTZ AUX)
    Blend: AUG-CC-PVTZ-RI
    Molecular point group: c1

    Geometry (in Angstrom), charge = -1, multiplicity = 1:

       Center              X                  Y                   Z               Mass
    ------------   -----------------  -----------------  -----------------  -----------------
         O           -2.782255536430    -0.911000871791    -0.553405838479    15.994914619570
         O           -2.388202536430     1.266777128209    -0.034823838479    15.994914619570
         C            2.717815063570     0.107928528209    -0.668164838479    12.000000000000
         C            1.457032463570    -0.458711871791    -0.081381838479    12.000000000000
         C            0.343290463570     0.220457128209     0.237162161521    12.000000000000
         C           -0.895185536430    -0.372072871791     0.842130161521    12.000000000000
         C            3.895811463570     0.063505128209     0.279390161521    12.000000000000
         C           -2.141825536430     0.024006128209     0.011548161521    12.000000000000
         H            2.948965463570    -0.347731871791    -1.611726838479     1.007825032230
         H            2.495513463570     1.204870128209    -0.914665838479     1.007825032230
         H            1.531742863570    -1.533867071791     0.098872861521     1.007825032230
         H            0.297516463570     1.292424128209     0.037556161521     1.007825032230
         H           -0.806775536430    -1.461941871791     0.904361161521     1.007825032230
         H           -1.027054536430     0.023673128209     1.859751161521     1.007825032230
         H            4.116925463570    -0.978998871791     0.528017161521     1.007825032230
         H            3.686309463570     0.594422128209     1.212406161521     1.007825032230
         H            4.793494463570     0.500721128209    -0.169317838479     1.007825032230

  Basis Set: AUG-CC-PVTZ
    Blend: AUG-CC-PVTZ
  Basis Set: (AUG-CC-PVTZ AUX)
    Blend: AUG-CC-PVTZ-JKFIT
	 Reference Energy          =    -382.3293944515017984 [Eh]
	 Singles Energy            =      -0.0000000000000000 [Eh]
	 Same-Spin Energy          =      -0.3911093889593764 [Eh]
	 Opposite-Spin Energy      =      -1.2599641287711454 [Eh]
	 Correlation Energy        =      -1.6510735177305218 [Eh]
	 Total Energy              =    -383.9804679692323361 [Eh]

	 ================> DF-SCS-MP2 Energies <==================
	-----------------------------------------------------------
	 SCS Same-Spin Scale       =       0.3333333333333333 [-]
	 SCS Opposite-Spin Scale   =       1.2000000000000000 [-]
	 SCS Same-Spin Energy      =      -0.1303697963197921 [Eh]
	 SCS Opposite-Spin Energy  =      -1.5119569545253744 [Eh]
	 SCS Correlation Energy    =      -1.6423267508451664 [Eh]
	 SCS Total Energy          =    -383.9717212023469415 [Eh]
	-----------------------------------------------------------

  Dipole Moment: [D]
     X:    10.7264      Y:    -0.7652      Z:     1.6679     Total:    10.8822

*** Psi4 exiting successfully. Buy a developer a beer!
