                               Psi4 1.3.2 release

  ==> Input File <==

--------------------------------------------------------------------------
#psi4
#
memory 32 gb

molecule  {
-1 1
  O       -2.9636094    -0.8892039    -0.5591992
  O       -2.5318610     1.2678500    -0.0507790
  C        2.5515340     0.1562790    -0.6847320
  C        1.3133740    -0.4576390    -0.0973370
  C        0.1882623     0.2969111     0.2638885
  C       -1.0388440    -0.3710000     0.8261750
  C        3.7521530     0.0645780     0.2634350
  C       -2.2854840     0.0250790    -0.0044070
  H        2.8053070    -0.3466590    -1.6276820
  H        2.3518550     1.2059430    -0.9306210
  H        1.3523840    -1.5323490     0.0963350
  H        0.1538580     1.2934970     0.0216010
  H       -0.9504340    -1.4608690     0.8884060
  H       -1.1707130     0.0247460     1.8437960
  H        3.9732670    -0.9779260     0.5120620
  H        3.5426510     0.5954950     1.1964510
  H        4.6498360     0.5017940    -0.1852730
units angstrom
no_reorient  #important for SAPT in psi4, default
symmetry c1  #important for SAPT in psi4, default
}

set PROPERTIES_ORIGIN ["COM"]
properties('MP2/aug-cc-pvtz', properties = ['dipole'])
--------------------------------------------------------------------------

    Molecular point group: c1
  Charge       = -1
  Multiplicity = 1
  Basis Set: AUG-CC-PVTZ
    Blend: AUG-CC-PVTZ
  Basis Set: (AUG-CC-PVTZ AUX)
    Blend: AUG-CC-PVTZ-JKFIT

    Orbital Energies [Eh]
    ---------------------

    Doubly Occupied:

       1A    -20.297026     2A    -20.293828     3A    -11.143337
       4A    -11.123296     5A    -11.121148     6A    -11.105706
       7A    -11.104305     8A    -11.072181     9A     -1.165552
      10A     -1.062079    11A     -0.964756    12A     -0.898118
      13A     -0.804243    14A     -0.719054    15A     -0.635398
      16A     -0.533253    17A     -0.516340    18A     -0.498449
      19A     -0.449865    20A     -0.443651    21A     -0.432458
      22A     -0.414444    23A     -0.405772    24A     -0.378682
      25A     -0.373412    26A     -0.362663    27A     -0.320992
      28A     -0.231260    29A     -0.208644    30A     -0.194010
      31A     -0.184850

  @DF-RHF Final Energy:  -382.32230644877052

   => Energetics <=

    Nuclear Repulsion Energy =            338.0515052940331771
    One-Electron Energy =               -1201.8300807009131859
    Two-Electron Energy =                 481.4562689581094901
    Total Energy =                       -382.3223064487705187
  Basis Set: (AUG-CC-PVTZ AUX)
    Blend: AUG-CC-PVTZ-RI
    Molecular point group: c1

    Geometry (in Angstrom), charge = -1, multiplicity = 1:

       Center              X                  Y                   Z               Mass
    ------------   -----------------  -----------------  -----------------  -----------------
         O           -2.810691961509    -0.906231390868    -0.549266432618    15.994914619570
         O           -2.378943561509     1.250822509132    -0.040846232618    15.994914619570
         C            2.704451438491     0.139251509132    -0.674799232618    12.000000000000
         C            1.466291438491    -0.474666490868    -0.087404232618    12.000000000000
         C            0.341179738491     0.279883609132     0.273821267382    12.000000000000
         C           -0.885926561509    -0.388027490868     0.836107767382    12.000000000000
         C            3.905070438491     0.047550509132     0.273367767382    12.000000000000
         C           -2.132566561509     0.008051509132     0.005525767382    12.000000000000
         H            2.958224438491    -0.363686490868    -1.617749232618     1.007825032230
         H            2.504772438491     1.188915509132    -0.920688232618     1.007825032230
         H            1.505301438491    -1.549376490868     0.106267767382     1.007825032230
         H            0.306775438491     1.276469509132     0.031533767382     1.007825032230
         H           -0.797516561509    -1.477896490868     0.898338767382     1.007825032230
         H           -1.017795561509     0.007718509132     1.853728767382     1.007825032230
         H            4.126184438491    -0.994953490868     0.521994767382     1.007825032230
         H            3.695568438491     0.578467509132     1.206383767382     1.007825032230
         H            4.802753438491     0.484766509132    -0.175340232618     1.007825032230

  Basis Set: AUG-CC-PVTZ
    Blend: AUG-CC-PVTZ
  Basis Set: (AUG-CC-PVTZ AUX)
    Blend: AUG-CC-PVTZ-JKFIT
	 Reference Energy          =    -382.3223064487705187 [Eh]
	 Singles Energy            =      -0.0000000000000000 [Eh]
	 Same-Spin Energy          =      -0.3914557388432356 [Eh]
	 Opposite-Spin Energy      =      -1.2611181698943534 [Eh]
	 Correlation Energy        =      -1.6525739087375890 [Eh]
	 Total Energy              =    -383.9748803575080842 [Eh]

	 ================> DF-SCS-MP2 Energies <==================
	-----------------------------------------------------------
	 SCS Same-Spin Scale       =       0.3333333333333333 [-]
	 SCS Opposite-Spin Scale   =       1.2000000000000000 [-]
	 SCS Same-Spin Energy      =      -0.1304852462810785 [Eh]
	 SCS Opposite-Spin Energy  =      -1.5133418038732240 [Eh]
	 SCS Correlation Energy    =      -1.6438270501543026 [Eh]
	 SCS Total Energy          =    -383.9661334989248189 [Eh]
	-----------------------------------------------------------

  Dipole Moment: [D]
     X:    10.7698      Y:    -0.7235      Z:     1.6385     Total:    10.9177

*** Psi4 exiting successfully. Buy a developer a beer!
