                               Psi4 1.3.2 release

  ==> Input File <==

--------------------------------------------------------------------------
#psi4
#
memory 32 gb

molecule  {
-1 1
  O       -2.9259140    -0.9099280    -0.5693610
  O       -2.5318610     1.2678500    -0.0507790
  C        2.5515340     0.1562790    -0.6847320
  C        1.3550370    -0.4750577    -0.0329826
  C        0.1996320     0.2215300     0.2212070
  C       -1.0388440    -0.3710000     0.8261750
  C        3.7047959     0.0272920     0.3163999
  C       -2.2854840     0.0250790    -0.0044070
  H        2.8053070    -0.3466590    -1.6276820
  H        2.3518550     1.2059430    -0.9306210
  H        1.3523840    -1.5323490     0.0963350
  H        0.1538580     1.2934970     0.0216010
  H       -0.9504340    -1.4608690     0.8884060
  H       -1.1707130     0.0247460     1.8437960
  H        3.9732670    -0.9779260     0.5120620
  H        3.5426510     0.5954950     1.1964510
  H        4.6498360     0.5017940    -0.1852730
units angstrom
no_reorient  #important for SAPT in psi4, default
symmetry c1  #important for SAPT in psi4, default
}

set PROPERTIES_ORIGIN ["COM"]
properties('MP2/aug-cc-pvtz', properties = ['dipole'])
--------------------------------------------------------------------------

    Molecular point group: c1
  Charge       = -1
  Multiplicity = 1
  Basis Set: AUG-CC-PVTZ
    Blend: AUG-CC-PVTZ
  Basis Set: (AUG-CC-PVTZ AUX)
    Blend: AUG-CC-PVTZ-JKFIT

    Orbital Energies [Eh]
    ---------------------

    Doubly Occupied:

       1A    -20.298088     2A    -20.296327     3A    -11.144342
       4A    -11.123283     5A    -11.121815     6A    -11.105097
       7A    -11.096220     8A    -11.069518     9A     -1.165942
      10A     -1.065114    11A     -0.968832    12A     -0.897822
      13A     -0.804437    14A     -0.720405    15A     -0.628762
      16A     -0.533925    17A     -0.522500    18A     -0.493268
      19A     -0.458508    20A     -0.433529    21A     -0.432775
      22A     -0.420240    23A     -0.401206    24A     -0.386280
      25A     -0.369695    26A     -0.350462    27A     -0.323408
      28A     -0.232350    29A     -0.211459    30A     -0.195935
      31A     -0.186843

  @DF-RHF Final Energy:  -382.32129300075263

   => Energetics <=

    Nuclear Repulsion Energy =            338.8560910928559338
    One-Electron Energy =               -1203.4379954501657721
    Two-Electron Energy =                 482.2606113565572628
    Total Energy =                       -382.3212930007526325
  Basis Set: (AUG-CC-PVTZ AUX)
    Blend: AUG-CC-PVTZ-RI
    Molecular point group: c1

    Geometry (in Angstrom), charge = -1, multiplicity = 1:

       Center              X                  Y                   Z               Mass
    ------------   -----------------  -----------------  -----------------  -----------------
         O           -2.778931820609    -0.910216542084    -0.565912531452    15.994914619570
         O           -2.384878820609     1.267561457916    -0.047330531452    15.994914619570
         C            2.698516179391     0.155990457916    -0.681283531452    12.000000000000
         C            1.502019179391    -0.475346242084    -0.029534131452    12.000000000000
         C            0.346614179391     0.221241457916     0.224655468548    12.000000000000
         C           -0.891861820609    -0.371288542084     0.829623468548    12.000000000000
         C            3.851778079391     0.027003457916     0.319848368548    12.000000000000
         C           -2.138501820609     0.024790457916    -0.000958531452    12.000000000000
         H            2.952289179391    -0.346947542084    -1.624233531452     1.007825032230
         H            2.498837179391     1.205654457916    -0.927172531452     1.007825032230
         H            1.499366179391    -1.532637542084     0.099783468548     1.007825032230
         H            0.300840179391     1.293208457916     0.025049468548     1.007825032230
         H           -0.803451820609    -1.461157542084     0.891854468548     1.007825032230
         H           -1.023730820609     0.024457457916     1.847244468548     1.007825032230
         H            4.120249179391    -0.978214542084     0.515510468548     1.007825032230
         H            3.689633179391     0.595206457916     1.199899468548     1.007825032230
         H            4.796818179391     0.501505457916    -0.181824531452     1.007825032230

  Basis Set: AUG-CC-PVTZ
    Blend: AUG-CC-PVTZ
  Basis Set: (AUG-CC-PVTZ AUX)
    Blend: AUG-CC-PVTZ-JKFIT
	 Reference Energy          =    -382.3212930007526325 [Eh]
	 Singles Energy            =      -0.0000000000000000 [Eh]
	 Same-Spin Energy          =      -0.3915282387833167 [Eh]
	 Opposite-Spin Energy      =      -1.2610440602502382 [Eh]
	 Correlation Energy        =      -1.6525722990335550 [Eh]
	 Total Energy              =    -383.9738652997862118 [Eh]

	 ================> DF-SCS-MP2 Energies <==================
	-----------------------------------------------------------
	 SCS Same-Spin Scale       =       0.3333333333333333 [-]
	 SCS Opposite-Spin Scale   =       1.2000000000000000 [-]
	 SCS Same-Spin Energy      =      -0.1305094129277722 [Eh]
	 SCS Opposite-Spin Energy  =      -1.5132528723002858 [Eh]
	 SCS Correlation Energy    =      -1.6437622852280580 [Eh]
	 SCS Total Energy          =    -383.9650552859806680 [Eh]
	-----------------------------------------------------------

  Dipole Moment: [D]
     X:    10.5826      Y:    -0.8006      Z:     1.6531     Total:    10.7408

*** Psi4 exiting successfully. Buy a developer a beer!
