                               Psi4 1.3.2 release

  ==> Input File <==

--------------------------------------------------------------------------
#psi4
#
memory 32 gb

molecule  {
-1 1
  O       -2.9259140    -0.9099280    -0.5693610
  O       -2.5318610     1.2678500    -0.0507790
  C        2.5515340     0.1562790    -0.6847320
  C        1.3133740    -0.4576390    -0.0973370
  C        0.1996320     0.2215300     0.2212070
  C       -1.0460292    -0.3654955     0.8167152
  C        3.7521530     0.0645780     0.2634350
  C       -2.2860328     0.0126314     0.0135341
  H        2.8053070    -0.3466590    -1.6276820
  H        2.3518550     1.2059430    -0.9306210
  H        1.3523840    -1.5323490     0.0963350
  H        0.1538580     1.2934970     0.0216010
  H       -0.9504340    -1.4608690     0.8884060
  H       -1.1707130     0.0247460     1.8437960
  H        3.9732670    -0.9779260     0.5120620
  H        3.5426510     0.5954950     1.1964510
  H        4.6498360     0.5017940    -0.1852730
units angstrom
no_reorient  #important for SAPT in psi4, default
symmetry c1  #important for SAPT in psi4, default
}

set PROPERTIES_ORIGIN ["COM"]
properties('MP2/aug-cc-pvtz', properties = ['dipole'])
--------------------------------------------------------------------------

    Molecular point group: c1
  Charge       = -1
  Multiplicity = 1
  Basis Set: AUG-CC-PVTZ
    Blend: AUG-CC-PVTZ
  Basis Set: (AUG-CC-PVTZ AUX)
    Blend: AUG-CC-PVTZ-JKFIT

    Orbital Energies [Eh]
    ---------------------

    Doubly Occupied:

       1A    -20.298747     2A    -20.292917     3A    -11.143234
       4A    -11.124233     5A    -11.122158     6A    -11.101237
       7A    -11.097030     8A    -11.071585     9A     -1.162544
      10A     -1.059932    11A     -0.969699    12A     -0.901979
      13A     -0.809425    14A     -0.724464    15A     -0.623609
      16A     -0.536216    17A     -0.514653    18A     -0.501200
      19A     -0.453777    20A     -0.443450    21A     -0.432357
      22A     -0.415593    23A     -0.401280    24A     -0.383726
      25A     -0.372266    26A     -0.346179    27A     -0.320951
      28A     -0.238450    29A     -0.208243    30A     -0.193239
      31A     -0.192857

  @DF-RHF Final Energy:  -382.33108279986567

   => Energetics <=

    Nuclear Repulsion Energy =            338.9124786892514294
    One-Electron Energy =               -1203.5726609729611027
    Two-Electron Energy =                 482.3290994838440042
    Total Energy =                       -382.3310827998656691
  Basis Set: (AUG-CC-PVTZ AUX)
    Blend: AUG-CC-PVTZ-RI
    Molecular point group: c1

    Geometry (in Angstrom), charge = -1, multiplicity = 1:

       Center              X                  Y                   Z               Mass
    ------------   -----------------  -----------------  -----------------  -----------------
         O           -2.778715309509    -0.915285867307    -0.554360673503    15.994914619570
         O           -2.384662309509     1.262492132693    -0.035778673503    15.994914619570
         C            2.698732690491     0.150921132693    -0.669731673503    12.000000000000
         C            1.460572690491    -0.462996867307    -0.082336673503    12.000000000000
         C            0.346830690491     0.216172132693     0.236207326497    12.000000000000
         C           -0.898830509509    -0.370853367307     0.831715526497    12.000000000000
         C            3.899351690491     0.059220132693     0.278435326497    12.000000000000
         C           -2.138834109509     0.007273532693     0.028534426497    12.000000000000
         H            2.952505690491    -0.352016867307    -1.612681673503     1.007825032230
         H            2.499053690491     1.200585132693    -0.915620673503     1.007825032230
         H            1.499582690491    -1.537706867307     0.111335326497     1.007825032230
         H            0.301056690491     1.288139132693     0.036601326497     1.007825032230
         H           -0.803235309509    -1.466226867307     0.903406326497     1.007825032230
         H           -1.023514309509     0.019388132693     1.858796326497     1.007825032230
         H            4.120465690491    -0.983283867307     0.527062326497     1.007825032230
         H            3.689849690491     0.590137132693     1.211451326497     1.007825032230
         H            4.797034690491     0.496436132693    -0.170272673503     1.007825032230

  Basis Set: AUG-CC-PVTZ
    Blend: AUG-CC-PVTZ
  Basis Set: (AUG-CC-PVTZ AUX)
    Blend: AUG-CC-PVTZ-JKFIT
	 Reference Energy          =    -382.3310827998656691 [Eh]
	 Singles Energy            =      -0.0000000000000000 [Eh]
	 Same-Spin Energy          =      -0.3911416004653896 [Eh]
	 Opposite-Spin Energy      =      -1.2601314986796295 [Eh]
	 Correlation Energy        =      -1.6512730991450191 [Eh]
	 Total Energy              =    -383.9823558990107131 [Eh]

	 ================> DF-SCS-MP2 Energies <==================
	-----------------------------------------------------------
	 SCS Same-Spin Scale       =       0.3333333333333333 [-]
	 SCS Opposite-Spin Scale   =       1.2000000000000000 [-]
	 SCS Same-Spin Energy      =      -0.1303805334884632 [Eh]
	 SCS Opposite-Spin Energy  =      -1.5121577984155554 [Eh]
	 SCS Correlation Energy    =      -1.6425383319040185 [Eh]
	 SCS Total Energy          =    -383.9736211317696757 [Eh]
	-----------------------------------------------------------

  Dipole Moment: [D]
     X:    10.8159      Y:    -0.8160      Z:     1.6790     Total:    10.9758

*** Psi4 exiting successfully. Buy a developer a beer!
