                               Psi4 1.3.2 release

  ==> Input File <==

--------------------------------------------------------------------------
#psi4
#
memory 32 gb

molecule  {
-1 1
  O       -2.9328907    -0.9025007    -0.5736364
  O       -2.5405588     1.2658326    -0.0573122
  C        2.5515340     0.1562790    -0.6847320
  C        1.3133740    -0.4576390    -0.0973370
  C        0.1996320     0.2215300     0.2212070
  C       -1.0388440    -0.3710000     0.8261750
  C        3.7521530     0.0645780     0.2634350
  C       -2.2854840     0.0250790    -0.0044070
  H        2.8053070    -0.3466590    -1.6276820
  H        2.3518550     1.2059430    -0.9306210
  H        1.3523840    -1.5323490     0.0963350
  H        0.1538580     1.2934970     0.0216010
  H       -0.9504340    -1.4608690     0.8884060
  H       -1.1707130     0.0247460     1.8437960
  H        3.9732670    -0.9779260     0.5120620
  H        3.5426510     0.5954950     1.1964510
  H        4.6498360     0.5017940    -0.1852730
units angstrom
no_reorient  #important for SAPT in psi4, default
symmetry c1  #important for SAPT in psi4, default
}

set PROPERTIES_ORIGIN ["COM"]
properties('MP2/aug-cc-pvtz', properties = ['dipole'])
--------------------------------------------------------------------------

    Molecular point group: c1
  Charge       = -1
  Multiplicity = 1
  Basis Set: AUG-CC-PVTZ
    Blend: AUG-CC-PVTZ
  Basis Set: (AUG-CC-PVTZ AUX)
    Blend: AUG-CC-PVTZ-JKFIT

    Orbital Energies [Eh]
    ---------------------

    Doubly Occupied:

       1A    -20.296600     2A    -20.294752     3A    -11.143347
       4A    -11.123996     5A    -11.121763     6A    -11.100709
       7A    -11.096251     8A    -11.070731     9A     -1.165257
      10A     -1.062668    11A     -0.969310    12A     -0.901320
      13A     -0.807564    14A     -0.723002    15A     -0.622839
      16A     -0.533316    17A     -0.514623    18A     -0.500794
      19A     -0.453324    20A     -0.443415    21A     -0.432870
      22A     -0.415135    23A     -0.401045    24A     -0.383252
      25A     -0.373332    26A     -0.348709    27A     -0.323889
      28A     -0.238575    29A     -0.209249    30A     -0.194139
      31A     -0.189902

  @DF-RHF Final Energy:  -382.33277313698107

   => Energetics <=

    Nuclear Repulsion Energy =            338.7418360243550524
    One-Electron Energy =               -1203.2378609724794387
    Two-Electron Energy =                 482.1632518111433114
    Total Energy =                       -382.3327731369810749
  Basis Set: (AUG-CC-PVTZ AUX)
    Blend: AUG-CC-PVTZ-RI
    Molecular point group: c1

    Geometry (in Angstrom), charge = -1, multiplicity = 1:

       Center              X                  Y                   Z               Mass
    ------------   -----------------  -----------------  -----------------  -----------------
         O           -2.784295371143    -0.909360846682    -0.556206765031    15.994914619570
         O           -2.391963471143     1.258972453318    -0.039882565031    15.994914619570
         C            2.700129328857     0.149418853318    -0.667302365031    12.000000000000
         C            1.461969328857    -0.464499146682    -0.079907365031    12.000000000000
         C            0.348227328857     0.214669853318     0.238636634969    12.000000000000
         C           -0.890248671143    -0.377860146682     0.843604634969    12.000000000000
         C            3.900748328857     0.057717853318     0.280864634969    12.000000000000
         C           -2.136888671143     0.018218853318     0.013022634969    12.000000000000
         H            2.953902328857    -0.353519146682    -1.610252365031     1.007825032230
         H            2.500450328857     1.199082853318    -0.913191365031     1.007825032230
         H            1.500979328857    -1.539209146682     0.113764634969     1.007825032230
         H            0.302453328857     1.286636853318     0.039030634969     1.007825032230
         H           -0.801838671143    -1.467729146682     0.905835634969     1.007825032230
         H           -1.022117671143     0.017885853318     1.861225634969     1.007825032230
         H            4.121862328857    -0.984786146682     0.529491634969     1.007825032230
         H            3.691246328857     0.588634853318     1.213880634969     1.007825032230
         H            4.798431328857     0.494933853318    -0.167843365031     1.007825032230

  Basis Set: AUG-CC-PVTZ
    Blend: AUG-CC-PVTZ
  Basis Set: (AUG-CC-PVTZ AUX)
    Blend: AUG-CC-PVTZ-JKFIT
	 Reference Energy          =    -382.3327731369810749 [Eh]
	 Singles Energy            =      -0.0000000000000000 [Eh]
	 Same-Spin Energy          =      -0.3909061084965664 [Eh]
	 Opposite-Spin Energy      =      -1.2595360859143301 [Eh]
	 Correlation Energy        =      -1.6504421944108965 [Eh]
	 Total Energy              =    -383.9832153313919889 [Eh]

	 ================> DF-SCS-MP2 Energies <==================
	-----------------------------------------------------------
	 SCS Same-Spin Scale       =       0.3333333333333333 [-]
	 SCS Opposite-Spin Scale   =       1.2000000000000000 [-]
	 SCS Same-Spin Energy      =      -0.1303020361655221 [Eh]
	 SCS Opposite-Spin Energy  =      -1.5114433030971961 [Eh]
	 SCS Correlation Energy    =      -1.6417453392627182 [Eh]
	 SCS Total Energy          =    -383.9745184762438157 [Eh]
	-----------------------------------------------------------

  Dipole Moment: [D]
     X:    10.7731      Y:    -0.7301      Z:     1.6907     Total:    10.9293

*** Psi4 exiting successfully. Buy a developer a beer!
