                               Psi4 1.3.2 release

  ==> Input File <==

--------------------------------------------------------------------------
#psi4
#
memory 32 gb

molecule  {
-1 1
  O       -2.9259140    -0.9099280    -0.5693610
  O       -2.5318610     1.2678500    -0.0507790
  C        2.5515340     0.1562790    -0.6847320
  C        1.3133740    -0.4576390    -0.0973370
  C        0.1996320     0.2215300     0.2212070
  C       -1.0399718    -0.3276152     0.8181780
  C        3.7521530     0.0645780     0.2634350
  C       -2.2854840     0.0250790    -0.0044070
  H        2.8053070    -0.3466590    -1.6276820
  H        2.3518550     1.2059430    -0.9306210
  H        1.3701176    -1.5327979     0.0893328
  H        0.1538580     1.2934970     0.0216010
  H       -0.9504340    -1.4608690     0.8884060
  H       -1.1707130     0.0247460     1.8437960
  H        3.9732670    -0.9779260     0.5120620
  H        3.5426510     0.5954950     1.1964510
  H        4.6498360     0.5017940    -0.1852730
units angstrom
no_reorient  #important for SAPT in psi4, default
symmetry c1  #important for SAPT in psi4, default
}

set PROPERTIES_ORIGIN ["COM"]
properties('MP2/aug-cc-pvtz', properties = ['dipole'])
--------------------------------------------------------------------------

    Molecular point group: c1
  Charge       = -1
  Multiplicity = 1
  Basis Set: AUG-CC-PVTZ
    Blend: AUG-CC-PVTZ
  Basis Set: (AUG-CC-PVTZ AUX)
    Blend: AUG-CC-PVTZ-JKFIT

    Orbital Energies [Eh]
    ---------------------

    Doubly Occupied:

       1A    -20.298391     2A    -20.294896     3A    -11.143133
       4A    -11.124035     5A    -11.121610     6A    -11.100118
       7A    -11.097091     8A    -11.071138     9A     -1.166097
      10A     -1.064888    11A     -0.969816    12A     -0.902740
      13A     -0.808385    14A     -0.722823    15A     -0.623425
      16A     -0.535408    17A     -0.514226    18A     -0.501664
      19A     -0.455861    20A     -0.442556    21A     -0.434504
      22A     -0.415740    23A     -0.401187    24A     -0.384266
      25A     -0.371001    26A     -0.339746    27A     -0.325806
      28A     -0.239058    29A     -0.209924    30A     -0.195308
      31A     -0.191088

  @DF-RHF Final Energy:  -382.33032876693852

   => Energetics <=

    Nuclear Repulsion Energy =            339.1878738670825442
    One-Electron Energy =               -1204.1045451191184839
    Two-Electron Energy =                 482.5863424850974184
    Total Energy =                       -382.3303287669385213
  Basis Set: (AUG-CC-PVTZ AUX)
    Blend: AUG-CC-PVTZ-RI
    Molecular point group: c1

    Geometry (in Angstrom), charge = -1, multiplicity = 1:

       Center              X                  Y                   Z               Mass
    ------------   -----------------  -----------------  -----------------  -----------------
         O           -2.779574557230    -0.920623573204    -0.552549280159    15.994914619570
         O           -2.385521557230     1.257154426796    -0.033967280159    15.994914619570
         C            2.697873442770     0.145583426796    -0.667920280159    12.000000000000
         C            1.459713442770    -0.468334573204    -0.080525280159    12.000000000000
         C            0.345971442770     0.210834426796     0.238018719841    12.000000000000
         C           -0.893632357230    -0.338310773204     0.834989719841    12.000000000000
         C            3.898492442770     0.053882426796     0.280246719841    12.000000000000
         C           -2.139144557230     0.014383426796     0.012404719841    12.000000000000
         H            2.951646442770    -0.357354573204    -1.610870280159     1.007825032230
         H            2.498194442770     1.195247426796    -0.913809280159     1.007825032230
         H            1.516457042770    -1.543493473204     0.106144519841     1.007825032230
         H            0.300197442770     1.282801426796     0.038412719841     1.007825032230
         H           -0.804094557230    -1.471564573204     0.905217719841     1.007825032230
         H           -1.024373557230     0.014050426796     1.860607719841     1.007825032230
         H            4.119606442770    -0.988621573204     0.528873719841     1.007825032230
         H            3.688990442770     0.584799426796     1.213262719841     1.007825032230
         H            4.796175442770     0.491098426796    -0.168461280159     1.007825032230

  Basis Set: AUG-CC-PVTZ
    Blend: AUG-CC-PVTZ
  Basis Set: (AUG-CC-PVTZ AUX)
    Blend: AUG-CC-PVTZ-JKFIT
	 Reference Energy          =    -382.3303287669385213 [Eh]
	 Singles Energy            =      -0.0000000000000000 [Eh]
	 Same-Spin Energy          =      -0.3911694047310493 [Eh]
	 Opposite-Spin Energy      =      -1.2600282862687129 [Eh]
	 Correlation Energy        =      -1.6511976909997621 [Eh]
	 Total Energy              =    -383.9815264579382870 [Eh]

	 ================> DF-SCS-MP2 Energies <==================
	-----------------------------------------------------------
	 SCS Same-Spin Scale       =       0.3333333333333333 [-]
	 SCS Opposite-Spin Scale   =       1.2000000000000000 [-]
	 SCS Same-Spin Energy      =      -0.1303898015770164 [Eh]
	 SCS Opposite-Spin Energy  =      -1.5120339435224555 [Eh]
	 SCS Correlation Energy    =      -1.6424237450994719 [Eh]
	 SCS Total Energy          =    -383.9727525120379710 [Eh]
	-----------------------------------------------------------

  Dipole Moment: [D]
     X:    10.7340      Y:    -0.6711      Z:     1.6619     Total:    10.8826

*** Psi4 exiting successfully. Buy a developer a beer!
