                               Psi4 1.4a3.dev225

  ==> Input File <==

--------------------------------------------------------------------------
#psi4
#
memory 32 gb

molecule  {
-1 1
  O       -3.0493610    -0.8021490    -0.5876160
  O       -2.4328600     1.2902580     0.0530700
  C        2.5553900     0.3550440    -0.5884220
  C        1.3500892    -0.3602473    -0.2130125
  C        0.2108510     0.1869800     0.3208840
  C       -1.0406500    -0.5396790     0.7060670
  C        3.7725750    -0.0944570     0.2252300
  C       -2.2894080     0.0326700    -0.0161130
  H        2.7644980     0.1992670    -1.6554110
  H        2.3954460     1.4315290    -0.4528260
  H        1.3245080    -1.4678690    -0.3463610
  H        0.1904760     1.2677450     0.4620520
  H       -0.9472880    -1.6102600     0.4951310
  H       -1.2137680    -0.4258540     1.7866990
  H        3.9502020    -1.1668590     0.0980420
  H        3.6128950     0.0963670     1.2904210
  H        4.6769210     0.4370950    -0.0868020
units angstrom
no_reorient  #important for SAPT in psi4, default
symmetry c1  #important for SAPT in psi4, default
}

set PROPERTIES_ORIGIN ["COM"]
properties('MP2/aug-cc-pvtz', properties = ['dipole'])
--------------------------------------------------------------------------

    Molecular point group: c1
  Charge       = -1
  Multiplicity = 1
  Basis Set: AUG-CC-PVTZ
    Blend: AUG-CC-PVTZ
  Basis Set: (AUG-CC-PVTZ AUX)
    Blend: AUG-CC-PVTZ-JKFIT

    Orbital Energies [Eh]
    ---------------------

    Doubly Occupied:

       1A    -20.298548     2A    -20.296609     3A    -11.145336
       4A    -11.123682     5A    -11.119041     6A    -11.103447
       7A    -11.097850     8A    -11.071054     9A     -1.166560
      10A     -1.066018    11A     -0.973606    12A     -0.897794
      13A     -0.809417    14A     -0.722186    15A     -0.620145
      16A     -0.534067    17A     -0.515092    18A     -0.503619
      19A     -0.453541    20A     -0.440028    21A     -0.433598
      22A     -0.416852    23A     -0.401721    24A     -0.387309
      25A     -0.373388    26A     -0.344892    27A     -0.326370
      28A     -0.234654    29A     -0.212310    30A     -0.196693
      31A     -0.185281

  @DF-RHF Final Energy:  -382.32856784629126

   => Energetics <=

    Nuclear Repulsion Energy =            338.6575173129915015
    One-Electron Energy =               -1203.0307583154110489
    Two-Electron Energy =                 482.0446731561282263
    Total Energy =                       -382.3285678462912642
  Basis Set: (AUG-CC-PVTZ AUX)
    Blend: AUG-CC-PVTZ-RI
    Molecular point group: c1

    Geometry (in Angstrom), charge = -1, multiplicity = 1:

       Center              X                  Y                   Z               Mass
    ------------   -----------------  -----------------  -----------------  -----------------
         O           -2.906990007131    -0.815614892424    -0.572305390259    15.994914619570
         O           -2.290489007131     1.276792107576     0.068380609741    15.994914619570
         C            2.697760992869     0.341578107576    -0.573111390259    12.000000000000
         C            1.492460192869    -0.373713192424    -0.197701890259    12.000000000000
         C            0.353221992869     0.173514107576     0.336194609741    12.000000000000
         C           -0.898279007131    -0.553144892424     0.721377609741    12.000000000000
         C            3.914945992869    -0.107922892424     0.240540609741    12.000000000000
         C           -2.147037007131     0.019204107576    -0.000802390259    12.000000000000
         H            2.906868992869     0.185801107576    -1.640100390259     1.007825032230
         H            2.537816992869     1.418063107576    -0.437515390259     1.007825032230
         H            1.466878992869    -1.481334892424    -0.331050390259     1.007825032230
         H            0.332846992869     1.254279107576     0.477362609741     1.007825032230
         H           -0.804917007131    -1.623725892424     0.510441609741     1.007825032230
         H           -1.071397007131    -0.439319892424     1.802009609741     1.007825032230
         H            4.092572992869    -1.180324892424     0.113352609741     1.007825032230
         H            3.755265992869     0.082901107576     1.305731609741     1.007825032230
         H            4.819291992869     0.423629107576    -0.071491390259     1.007825032230

  Basis Set: AUG-CC-PVTZ
    Blend: AUG-CC-PVTZ
  Basis Set: (AUG-CC-PVTZ AUX)
    Blend: AUG-CC-PVTZ-JKFIT
	 Reference Energy          =    -382.3285678462912642 [Eh]
	 Singles Energy            =      -0.0000000000000000 [Eh]
	 Same-Spin Energy          =      -0.3917845188962654 [Eh]
	 Opposite-Spin Energy      =      -1.2607413745764733 [Eh]
	 Correlation Energy        =      -1.6525258934727387 [Eh]
	 Total Energy              =    -383.9810937397639918 [Eh]

	 ================> DF-SCS-MP2 Energies <==================
	-----------------------------------------------------------
	 SCS Same-Spin Scale       =       0.3333333333333333 [-]
	 SCS Opposite-Spin Scale   =       1.2000000000000000 [-]
	 SCS Same-Spin Energy      =      -0.1305948396320885 [Eh]
	 SCS Opposite-Spin Energy  =      -1.5128896494917679 [Eh]
	 SCS Correlation Energy    =      -1.6434844891238563 [Eh]
	 SCS Total Energy          =    -383.9720523354151283 [Eh]
	-----------------------------------------------------------

  Dipole Moment: [D]
     X:    10.7201      Y:    -0.9874      Z:     1.4558     Total:    10.8634

*** Psi4 exiting successfully. Buy a developer a beer!
