                               Psi4 1.3.2 release

  ==> Input File <==

--------------------------------------------------------------------------
#psi4
#
memory 32 gb

molecule  {
-1 1
  O       -2.9259140    -0.9099280    -0.5693610
  O       -2.5318610     1.2678500    -0.0507790
  C        2.5515340     0.1562790    -0.6847320
  C        1.3133740    -0.4576390    -0.0973370
  C        0.1996320     0.2215300     0.2212070
  C       -1.0388440    -0.3710000     0.8261750
  C        3.7521530     0.0645780     0.2634350
  C       -2.2854840     0.0250790    -0.0044070
  H        2.8053070    -0.3466590    -1.6276820
  H        2.3518550     1.2059430    -0.9306210
  H        1.3559540    -1.6307010     0.1140589
  H        0.1538580     1.2934970     0.0216010
  H       -0.9504340    -1.4608690     0.8884060
  H       -1.1707130     0.0247460     1.8437960
  H        3.9732670    -0.9779260     0.5120620
  H        3.5426510     0.5954950     1.1964510
  H        4.6498360     0.5017940    -0.1852730
units angstrom
no_reorient  #important for SAPT in psi4, default
symmetry c1  #important for SAPT in psi4, default
}

set PROPERTIES_ORIGIN ["COM"]
properties('MP2/aug-cc-pvtz', properties = ['dipole'])
--------------------------------------------------------------------------

    Molecular point group: c1
  Charge       = -1
  Multiplicity = 1
  Basis Set: AUG-CC-PVTZ
    Blend: AUG-CC-PVTZ
  Basis Set: (AUG-CC-PVTZ AUX)
    Blend: AUG-CC-PVTZ-JKFIT

    Orbital Energies [Eh]
    ---------------------

    Doubly Occupied:

       1A    -20.297804     2A    -20.296027     3A    -11.144079
       4A    -11.124005     5A    -11.123045     6A    -11.108185
       7A    -11.101394     8A    -11.069744     9A     -1.165664
      10A     -1.064826    11A     -0.968046    12A     -0.901006
      13A     -0.805790    14A     -0.723051    15A     -0.610671
      16A     -0.533313    17A     -0.514332    18A     -0.500999
      19A     -0.450342    20A     -0.438531    21A     -0.433090
      22A     -0.415495    23A     -0.401792    24A     -0.383477
      25A     -0.369545    26A     -0.346174    27A     -0.323890
      28A     -0.239037    29A     -0.211174    30A     -0.195639
      31A     -0.189629

  @DF-RHF Final Energy:  -382.32612887870056

   => Energetics <=

    Nuclear Repulsion Energy =            338.4027565370287789
    One-Electron Energy =               -1202.5581775830532933
    Two-Electron Energy =                 481.8292921673238993
    Total Energy =                       -382.3261288787005583
  Basis Set: (AUG-CC-PVTZ AUX)
    Blend: AUG-CC-PVTZ-RI
    Molecular point group: c1

    Geometry (in Angstrom), charge = -1, multiplicity = 1:

       Center              X                  Y                   Z               Mass
    ------------   -----------------  -----------------  -----------------  -----------------
         O           -2.779568004701    -0.915146079831    -0.553618476253    15.994914619570
         O           -2.385515004701     1.262631920169    -0.035036476253    15.994914619570
         C            2.697879995299     0.151060920169    -0.668989476253    12.000000000000
         C            1.459719995299    -0.462857079831    -0.081594476253    12.000000000000
         C            0.345977995299     0.216311920169     0.236949523747    12.000000000000
         C           -0.892498004701    -0.376218079831     0.841917523747    12.000000000000
         C            3.898498995299     0.059359920169     0.279177523747    12.000000000000
         C           -2.139138004701     0.019860920169     0.011335523747    12.000000000000
         H            2.951652995299    -0.351877079831    -1.611939476253     1.007825032230
         H            2.498200995299     1.200724920169    -0.914878476253     1.007825032230
         H            1.502299995299    -1.635919079831     0.129801423747     1.007825032230
         H            0.300203995299     1.288278920169     0.037343523747     1.007825032230
         H           -0.804088004701    -1.466087079831     0.904148523747     1.007825032230
         H           -1.024367004701     0.019527920169     1.859538523747     1.007825032230
         H            4.119612995299    -0.983144079831     0.527804523747     1.007825032230
         H            3.688996995299     0.590276920169     1.212193523747     1.007825032230
         H            4.796181995299     0.496575920169    -0.169530476253     1.007825032230

  Basis Set: AUG-CC-PVTZ
    Blend: AUG-CC-PVTZ
  Basis Set: (AUG-CC-PVTZ AUX)
    Blend: AUG-CC-PVTZ-JKFIT
	 Reference Energy          =    -382.3261288787005583 [Eh]
	 Singles Energy            =      -0.0000000000000000 [Eh]
	 Same-Spin Energy          =      -0.3911209330786287 [Eh]
	 Opposite-Spin Energy      =      -1.2603995057978286 [Eh]
	 Correlation Energy        =      -1.6515204388764573 [Eh]
	 Total Energy              =    -383.9776493175770042 [Eh]

	 ================> DF-SCS-MP2 Energies <==================
	-----------------------------------------------------------
	 SCS Same-Spin Scale       =       0.3333333333333333 [-]
	 SCS Opposite-Spin Scale   =       1.2000000000000000 [-]
	 SCS Same-Spin Energy      =      -0.1303736443595429 [Eh]
	 SCS Opposite-Spin Energy  =      -1.5124794069573941 [Eh]
	 SCS Correlation Energy    =      -1.6428530513169370 [Eh]
	 SCS Total Energy          =    -383.9689819300174918 [Eh]
	-----------------------------------------------------------

  Dipole Moment: [D]
     X:    10.7058      Y:    -0.6397      Z:     1.6483     Total:    10.8509

*** Psi4 exiting successfully. Buy a developer a beer!
