                               Psi4 1.3.2 release

  ==> Input File <==

--------------------------------------------------------------------------
#psi4
#
memory 32 gb

molecule  {
-1 1
  O       -2.9259140    -0.9099280    -0.5693610
  O       -2.5318610     1.2678500    -0.0507790
  C        2.5515340     0.1562790    -0.6847320
  C        1.3133740    -0.4576390    -0.0973370
  C        0.1996320     0.2215300     0.2212070
  C       -1.0394975    -0.3493035     0.8222115
  C        3.7521530     0.0645780     0.2634350
  C       -2.2854840     0.0250790    -0.0044070
  H        2.8053070    -0.3466590    -1.6276820
  H        2.3518550     1.2059430    -0.9306210
  H        1.3612526    -1.5326144     0.0928411
  H        0.1538580     1.2934970     0.0216010
  H       -0.9504340    -1.4608690     0.8884060
  H       -1.1707130     0.0247460     1.8437960
  H        3.9732670    -0.9779260     0.5120620
  H        3.5426510     0.5954950     1.1964510
  H        4.6498360     0.5017940    -0.1852730
units angstrom
no_reorient  #important for SAPT in psi4, default
symmetry c1  #important for SAPT in psi4, default
}

set PROPERTIES_ORIGIN ["COM"]
properties('MP2/aug-cc-pvtz', properties = ['dipole'])
--------------------------------------------------------------------------

    Molecular point group: c1
  Charge       = -1
  Multiplicity = 1
  Basis Set: AUG-CC-PVTZ
    Blend: AUG-CC-PVTZ
  Basis Set: (AUG-CC-PVTZ AUX)
    Blend: AUG-CC-PVTZ-JKFIT

    Orbital Energies [Eh]
    ---------------------

    Doubly Occupied:

       1A    -20.298004     2A    -20.295310     3A    -11.143469
       4A    -11.123873     5A    -11.121516     6A    -11.100107
       7A    -11.096390     8A    -11.070258     9A     -1.165754
      10A     -1.064729    11A     -0.969328    12A     -0.901705
      13A     -0.807618    14A     -0.722656    15A     -0.622829
      16A     -0.534220    17A     -0.514199    18A     -0.501110
      19A     -0.454237    20A     -0.442804    21A     -0.433739
      22A     -0.415307    23A     -0.401252    24A     -0.383632
      25A     -0.372083    26A     -0.344410    27A     -0.324913
      28A     -0.238618    29A     -0.210462    30A     -0.195358
      31A     -0.190092

  @DF-RHF Final Energy:  -382.33219748359750

   => Energetics <=

    Nuclear Repulsion Energy =            339.0134706916144296
    One-Electron Energy =               -1203.7713727103273413
    Two-Electron Energy =                 482.4257045351154147
    Total Energy =                       -382.3321974835974970
  Basis Set: (AUG-CC-PVTZ AUX)
    Blend: AUG-CC-PVTZ-RI
    Molecular point group: c1

    Geometry (in Angstrom), charge = -1, multiplicity = 1:

       Center              X                  Y                   Z               Mass
    ------------   -----------------  -----------------  -----------------  -----------------
         O           -2.779545875454    -0.918323254094    -0.553008661334    15.994914619570
         O           -2.385492875454     1.259454745906    -0.034426661334    15.994914619570
         C            2.697902124546     0.147883745906    -0.668379661334    12.000000000000
         C            1.459742124546    -0.466034254094    -0.080984661334    12.000000000000
         C            0.346000124546     0.213134745906     0.237559338666    12.000000000000
         C           -0.893129375454    -0.357698754094     0.838563838666    12.000000000000
         C            3.898521124546     0.056182745906     0.279787338666    12.000000000000
         C           -2.139115875454     0.016683745906     0.011945338666    12.000000000000
         H            2.951675124546    -0.355054254094    -1.611329661334     1.007825032230
         H            2.498223124546     1.197547745906    -0.914268661334     1.007825032230
         H            1.507620724546    -1.541009654094     0.109193438666     1.007825032230
         H            0.300226124546     1.285101745906     0.037953338666     1.007825032230
         H           -0.804065875454    -1.469264254094     0.904758338666     1.007825032230
         H           -1.024344875454     0.016350745906     1.860148338666     1.007825032230
         H            4.119635124546    -0.986321254094     0.528414338666     1.007825032230
         H            3.689019124546     0.587099745906     1.212803338666     1.007825032230
         H            4.796204124546     0.493398745906    -0.168920661334     1.007825032230

  Basis Set: AUG-CC-PVTZ
    Blend: AUG-CC-PVTZ
  Basis Set: (AUG-CC-PVTZ AUX)
    Blend: AUG-CC-PVTZ-JKFIT
	 Reference Energy          =    -382.3321974835974970 [Eh]
	 Singles Energy            =      -0.0000000000000000 [Eh]
	 Same-Spin Energy          =      -0.3910401292009955 [Eh]
	 Opposite-Spin Energy      =      -1.2597664192369313 [Eh]
	 Correlation Energy        =      -1.6508065484379268 [Eh]
	 Total Energy              =    -383.9830040320354101 [Eh]

	 ================> DF-SCS-MP2 Energies <==================
	-----------------------------------------------------------
	 SCS Same-Spin Scale       =       0.3333333333333333 [-]
	 SCS Opposite-Spin Scale   =       1.2000000000000000 [-]
	 SCS Same-Spin Energy      =      -0.1303467097336651 [Eh]
	 SCS Opposite-Spin Energy  =      -1.5117197030843175 [Eh]
	 SCS Correlation Energy    =      -1.6420664128179827 [Eh]
	 SCS Total Energy          =    -383.9742638964154935 [Eh]
	-----------------------------------------------------------

  Dipole Moment: [D]
     X:    10.7242      Y:    -0.6943      Z:     1.6636     Total:    10.8746

*** Psi4 exiting successfully. Buy a developer a beer!
