                               Psi4 1.3.2 release

  ==> Input File <==

--------------------------------------------------------------------------
#psi4
#
memory 32 gb

molecule  {
-1 1
  O       -2.9259140    -0.9099280    -0.5693610
  O       -2.5318610     1.2678500    -0.0507790
  C        2.5515340     0.1562790    -0.6847320
  C        1.4782800    -0.3758735    -0.1755700
  C        0.1996320     0.2215300     0.2212070
  C       -1.0388440    -0.3710000     0.8261750
  C        3.7521530     0.0645780     0.2634350
  C       -2.2854840     0.0250790    -0.0044070
  H        2.8053070    -0.3466590    -1.6276820
  H        2.3518550     1.2059430    -0.9306210
  H        1.3523840    -1.5323490     0.0963350
  H        0.1538580     1.2934970     0.0216010
  H       -0.9504340    -1.4608690     0.8884060
  H       -1.1707130     0.0247460     1.8437960
  H        3.9732670    -0.9779260     0.5120620
  H        3.5426510     0.5954950     1.1964510
  H        4.6498360     0.5017940    -0.1852730
units angstrom
no_reorient  #important for SAPT in psi4, default
symmetry c1  #important for SAPT in psi4, default
}

set PROPERTIES_ORIGIN ["COM"]
properties('MP2/aug-cc-pvtz', properties = ['dipole'])
--------------------------------------------------------------------------

    Molecular point group: c1
  Charge       = -1
  Multiplicity = 1
  Basis Set: AUG-CC-PVTZ
    Blend: AUG-CC-PVTZ
  Basis Set: (AUG-CC-PVTZ AUX)
    Blend: AUG-CC-PVTZ-JKFIT

    Orbital Energies [Eh]
    ---------------------

    Doubly Occupied:

       1A    -20.300216     2A    -20.297949     3A    -11.147506
       4A    -11.125389     5A    -11.119482     6A    -11.112587
       7A    -11.108788     8A    -11.076799     9A     -1.167883
      10A     -1.066951    11A     -1.001586    12A     -0.890391
      13A     -0.821171    14A     -0.719868    15A     -0.616418
      16A     -0.541271    17A     -0.524206    18A     -0.508723
      19A     -0.459923    20A     -0.438179    21A     -0.433672
      22A     -0.424656    23A     -0.411574    24A     -0.398399
      25A     -0.364821    26A     -0.333494    27A     -0.322585
      28A     -0.225665    29A     -0.213116    30A     -0.197238
      31A     -0.173288

  @DF-RHF Final Energy:  -382.26820822036058

   => Energetics <=

    Nuclear Repulsion Energy =            339.0204216029097211
    One-Electron Energy =               -1203.4896732636493653
    Two-Electron Energy =                 482.2010434403791237
    Total Energy =                       -382.2682082203605773
  Basis Set: (AUG-CC-PVTZ AUX)
    Blend: AUG-CC-PVTZ-RI
    Molecular point group: c1

    Geometry (in Angstrom), charge = -1, multiplicity = 1:

       Center              X                  Y                   Z               Mass
    ------------   -----------------  -----------------  -----------------  -----------------
         O           -2.797038990175    -0.924701229093    -0.545156982919    15.994914619570
         O           -2.402985990175     1.253076770907    -0.026574982919    15.994914619570
         C            2.680409009825     0.141505770907    -0.660527982919    12.000000000000
         C            1.607155009825    -0.390646729093    -0.151365982919    12.000000000000
         C            0.328507009825     0.206756770907     0.245411017081    12.000000000000
         C           -0.909968990175    -0.385773229093     0.850379017081    12.000000000000
         C            3.881028009825     0.049804770907     0.287639017081    12.000000000000
         C           -2.156608990175     0.010305770907     0.019797017081    12.000000000000
         H            2.934182009825    -0.361432229093    -1.603477982919     1.007825032230
         H            2.480730009825     1.191169770907    -0.906416982919     1.007825032230
         H            1.481259009825    -1.547122229093     0.120539017081     1.007825032230
         H            0.282733009825     1.278723770907     0.045805017081     1.007825032230
         H           -0.821558990175    -1.475642229093     0.912610017081     1.007825032230
         H           -1.041837990175     0.009972770907     1.868000017081     1.007825032230
         H            4.102142009825    -0.992699229093     0.536266017081     1.007825032230
         H            3.671526009825     0.580721770907     1.220655017081     1.007825032230
         H            4.778711009825     0.487020770907    -0.161068982919     1.007825032230

  Basis Set: AUG-CC-PVTZ
    Blend: AUG-CC-PVTZ
  Basis Set: (AUG-CC-PVTZ AUX)
    Blend: AUG-CC-PVTZ-JKFIT
	 Reference Energy          =    -382.2682082203605773 [Eh]
	 Singles Energy            =      -0.0000000000000000 [Eh]
	 Same-Spin Energy          =      -0.3961996559515376 [Eh]
	 Opposite-Spin Energy      =      -1.2677892744801320 [Eh]
	 Correlation Energy        =      -1.6639889304316695 [Eh]
	 Total Energy              =    -383.9321971507922626 [Eh]

	 ================> DF-SCS-MP2 Energies <==================
	-----------------------------------------------------------
	 SCS Same-Spin Scale       =       0.3333333333333333 [-]
	 SCS Opposite-Spin Scale   =       1.2000000000000000 [-]
	 SCS Same-Spin Energy      =      -0.1320665519838458 [Eh]
	 SCS Opposite-Spin Energy  =      -1.5213471293761585 [Eh]
	 SCS Correlation Energy    =      -1.6534136813600042 [Eh]
	 SCS Total Energy          =    -383.9216219017205844 [Eh]
	-----------------------------------------------------------

  Dipole Moment: [D]
     X:    10.6847      Y:    -0.5997      Z:     1.5765     Total:    10.8170

*** Psi4 exiting successfully. Buy a developer a beer!
