                               Psi4 1.3.2 release

  ==> Input File <==

--------------------------------------------------------------------------
#psi4
#
memory 32 gb

molecule  {
-1 1
  O       -2.9259140    -0.9099280    -0.5693610
  O       -2.5318610     1.2678500    -0.0507790
  C        2.5515340     0.1562790    -0.6847320
  C        1.3110136    -0.5066308    -0.1587776
  C        0.1996320     0.2215300     0.2212070
  C       -1.0388440    -0.3710000     0.8261750
  C        3.7521530     0.0645780     0.2634350
  C       -2.2854840     0.0250790    -0.0044070
  H        2.7593622    -0.3804400    -1.6202758
  H        2.3518550     1.2059430    -0.9306210
  H        1.3523840    -1.5323490     0.0963350
  H        0.1538580     1.2934970     0.0216010
  H       -0.9504340    -1.4608690     0.8884060
  H       -1.1707130     0.0247460     1.8437960
  H        3.9732670    -0.9779260     0.5120620
  H        3.5426510     0.5954950     1.1964510
  H        4.6498360     0.5017940    -0.1852730
units angstrom
no_reorient  #important for SAPT in psi4, default
symmetry c1  #important for SAPT in psi4, default
}

set PROPERTIES_ORIGIN ["COM"]
properties('MP2/aug-cc-pvtz', properties = ['dipole'])
--------------------------------------------------------------------------

    Molecular point group: c1
  Charge       = -1
  Multiplicity = 1
  Basis Set: AUG-CC-PVTZ
    Blend: AUG-CC-PVTZ
  Basis Set: (AUG-CC-PVTZ AUX)
    Blend: AUG-CC-PVTZ-JKFIT

    Orbital Energies [Eh]
    ---------------------

    Doubly Occupied:

       1A    -20.297641     2A    -20.295914     3A    -11.143985
       4A    -11.124493     5A    -11.120861     6A    -11.106164
       7A    -11.096842     8A    -11.069476     9A     -1.165498
      10A     -1.064667    11A     -0.965853    12A     -0.897090
      13A     -0.807378    14A     -0.718860    15A     -0.628552
      16A     -0.531453    17A     -0.514663    18A     -0.496837
      19A     -0.454379    20A     -0.444959    21A     -0.432321
      22A     -0.416597    23A     -0.401356    24A     -0.382225
      25A     -0.373130    26A     -0.351687    27A     -0.322867
      28A     -0.233698    29A     -0.211046    30A     -0.195520
      31A     -0.184341

  @DF-RHF Final Energy:  -382.32640559328644

   => Energetics <=

    Nuclear Repulsion Energy =            338.3687937385064401
    One-Electron Energy =               -1202.4896880533190142
    Two-Electron Energy =                 481.7944887215261929
    Total Energy =                       -382.3264055932864380
  Basis Set: (AUG-CC-PVTZ AUX)
    Blend: AUG-CC-PVTZ-RI
    Molecular point group: c1

    Geometry (in Angstrom), charge = -1, multiplicity = 1:

       Center              X                  Y                   Z               Mass
    ------------   -----------------  -----------------  -----------------  -----------------
         O           -2.778876098821    -0.910521772801    -0.547005315515    15.994914619570
         O           -2.384823098821     1.267256227199    -0.028423315515    15.994914619570
         C            2.698571901179     0.155685227199    -0.662376315515    12.000000000000
         C            1.458051501179    -0.507224572801    -0.136421915515    12.000000000000
         C            0.346669901179     0.220936227199     0.243562684485    12.000000000000
         C           -0.891806098821    -0.371593772801     0.848530684485    12.000000000000
         C            3.899190901179     0.063984227199     0.285790684485    12.000000000000
         C           -2.138446098821     0.024485227199     0.017948684485    12.000000000000
         H            2.906400101179    -0.381033772801    -1.597920115515     1.007825032230
         H            2.498892901179     1.205349227199    -0.908265315515     1.007825032230
         H            1.499421901179    -1.532942772801     0.118690684485     1.007825032230
         H            0.300895901179     1.292903227199     0.043956684485     1.007825032230
         H           -0.803396098821    -1.461462772801     0.910761684485     1.007825032230
         H           -1.023675098821     0.024152227199     1.866151684485     1.007825032230
         H            4.120304901179    -0.978519772801     0.534417684485     1.007825032230
         H            3.689688901179     0.594901227199     1.218806684485     1.007825032230
         H            4.796873901179     0.501200227199    -0.162917315515     1.007825032230

  Basis Set: AUG-CC-PVTZ
    Blend: AUG-CC-PVTZ
  Basis Set: (AUG-CC-PVTZ AUX)
    Blend: AUG-CC-PVTZ-JKFIT
	 Reference Energy          =    -382.3264055932864380 [Eh]
	 Singles Energy            =      -0.0000000000000000 [Eh]
	 Same-Spin Energy          =      -0.3914538908329442 [Eh]
	 Opposite-Spin Energy      =      -1.2608231405597001 [Eh]
	 Correlation Energy        =      -1.6522770313926443 [Eh]
	 Total Energy              =    -383.9786826246790952 [Eh]

	 ================> DF-SCS-MP2 Energies <==================
	-----------------------------------------------------------
	 SCS Same-Spin Scale       =       0.3333333333333333 [-]
	 SCS Opposite-Spin Scale   =       1.2000000000000000 [-]
	 SCS Same-Spin Energy      =      -0.1304846302776481 [Eh]
	 SCS Opposite-Spin Energy  =      -1.5129877686716402 [Eh]
	 SCS Correlation Energy    =      -1.6434723989492883 [Eh]
	 SCS Total Energy          =    -383.9698779922357517 [Eh]
	-----------------------------------------------------------

  Dipole Moment: [D]
     X:    10.7145      Y:    -0.7380      Z:     1.7289     Total:    10.8781

*** Psi4 exiting successfully. Buy a developer a beer!
