                               Psi4 1.3.2 release

  ==> Input File <==

--------------------------------------------------------------------------
#psi4
#
memory 32 gb

molecule  {
-1 1
  O       -2.9821501    -0.8784225    -0.5538640
  O       -2.5318610     1.2678500    -0.0507790
  C        2.5515340     0.1562790    -0.6847320
  C        1.3133740    -0.4576390    -0.0973370
  C        0.1814463     0.3344832     0.2851100
  C       -1.0388440    -0.3710000     0.8261750
  C        3.7521530     0.0645780     0.2634350
  C       -2.2854840     0.0250790    -0.0044070
  H        2.8053070    -0.3466590    -1.6276820
  H        2.3518550     1.2059430    -0.9306210
  H        1.3523840    -1.5323490     0.0963350
  H        0.1538580     1.2934970     0.0216010
  H       -0.9504340    -1.4608690     0.8884060
  H       -1.1707130     0.0247460     1.8437960
  H        3.9732670    -0.9779260     0.5120620
  H        3.5426510     0.5954950     1.1964510
  H        4.6498360     0.5017940    -0.1852730
units angstrom
no_reorient  #important for SAPT in psi4, default
symmetry c1  #important for SAPT in psi4, default
}

set PROPERTIES_ORIGIN ["COM"]
properties('MP2/aug-cc-pvtz', properties = ['dipole'])
--------------------------------------------------------------------------

    Molecular point group: c1
  Charge       = -1
  Multiplicity = 1
  Basis Set: AUG-CC-PVTZ
    Blend: AUG-CC-PVTZ
  Basis Set: (AUG-CC-PVTZ AUX)
    Blend: AUG-CC-PVTZ-JKFIT

    Orbital Energies [Eh]
    ---------------------

    Doubly Occupied:

       1A    -20.296666     2A    -20.292792     3A    -11.143019
       4A    -11.123185     5A    -11.121170     6A    -11.109656
       7A    -11.108085     8A    -11.073859     9A     -1.165591
      10A     -1.060740    11A     -0.963118    12A     -0.897066
      13A     -0.803063    14A     -0.718200    15A     -0.642060
      16A     -0.533546    17A     -0.517189    18A     -0.497209
      19A     -0.449026    20A     -0.443767    21A     -0.432289
      22A     -0.415162    23A     -0.408280    24A     -0.377436
      25A     -0.372350    26A     -0.367304    27A     -0.318739
      28A     -0.228606    29A     -0.207393    30A     -0.193225
      31A     -0.182157

  @DF-RHF Final Energy:  -382.31027052518414

   => Energetics <=

    Nuclear Repulsion Energy =            337.6582850346031819
    One-Electron Energy =               -1201.0132169459714078
    Two-Electron Energy =                 481.0446613861840888
    Total Energy =                       -382.3102705251841371
  Basis Set: (AUG-CC-PVTZ AUX)
    Blend: AUG-CC-PVTZ-RI
    Molecular point group: c1

    Geometry (in Angstrom), charge = -1, multiplicity = 1:

       Center              X                  Y                   Z               Mass
    ------------   -----------------  -----------------  -----------------  -----------------
         O           -2.825886225442    -0.900963093373    -0.546938426170    15.994914619570
         O           -2.375597125442     1.245309406627    -0.043853426170    15.994914619570
         C            2.707797874558     0.133738406627    -0.677806426170    12.000000000000
         C            1.469637874558    -0.480179593373    -0.090411426170    12.000000000000
         C            0.337710174558     0.311942606627     0.292035573830    12.000000000000
         C           -0.882580125442    -0.393540593373     0.833100573830    12.000000000000
         C            3.908416874558     0.042037406627     0.270360573830    12.000000000000
         C           -2.129220125442     0.002538406627     0.002518573830    12.000000000000
         H            2.961570874558    -0.369199593373    -1.620756426170     1.007825032230
         H            2.508118874558     1.183402406627    -0.923695426170     1.007825032230
         H            1.508647874558    -1.554889593373     0.103260573830     1.007825032230
         H            0.310121874558     1.270956406627     0.028526573830     1.007825032230
         H           -0.794170125442    -1.483409593373     0.895331573830     1.007825032230
         H           -1.014449125442     0.002205406627     1.850721573830     1.007825032230
         H            4.129530874558    -1.000466593373     0.518987573830     1.007825032230
         H            3.698914874558     0.572954406627     1.203376573830     1.007825032230
         H            4.806099874558     0.479253406627    -0.178347426170     1.007825032230

  Basis Set: AUG-CC-PVTZ
    Blend: AUG-CC-PVTZ
  Basis Set: (AUG-CC-PVTZ AUX)
    Blend: AUG-CC-PVTZ-JKFIT
	 Reference Energy          =    -382.3102705251841371 [Eh]
	 Singles Energy            =      -0.0000000000000000 [Eh]
	 Same-Spin Energy          =      -0.3918912130205389 [Eh]
	 Opposite-Spin Energy      =      -1.2623992507997686 [Eh]
	 Correlation Energy        =      -1.6542904638203075 [Eh]
	 Total Energy              =    -383.9645609890044398 [Eh]

	 ================> DF-SCS-MP2 Energies <==================
	-----------------------------------------------------------
	 SCS Same-Spin Scale       =       0.3333333333333333 [-]
	 SCS Opposite-Spin Scale   =       1.2000000000000000 [-]
	 SCS Same-Spin Energy      =      -0.1306304043401796 [Eh]
	 SCS Opposite-Spin Energy  =      -1.5148791009597222 [Eh]
	 SCS Correlation Energy    =      -1.6455095052999018 [Eh]
	 SCS Total Energy          =    -383.9557800304840498 [Eh]
	-----------------------------------------------------------

  Dipole Moment: [D]
     X:    10.8033      Y:    -0.7383      Z:     1.6239     Total:    10.9496

*** Psi4 exiting successfully. Buy a developer a beer!
