                               Psi4 1.4a3.dev225

  ==> Input File <==

--------------------------------------------------------------------------
#psi4
#
memory 32 gb

molecule  {
-1 1
  O       -3.0493610    -0.8021490    -0.5876160
  O       -2.4328600     1.2902580     0.0530700
  C        2.5553900     0.3550440    -0.5884220
  C        1.3085550    -0.3848960    -0.2000760
  C        0.2108510     0.1869800     0.3208840
  C       -1.0406500    -0.5396790     0.7060670
  C        3.7725750    -0.0944570     0.2252300
  C       -2.2696242     0.0338910    -0.0134464
  H        2.7644980     0.1992670    -1.6554110
  H        2.3954460     1.4315290    -0.4528260
  H        1.3245080    -1.4678690    -0.3463610
  H        0.1904760     1.2677450     0.4620520
  H       -0.9472880    -1.6102600     0.4951310
  H       -1.2137680    -0.4258540     1.7866990
  H        3.9502020    -1.1668590     0.0980420
  H        3.6128950     0.0963670     1.2904210
  H        4.6769210     0.4370950    -0.0868020
units angstrom
no_reorient  #important for SAPT in psi4, default
symmetry c1  #important for SAPT in psi4, default
}

set PROPERTIES_ORIGIN ["COM"]
properties('MP2/aug-cc-pvtz', properties = ['dipole'])
--------------------------------------------------------------------------

    Molecular point group: c1
  Charge       = -1
  Multiplicity = 1
  Basis Set: AUG-CC-PVTZ
    Blend: AUG-CC-PVTZ
  Basis Set: (AUG-CC-PVTZ AUX)
    Blend: AUG-CC-PVTZ-JKFIT

    Orbital Energies [Eh]
    ---------------------

    Doubly Occupied:

       1A    -20.296891     2A    -20.295427     3A    -11.144570
       4A    -11.124053     5A    -11.121504     6A    -11.099822
       7A    -11.096067     8A    -11.070987     9A     -1.161733
      10A     -1.059353    11A     -0.969645    12A     -0.902377
      13A     -0.809164    14A     -0.723671    15A     -0.623674
      16A     -0.534733    17A     -0.514231    18A     -0.502327
      19A     -0.454420    20A     -0.443763    21A     -0.433132
      22A     -0.415124    23A     -0.399972    24A     -0.383199
      25A     -0.374996    26A     -0.345059    27A     -0.321043
      28A     -0.239096    29A     -0.209559    30A     -0.194093
      31A     -0.190114

  @DF-RHF Final Energy:  -382.33171157309295

   => Energetics <=

    Nuclear Repulsion Energy =            338.7291838772022174
    One-Electron Energy =               -1203.2142000484634536
    Two-Electron Energy =                 482.1533045981682903
    Total Energy =                       -382.3317115730929459
  Basis Set: (AUG-CC-PVTZ AUX)
    Blend: AUG-CC-PVTZ-RI
    Molecular point group: c1

    Geometry (in Angstrom), charge = -1, multiplicity = 1:

       Center              X                  Y                   Z               Mass
    ------------   -----------------  -----------------  -----------------  -----------------
         O           -2.904681461116    -0.813128320983    -0.573961473564    15.994914619570
         O           -2.288180461116     1.279278679017     0.066724526436    15.994914619570
         C            2.700069538884     0.344064679017    -0.574767473564    12.000000000000
         C            1.453234538884    -0.395875320983    -0.186421473564    12.000000000000
         C            0.355530538884     0.176000679017     0.334538526436    12.000000000000
         C           -0.895970461116    -0.550658320983     0.719721526436    12.000000000000
         C            3.917254538884    -0.105436320983     0.238884526436    12.000000000000
         C           -2.124944661116     0.022911679017     0.000208126436    12.000000000000
         H            2.909177538884     0.188287679017    -1.641756473564     1.007825032230
         H            2.540125538884     1.420549679017    -0.439171473564     1.007825032230
         H            1.469187538884    -1.478848320983    -0.332706473564     1.007825032230
         H            0.335155538884     1.256765679017     0.475706526436     1.007825032230
         H           -0.802608461116    -1.621239320983     0.508785526436     1.007825032230
         H           -1.069088461116    -0.436833320983     1.800353526436     1.007825032230
         H            4.094881538884    -1.177838320983     0.111696526436     1.007825032230
         H            3.757574538884     0.085387679017     1.304075526436     1.007825032230
         H            4.821600538884     0.426115679017    -0.073147473564     1.007825032230

  Basis Set: AUG-CC-PVTZ
    Blend: AUG-CC-PVTZ
  Basis Set: (AUG-CC-PVTZ AUX)
    Blend: AUG-CC-PVTZ-JKFIT
	 Reference Energy          =    -382.3317115730929459 [Eh]
	 Singles Energy            =      -0.0000000000000000 [Eh]
	 Same-Spin Energy          =      -0.3911790237881046 [Eh]
	 Opposite-Spin Energy      =      -1.2600877406936344 [Eh]
	 Correlation Energy        =      -1.6512667644817389 [Eh]
	 Total Energy              =    -383.9829783375747070 [Eh]

	 ================> DF-SCS-MP2 Energies <==================
	-----------------------------------------------------------
	 SCS Same-Spin Scale       =       0.3333333333333333 [-]
	 SCS Opposite-Spin Scale   =       1.2000000000000000 [-]
	 SCS Same-Spin Energy      =      -0.1303930079293682 [Eh]
	 SCS Opposite-Spin Energy  =      -1.5121052888323612 [Eh]
	 SCS Correlation Energy    =      -1.6424982967617294 [Eh]
	 SCS Total Energy          =    -383.9742098698546897 [Eh]
	-----------------------------------------------------------

  Dipole Moment: [D]
     X:    10.8738      Y:    -0.9869      Z:     1.5325     Total:    11.0255

*** Psi4 exiting successfully. Buy a developer a beer!
