                               Psi4 1.4a3.dev225

  ==> Input File <==

--------------------------------------------------------------------------
#psi4
#
memory 32 gb

molecule  {
-1 1
  O       -3.0493610    -0.8021490    -0.5876160
  O       -2.4328600     1.2902580     0.0530700
  C        2.5553900     0.3550440    -0.5884220
  C        1.3085550    -0.3848960    -0.2000760
  C        0.2108510     0.1869800     0.3208840
  C       -1.0220252    -0.5384519     0.6988830
  C        3.7725750    -0.0944570     0.2252300
  C       -2.2894080     0.0326700    -0.0161130
  H        2.7644980     0.1992670    -1.6554110
  H        2.3954460     1.4315290    -0.4528260
  H        1.3245080    -1.4678690    -0.3463610
  H        0.1904760     1.2677450     0.4620520
  H       -0.9472880    -1.6102600     0.4951310
  H       -1.2137680    -0.4258540     1.7866990
  H        3.9502020    -1.1668590     0.0980420
  H        3.6128950     0.0963670     1.2904210
  H        4.6769210     0.4370950    -0.0868020
units angstrom
no_reorient  #important for SAPT in psi4, default
symmetry c1  #important for SAPT in psi4, default
}

set PROPERTIES_ORIGIN ["COM"]
properties('MP2/aug-cc-pvtz', properties = ['dipole'])
--------------------------------------------------------------------------

    Molecular point group: c1
  Charge       = -1
  Multiplicity = 1
  Basis Set: AUG-CC-PVTZ
    Blend: AUG-CC-PVTZ
  Basis Set: (AUG-CC-PVTZ AUX)
    Blend: AUG-CC-PVTZ-JKFIT

    Orbital Energies [Eh]
    ---------------------

    Doubly Occupied:

       1A    -20.298541     2A    -20.296497     3A    -11.145523
       4A    -11.123279     5A    -11.120540     6A    -11.097927
       7A    -11.094378     8A    -11.069143     9A     -1.166022
      10A     -1.065746    11A     -0.969087    12A     -0.902304
      13A     -0.805900    14A     -0.720967    15A     -0.622681
      16A     -0.532223    17A     -0.513154    18A     -0.501328
      19A     -0.454589    20A     -0.442376    21A     -0.431853
      22A     -0.414580    23A     -0.401317    24A     -0.382409
      25A     -0.375503    26A     -0.346834    27A     -0.325013
      28A     -0.239445    29A     -0.212153    30A     -0.196589
      31A     -0.185999

  @DF-RHF Final Energy:  -382.33315110463377

   => Energetics <=

    Nuclear Repulsion Energy =            338.7673167543155728
    One-Electron Energy =               -1203.2931371533636593
    Two-Electron Energy =                 482.1926692944143724
    Total Energy =                       -382.3331511046337710
  Basis Set: (AUG-CC-PVTZ AUX)
    Blend: AUG-CC-PVTZ-RI
    Molecular point group: c1

    Geometry (in Angstrom), charge = -1, multiplicity = 1:

       Center              X                  Y                   Z               Mass
    ------------   -----------------  -----------------  -----------------  -----------------
         O           -2.904558447064    -0.813128968426    -0.572915949649    15.994914619570
         O           -2.288057447064     1.279278031574     0.067770050351    15.994914619570
         C            2.700192552936     0.344064031574    -0.573721949649    12.000000000000
         C            1.453357552936    -0.395875968426    -0.185375949649    12.000000000000
         C            0.355653552936     0.176000031574     0.335584050351    12.000000000000
         C           -0.877222647064    -0.549431868426     0.713583050351    12.000000000000
         C            3.917377552936    -0.105436968426     0.239930050351    12.000000000000
         C           -2.144605447064     0.021690031574    -0.001412949649    12.000000000000
         H            2.909300552936     0.188287031574    -1.640710949649     1.007825032230
         H            2.540248552936     1.420549031574    -0.438125949649     1.007825032230
         H            1.469310552936    -1.478848968426    -0.331660949649     1.007825032230
         H            0.335278552936     1.256765031574     0.476752050351     1.007825032230
         H           -0.802485447064    -1.621239968426     0.509831050351     1.007825032230
         H           -1.068965447064    -0.436833968426     1.801399050351     1.007825032230
         H            4.095004552936    -1.177838968426     0.112742050351     1.007825032230
         H            3.757697552936     0.085387031574     1.305121050351     1.007825032230
         H            4.821723552936     0.426115031574    -0.072101949649     1.007825032230

  Basis Set: AUG-CC-PVTZ
    Blend: AUG-CC-PVTZ
  Basis Set: (AUG-CC-PVTZ AUX)
    Blend: AUG-CC-PVTZ-JKFIT
	 Reference Energy          =    -382.3331511046337710 [Eh]
	 Singles Energy            =      -0.0000000000000000 [Eh]
	 Same-Spin Energy          =      -0.3911044484684299 [Eh]
	 Opposite-Spin Energy      =      -1.2595450041297813 [Eh]
	 Correlation Energy        =      -1.6506494525982112 [Eh]
	 Total Energy              =    -383.9838005572319730 [Eh]

	 ================> DF-SCS-MP2 Energies <==================
	-----------------------------------------------------------
	 SCS Same-Spin Scale       =       0.3333333333333333 [-]
	 SCS Opposite-Spin Scale   =       1.2000000000000000 [-]
	 SCS Same-Spin Energy      =      -0.1303681494894766 [Eh]
	 SCS Opposite-Spin Energy  =      -1.5114540049557375 [Eh]
	 SCS Correlation Energy    =      -1.6418221544452141 [Eh]
	 SCS Total Energy          =    -383.9749732590789790 [Eh]
	-----------------------------------------------------------

  Dipole Moment: [D]
     X:    10.6917      Y:    -1.0112      Z:     1.4493     Total:    10.8368

*** Psi4 exiting successfully. Buy a developer a beer!
