                               Psi4 1.4a3.dev225

  ==> Input File <==

--------------------------------------------------------------------------
#psi4
#
memory 32 gb

molecule  {
-1 1
  O       -3.0493610    -0.8021490    -0.5876160
  O       -2.4328600     1.2902580     0.0530700
  C        2.5553900     0.3550440    -0.5884220
  C        1.3085550    -0.3848960    -0.2000760
  C        0.2108510     0.1869800     0.3208840
  C       -1.0406500    -0.5396790     0.7060670
  C        3.7725750    -0.0944570     0.2252300
  C       -2.2894080     0.0326700    -0.0161130
  H        2.7644980     0.1992670    -1.6554110
  H        2.3954460     1.4315290    -0.4528260
  H        1.3245080    -1.4678690    -0.3463610
  H        0.1895415     1.3173152     0.4685268
  H       -0.9472880    -1.6102600     0.4951310
  H       -1.2137680    -0.4258540     1.7866990
  H        3.9502020    -1.1668590     0.0980420
  H        3.6128950     0.0963670     1.2904210
  H        4.6769210     0.4370950    -0.0868020
units angstrom
no_reorient  #important for SAPT in psi4, default
symmetry c1  #important for SAPT in psi4, default
}

set PROPERTIES_ORIGIN ["COM"]
properties('MP2/aug-cc-pvtz', properties = ['dipole'])
--------------------------------------------------------------------------

    Molecular point group: c1
  Charge       = -1
  Multiplicity = 1
  Basis Set: AUG-CC-PVTZ
    Blend: AUG-CC-PVTZ
  Basis Set: (AUG-CC-PVTZ AUX)
    Blend: AUG-CC-PVTZ-JKFIT

    Orbital Energies [Eh]
    ---------------------

    Doubly Occupied:

       1A    -20.298037     2A    -20.296085     3A    -11.144590
       4A    -11.123356     5A    -11.120656     6A    -11.104365
       7A    -11.095319     8A    -11.069986     9A     -1.166043
      10A     -1.065517    11A     -0.968111    12A     -0.899648
      13A     -0.806665    14A     -0.721428    15A     -0.616826
      16A     -0.532392    17A     -0.511921    18A     -0.499708
      19A     -0.453309    20A     -0.442271    21A     -0.433384
      22A     -0.414570    23A     -0.399666    24A     -0.382900
      25A     -0.375702    26A     -0.341200    27A     -0.324372
      28A     -0.239084    29A     -0.211882    30A     -0.196279
      31A     -0.188154

  @DF-RHF Final Energy:  -382.33127022192809

   => Energetics <=

    Nuclear Repulsion Energy =            338.4600430639766273
    One-Electron Energy =               -1202.6957828740878540
    Two-Electron Energy =                 481.9044695881831331
    Total Energy =                       -382.3312702219280936
  Basis Set: (AUG-CC-PVTZ AUX)
    Blend: AUG-CC-PVTZ-RI
    Molecular point group: c1

    Geometry (in Angstrom), charge = -1, multiplicity = 1:

       Center              X                  Y                   Z               Mass
    ------------   -----------------  -----------------  -----------------  -----------------
         O           -2.902573316097    -0.813440597730    -0.573736162427    15.994914619570
         O           -2.286072316097     1.278966402270     0.066949837573    15.994914619570
         C            2.702177683903     0.343752402270    -0.574542162427    12.000000000000
         C            1.455342683903    -0.396187597730    -0.186196162427    12.000000000000
         C            0.357638683903     0.175688402270     0.334763837573    12.000000000000
         C           -0.893862316097    -0.550970597730     0.719946837573    12.000000000000
         C            3.919362683903    -0.105748597730     0.239109837573    12.000000000000
         C           -2.142620316097     0.021378402270    -0.002233162427    12.000000000000
         H            2.911285683903     0.187975402270    -1.641531162427     1.007825032230
         H            2.542233683903     1.420237402270    -0.438946162427     1.007825032230
         H            1.471295683903    -1.479160597730    -0.332481162427     1.007825032230
         H            0.336329183903     1.306023602270     0.482406637573     1.007825032230
         H           -0.800500316097    -1.621551597730     0.509010837573     1.007825032230
         H           -1.066980316097    -0.437145597730     1.800578837573     1.007825032230
         H            4.096989683903    -1.178150597730     0.111921837573     1.007825032230
         H            3.759682683903     0.085075402270     1.304300837573     1.007825032230
         H            4.823708683903     0.425803402270    -0.072922162427     1.007825032230

  Basis Set: AUG-CC-PVTZ
    Blend: AUG-CC-PVTZ
  Basis Set: (AUG-CC-PVTZ AUX)
    Blend: AUG-CC-PVTZ-JKFIT
	 Reference Energy          =    -382.3312702219280936 [Eh]
	 Singles Energy            =      -0.0000000000000000 [Eh]
	 Same-Spin Energy          =      -0.3910551791257218 [Eh]
	 Opposite-Spin Energy      =      -1.2598435955111653 [Eh]
	 Correlation Energy        =      -1.6508987746368871 [Eh]
	 Total Energy              =    -383.9821689965650080 [Eh]

	 ================> DF-SCS-MP2 Energies <==================
	-----------------------------------------------------------
	 SCS Same-Spin Scale       =       0.3333333333333333 [-]
	 SCS Opposite-Spin Scale   =       1.2000000000000000 [-]
	 SCS Same-Spin Energy      =      -0.1303517263752406 [Eh]
	 SCS Opposite-Spin Energy  =      -1.5118123146133984 [Eh]
	 SCS Correlation Energy    =      -1.6421640409886389 [Eh]
	 SCS Total Energy          =    -383.9734342629167259 [Eh]
	-----------------------------------------------------------

  Dipole Moment: [D]
     X:    10.7070      Y:    -1.0381      Z:     1.4667     Total:    10.8568

*** Psi4 exiting successfully. Buy a developer a beer!
