                               Psi4 1.3.2 release

  ==> Input File <==

--------------------------------------------------------------------------
#psi4
#
memory 32 gb

molecule  {
-1 1
  O       -2.8874383    -0.9295129    -0.5788345
  O       -2.5318610     1.2678500    -0.0507790
  C        2.5515340     0.1562790    -0.6847320
  C        1.3133740    -0.4576390    -0.0973370
  C        0.2079739     0.1459095     0.1782506
  C       -1.0388440    -0.3710000     0.8261750
  C        3.7521530     0.0645780     0.2634350
  C       -2.2854840     0.0250790    -0.0044070
  H        2.8053070    -0.3466590    -1.6276820
  H        2.3518550     1.2059430    -0.9306210
  H        1.3523840    -1.5323490     0.0963350
  H        0.1538580     1.2934970     0.0216010
  H       -0.9504340    -1.4608690     0.8884060
  H       -1.1707130     0.0247460     1.8437960
  H        3.9732670    -0.9779260     0.5120620
  H        3.5426510     0.5954950     1.1964510
  H        4.6498360     0.5017940    -0.1852730
units angstrom
no_reorient  #important for SAPT in psi4, default
symmetry c1  #important for SAPT in psi4, default
}

set PROPERTIES_ORIGIN ["COM"]
properties('MP2/aug-cc-pvtz', properties = ['dipole'])
--------------------------------------------------------------------------

    Molecular point group: c1
  Charge       = -1
  Multiplicity = 1
  Basis Set: AUG-CC-PVTZ
    Blend: AUG-CC-PVTZ
  Basis Set: (AUG-CC-PVTZ AUX)
    Blend: AUG-CC-PVTZ-JKFIT

    Orbital Energies [Eh]
    ---------------------

    Doubly Occupied:

       1A    -20.298193     2A    -20.297661     3A    -11.144418
       4A    -11.124323     5A    -11.122073     6A    -11.096006
       7A    -11.088127     8A    -11.067863     9A     -1.165421
      10A     -1.067069    11A     -0.974053    12A     -0.903920
      13A     -0.809683    14A     -0.727118    15A     -0.610868
      16A     -0.533827    17A     -0.512576    18A     -0.501371
      19A     -0.457314    20A     -0.441728    21A     -0.433463
      22A     -0.415809    23A     -0.400118    24A     -0.386449
      25A     -0.373080    26A     -0.335183    27A     -0.319171
      28A     -0.247069    29A     -0.213142    30A     -0.196779
      31A     -0.191453

  @DF-RHF Final Energy:  -382.32654678006730

   => Energetics <=

    Nuclear Repulsion Energy =            339.6088505481933453
    One-Electron Energy =               -1204.9601376905677625
    Two-Electron Energy =                 483.0247403623071136
    Total Energy =                       -382.3265467800673036
  Basis Set: (AUG-CC-PVTZ AUX)
    Blend: AUG-CC-PVTZ-RI
    Molecular point group: c1

    Geometry (in Angstrom), charge = -1, multiplicity = 1:

       Center              X                  Y                   Z               Mass
    ------------   -----------------  -----------------  -----------------  -----------------
         O           -2.747389127612    -0.924810754546    -0.557034434489    15.994914619570
         O           -2.391811827612     1.272552145454    -0.028978934489    15.994914619570
         C            2.691583172388     0.160981145454    -0.662931934489    12.000000000000
         C            1.453423172388    -0.452936854546    -0.075536934489    12.000000000000
         C            0.348023072388     0.150611645454     0.200050665511    12.000000000000
         C           -0.898794827612    -0.366297854546     0.847975065511    12.000000000000
         C            3.892202172388     0.069280145454     0.285235065511    12.000000000000
         C           -2.145434827612     0.029781145454     0.017393065511    12.000000000000
         H            2.945356172388    -0.341956854546    -1.605881934489     1.007825032230
         H            2.491904172388     1.210645145454    -0.908820934489     1.007825032230
         H            1.492433172388    -1.527646854546     0.118135065511     1.007825032230
         H            0.293907172388     1.298199145454     0.043401065511     1.007825032230
         H           -0.810384827612    -1.456166854546     0.910206065511     1.007825032230
         H           -1.030663827612     0.029448145454     1.865596065511     1.007825032230
         H            4.113316172388    -0.973223854546     0.533862065511     1.007825032230
         H            3.682700172388     0.600197145454     1.218251065511     1.007825032230
         H            4.789885172388     0.506496145454    -0.163472934489     1.007825032230

  Basis Set: AUG-CC-PVTZ
    Blend: AUG-CC-PVTZ
  Basis Set: (AUG-CC-PVTZ AUX)
    Blend: AUG-CC-PVTZ-JKFIT
	 Reference Energy          =    -382.3265467800673036 [Eh]
	 Singles Energy            =      -0.0000000000000000 [Eh]
	 Same-Spin Energy          =      -0.3908856246535719 [Eh]
	 Opposite-Spin Energy      =      -1.2592388822068892 [Eh]
	 Correlation Energy        =      -1.6501245068604611 [Eh]
	 Total Energy              =    -383.9766712869277399 [Eh]

	 ================> DF-SCS-MP2 Energies <==================
	-----------------------------------------------------------
	 SCS Same-Spin Scale       =       0.3333333333333333 [-]
	 SCS Opposite-Spin Scale   =       1.2000000000000000 [-]
	 SCS Same-Spin Energy      =      -0.1302952082178573 [Eh]
	 SCS Opposite-Spin Energy  =      -1.5110866586482670 [Eh]
	 SCS Correlation Energy    =      -1.6413818668661242 [Eh]
	 SCS Total Energy          =    -383.9679286469334443 [Eh]
	-----------------------------------------------------------

  Dipole Moment: [D]
     X:    10.6631      Y:    -0.7356      Z:     1.6835     Total:    10.8202

*** Psi4 exiting successfully. Buy a developer a beer!
