                               Psi4 1.3.2 release

  ==> Input File <==

--------------------------------------------------------------------------
#psi4
#
memory 32 gb

molecule  {
-1 1
  O       -2.9259140    -0.9099280    -0.5693610
  O       -2.5318610     1.2678500    -0.0507790
  C        2.5515340     0.1562790    -0.6847320
  C        1.3133740    -0.4576390    -0.0973370
  C        0.1996320     0.2215300     0.2212070
  C       -1.0388440    -0.3710000     0.8261750
  C        3.7521530     0.0645780     0.2634350
  C       -2.3866324    -0.1225943    -0.0936348
  H        2.8053070    -0.3466590    -1.6276820
  H        2.3518550     1.2059430    -0.9306210
  H        1.3523840    -1.5323490     0.0963350
  H        0.1538580     1.2934970     0.0216010
  H       -0.9504340    -1.4608690     0.8884060
  H       -1.1707130     0.0247460     1.8437960
  H        3.9732670    -0.9779260     0.5120620
  H        3.5426510     0.5954950     1.1964510
  H        4.6498360     0.5017940    -0.1852730
units angstrom
no_reorient  #important for SAPT in psi4, default
symmetry c1  #important for SAPT in psi4, default
}

set PROPERTIES_ORIGIN ["COM"]
properties('MP2/aug-cc-pvtz', properties = ['dipole'])
--------------------------------------------------------------------------

    Molecular point group: c1
  Charge       = -1
  Multiplicity = 1
  Basis Set: AUG-CC-PVTZ
    Blend: AUG-CC-PVTZ
  Basis Set: (AUG-CC-PVTZ AUX)
    Blend: AUG-CC-PVTZ-JKFIT

    Orbital Energies [Eh]
    ---------------------

    Doubly Occupied:

       1A    -20.347106     2A    -20.262564     3A    -11.139656
       4A    -11.118804     5A    -11.115583     6A    -11.091625
       7A    -11.086259     8A    -11.057746     9A     -1.301690
      10A     -1.016956    11A     -0.961004    12A     -0.888754
      13A     -0.790855    14A     -0.711210    15A     -0.613635
      16A     -0.541539    17A     -0.509693    18A     -0.496680
      19A     -0.476069    20A     -0.449309    21A     -0.435414
      22A     -0.420913    23A     -0.409873    24A     -0.403822
      25A     -0.373836    26A     -0.362078    27A     -0.334573
      28A     -0.234034    29A     -0.196752    30A     -0.185361
      31A     -0.155099

  @DF-RHF Final Energy:  -382.26649197223935

   => Energetics <=

    Nuclear Repulsion Energy =            339.1534752653029159
    One-Electron Energy =               -1203.8629480370318561
    Two-Electron Energy =                 482.4429807994896464
    Total Energy =                       -382.2664919722393506
  Basis Set: (AUG-CC-PVTZ AUX)
    Blend: AUG-CC-PVTZ-RI
    Molecular point group: c1

    Geometry (in Angstrom), charge = -1, multiplicity = 1:

       Center              X                  Y                   Z               Mass
    ------------   -----------------  -----------------  -----------------  -----------------
         O           -2.768800483077    -0.900349032014    -0.543990015796    15.994914619570
         O           -2.374747483077     1.277428967986    -0.025408015796    15.994914619570
         C            2.708647516923     0.165857967986    -0.659361015796    12.000000000000
         C            1.470487516923    -0.448060032014    -0.071966015796    12.000000000000
         C            0.356745516923     0.231108967986     0.246577984204    12.000000000000
         C           -0.881730483077    -0.361421032014     0.851545984204    12.000000000000
         C            3.909266516923     0.074156967986     0.288805984204    12.000000000000
         C           -2.229518883077    -0.113015332014    -0.068263815796    12.000000000000
         H            2.962420516923    -0.337080032014    -1.602311015796     1.007825032230
         H            2.508968516923     1.215521967986    -0.905250015796     1.007825032230
         H            1.509497516923    -1.522770032014     0.121705984204     1.007825032230
         H            0.310971516923     1.303075967986     0.046971984204     1.007825032230
         H           -0.793320483077    -1.451290032014     0.913776984204     1.007825032230
         H           -1.013599483077     0.034324967986     1.869166984204     1.007825032230
         H            4.130380516923    -0.968347032014     0.537432984204     1.007825032230
         H            3.699764516923     0.605073967986     1.221821984204     1.007825032230
         H            4.806949516923     0.511372967986    -0.159902015796     1.007825032230

  Basis Set: AUG-CC-PVTZ
    Blend: AUG-CC-PVTZ
  Basis Set: (AUG-CC-PVTZ AUX)
    Blend: AUG-CC-PVTZ-JKFIT
	 Reference Energy          =    -382.2664919722393506 [Eh]
	 Singles Energy            =      -0.0000000000000000 [Eh]
	 Same-Spin Energy          =      -0.3897384122194426 [Eh]
	 Opposite-Spin Energy      =      -1.2566933652974459 [Eh]
	 Correlation Energy        =      -1.6464317775168884 [Eh]
	 Total Energy              =    -383.9129237497562599 [Eh]

	 ================> DF-SCS-MP2 Energies <==================
	-----------------------------------------------------------
	 SCS Same-Spin Scale       =       0.3333333333333333 [-]
	 SCS Opposite-Spin Scale   =       1.2000000000000000 [-]
	 SCS Same-Spin Energy      =      -0.1299128040731475 [Eh]
	 SCS Opposite-Spin Energy  =      -1.5080320383569350 [Eh]
	 SCS Correlation Energy    =      -1.6379448424300826 [Eh]
	 SCS Total Energy          =    -383.9044368146694524 [Eh]
	-----------------------------------------------------------

  Dipole Moment: [D]
     X:     9.5519      Y:    -2.4665      Z:     0.8778     Total:     9.9042

*** Psi4 exiting successfully. Buy a developer a beer!
