                               Psi4 1.3.2 release

  ==> Input File <==

--------------------------------------------------------------------------
#psi4
#
memory 32 gb

molecule  {
-1 1
  O       -2.9259140    -0.9099280    -0.5693610
  O       -2.5318610     1.2678500    -0.0507790
  C        2.5515340     0.1562790    -0.6847320
  C        1.3133740    -0.4576390    -0.0973370
  C        0.1996320     0.2215300     0.2212070
  C       -1.0388440    -0.3710000     0.8261750
  C        3.7521530     0.0645780     0.2634350
  C       -2.2854840     0.0250790    -0.0044070
  H        2.8053070    -0.3466590    -1.6276820
  H        2.3518550     1.2059430    -0.9306210
  H        1.3523840    -1.5323490     0.0963350
  H        0.1538580     1.2934970     0.0216010
  H       -0.9504340    -1.4608690     0.8884060
  H       -1.1827033     0.0607295     1.9363239
  H        3.9732670    -0.9779260     0.5120620
  H        3.5426510     0.5954950     1.1964510
  H        4.6498360     0.5017940    -0.1852730
units angstrom
no_reorient  #important for SAPT in psi4, default
symmetry c1  #important for SAPT in psi4, default
}

set PROPERTIES_ORIGIN ["COM"]
properties('MP2/aug-cc-pvtz', properties = ['dipole'])
--------------------------------------------------------------------------

    Molecular point group: c1
  Charge       = -1
  Multiplicity = 1
  Basis Set: AUG-CC-PVTZ
    Blend: AUG-CC-PVTZ
  Basis Set: (AUG-CC-PVTZ AUX)
    Blend: AUG-CC-PVTZ-JKFIT

    Orbital Energies [Eh]
    ---------------------

    Doubly Occupied:

       1A    -20.298724     2A    -20.295860     3A    -11.145065
       4A    -11.124141     5A    -11.122037     6A    -11.101145
       7A    -11.096746     8A    -11.081851     9A     -1.166010
      10A     -1.065187    11A     -0.969380    12A     -0.899834
      13A     -0.803506    14A     -0.721007    15A     -0.622673
      16A     -0.533408    17A     -0.514114    18A     -0.498943
      19A     -0.452537    20A     -0.441295    21A     -0.424156
      22A     -0.415320    23A     -0.402129    24A     -0.383307
      25A     -0.373181    26A     -0.348085    27A     -0.321282
      28A     -0.238095    29A     -0.211209    30A     -0.195874
      31A     -0.189681

  @DF-RHF Final Energy:  -382.32653362692031

   => Energetics <=

    Nuclear Repulsion Energy =            338.3769154188526045
    One-Electron Energy =               -1202.4953342728090320
    Two-Electron Energy =                 481.7918852270361185
    Total Energy =                       -382.3265336269203090
  Basis Set: (AUG-CC-PVTZ AUX)
    Blend: AUG-CC-PVTZ-RI
    Molecular point group: c1

    Geometry (in Angstrom), charge = -1, multiplicity = 1:

       Center              X                  Y                   Z               Mass
    ------------   -----------------  -----------------  -----------------  -----------------
         O           -2.779429299371    -0.916343553516    -0.554285283029    15.994914619570
         O           -2.385376299371     1.261434446484    -0.035703283029    15.994914619570
         C            2.698018700629     0.149863446484    -0.669656283029    12.000000000000
         C            1.459858700629    -0.464054553516    -0.082261283029    12.000000000000
         C            0.346116700629     0.215114446484     0.236282716971    12.000000000000
         C           -0.892359299371    -0.377415553516     0.841250716971    12.000000000000
         C            3.898637700629     0.058162446484     0.278510716971    12.000000000000
         C           -2.138999299371     0.018663446484     0.010668716971    12.000000000000
         H            2.951791700629    -0.353074553516    -1.612606283029     1.007825032230
         H            2.498339700629     1.199527446484    -0.915545283029     1.007825032230
         H            1.498868700629    -1.538764553516     0.111410716971     1.007825032230
         H            0.300342700629     1.287081446484     0.036676716971     1.007825032230
         H           -0.803949299371    -1.467284553516     0.903481716971     1.007825032230
         H           -1.036218599371     0.054313946484     1.951399616971     1.007825032230
         H            4.119751700629    -0.984341553516     0.527137716971     1.007825032230
         H            3.689135700629     0.589079446484     1.211526716971     1.007825032230
         H            4.796320700629     0.495378446484    -0.170197283029     1.007825032230

  Basis Set: AUG-CC-PVTZ
    Blend: AUG-CC-PVTZ
  Basis Set: (AUG-CC-PVTZ AUX)
    Blend: AUG-CC-PVTZ-JKFIT
	 Reference Energy          =    -382.3265336269203090 [Eh]
	 Singles Energy            =      -0.0000000000000000 [Eh]
	 Same-Spin Energy          =      -0.3909638707816112 [Eh]
	 Opposite-Spin Energy      =      -1.2602755234645231 [Eh]
	 Correlation Energy        =      -1.6512393942461343 [Eh]
	 Total Energy              =    -383.9777730211664561 [Eh]

	 ================> DF-SCS-MP2 Energies <==================
	-----------------------------------------------------------
	 SCS Same-Spin Scale       =       0.3333333333333333 [-]
	 SCS Opposite-Spin Scale   =       1.2000000000000000 [-]
	 SCS Same-Spin Energy      =      -0.1303212902605371 [Eh]
	 SCS Opposite-Spin Energy  =      -1.5123306281574276 [Eh]
	 SCS Correlation Energy    =      -1.6426519184179647 [Eh]
	 SCS Total Energy          =    -383.9691855453382914 [Eh]
	-----------------------------------------------------------

  Dipole Moment: [D]
     X:    10.7395      Y:    -0.7256      Z:     1.5764     Total:    10.8788

*** Psi4 exiting successfully. Buy a developer a beer!
