                               Psi4 1.3.2 release

  ==> Input File <==

--------------------------------------------------------------------------
#psi4
#
memory 32 gb

molecule  {
-1 1
  O       -2.9259140    -0.9099280    -0.5693610
  O       -2.5318610     1.2678500    -0.0507790
  C        2.5515340     0.1562790    -0.6847320
  C        1.3133740    -0.4576390    -0.0973370
  C        0.1996320     0.2215300     0.2212070
  C       -1.2249004    -0.3641470     0.8992232
  C        3.7521530     0.0645780     0.2634350
  C       -2.2854840     0.0250790    -0.0044070
  H        2.8053070    -0.3466590    -1.6276820
  H        2.3518550     1.2059430    -0.9306210
  H        1.3523840    -1.5323490     0.0963350
  H        0.1538580     1.2934970     0.0216010
  H       -0.9504340    -1.4608690     0.8884060
  H       -1.1707130     0.0247460     1.8437960
  H        3.9732670    -0.9779260     0.5120620
  H        3.5426510     0.5954950     1.1964510
  H        4.6498360     0.5017940    -0.1852730
units angstrom
no_reorient  #important for SAPT in psi4, default
symmetry c1  #important for SAPT in psi4, default
}

set PROPERTIES_ORIGIN ["COM"]
properties('MP2/aug-cc-pvtz', properties = ['dipole'])
--------------------------------------------------------------------------

    Molecular point group: c1
  Charge       = -1
  Multiplicity = 1
  Basis Set: AUG-CC-PVTZ
    Blend: AUG-CC-PVTZ
  Basis Set: (AUG-CC-PVTZ AUX)
    Blend: AUG-CC-PVTZ-JKFIT

    Orbital Energies [Eh]
    ---------------------

    Doubly Occupied:

       1A    -20.294360     2A    -20.292943     3A    -11.136569
       4A    -11.124749     5A    -11.123083     6A    -11.106639
       7A    -11.099204     8A    -11.076287     9A     -1.167491
      10A     -1.063856    11A     -0.966387    12A     -0.887457
      13A     -0.813932    14A     -0.729812    15A     -0.620244
      16A     -0.549143    17A     -0.514234    18A     -0.500451
      19A     -0.451542    20A     -0.442184    21A     -0.438031
      22A     -0.416566    23A     -0.404658    24A     -0.384778
      25A     -0.373212    26A     -0.342442    27A     -0.290077
      28A     -0.233924    29A     -0.209164    30A     -0.203838
      31A     -0.193400

  @DF-RHF Final Energy:  -382.30252291116579

   => Energetics <=

    Nuclear Repulsion Energy =            338.0907125596059473
    One-Electron Energy =               -1201.8851636981869433
    Two-Electron Energy =                 481.4919282274152579
    Total Energy =                       -382.3025229111657950
  Basis Set: (AUG-CC-PVTZ AUX)
    Blend: AUG-CC-PVTZ-RI
    Molecular point group: c1

    Geometry (in Angstrom), charge = -1, multiplicity = 1:

       Center              X                  Y                   Z               Mass
    ------------   -----------------  -----------------  -----------------  -----------------
         O           -2.759788509734    -0.916750159075    -0.561213681248    15.994914619570
         O           -2.365735509734     1.261027840925    -0.042631681248    15.994914619570
         C            2.717659490266     0.149456840925    -0.676584681248    12.000000000000
         C            1.479499490266    -0.464461159075    -0.089189681248    12.000000000000
         C            0.365757490266     0.214707840925     0.229354318752    12.000000000000
         C           -1.058774909734    -0.370969159075     0.907370518752    12.000000000000
         C            3.918278490266     0.057755840925     0.271582318752    12.000000000000
         C           -2.119358509734     0.018256840925     0.003740318752    12.000000000000
         H            2.971432490266    -0.353481159075    -1.619534681248     1.007825032230
         H            2.517980490266     1.199120840925    -0.922473681248     1.007825032230
         H            1.518509490266    -1.539171159075     0.104482318752     1.007825032230
         H            0.319983490266     1.286674840925     0.029748318752     1.007825032230
         H           -0.784308509734    -1.467691159075     0.896553318752     1.007825032230
         H           -1.004587509734     0.017923840925     1.851943318752     1.007825032230
         H            4.139392490266    -0.984748159075     0.520209318752     1.007825032230
         H            3.708776490266     0.588672840925     1.204598318752     1.007825032230
         H            4.815961490266     0.494971840925    -0.177125681248     1.007825032230

  Basis Set: AUG-CC-PVTZ
    Blend: AUG-CC-PVTZ
  Basis Set: (AUG-CC-PVTZ AUX)
    Blend: AUG-CC-PVTZ-JKFIT
	 Reference Energy          =    -382.3025229111657950 [Eh]
	 Singles Energy            =      -0.0000000000000000 [Eh]
	 Same-Spin Energy          =      -0.3910308385695027 [Eh]
	 Opposite-Spin Energy      =      -1.2614339870105495 [Eh]
	 Correlation Energy        =      -1.6524648255800523 [Eh]
	 Total Energy              =    -383.9549877367458635 [Eh]

	 ================> DF-SCS-MP2 Energies <==================
	-----------------------------------------------------------
	 SCS Same-Spin Scale       =       0.3333333333333333 [-]
	 SCS Opposite-Spin Scale   =       1.2000000000000000 [-]
	 SCS Same-Spin Energy      =      -0.1303436128565009 [Eh]
	 SCS Opposite-Spin Energy  =      -1.5137207844126594 [Eh]
	 SCS Correlation Energy    =      -1.6440643972691604 [Eh]
	 SCS Total Energy          =    -383.9465873084349710 [Eh]
	-----------------------------------------------------------

  Dipole Moment: [D]
     X:    10.8964      Y:    -0.7292      Z:     1.8241     Total:    11.0721

*** Psi4 exiting successfully. Buy a developer a beer!
