                               Psi4 1.3.2 release

  ==> Input File <==

--------------------------------------------------------------------------
#psi4
#
memory 32 gb

molecule  {
-1 1
  O       -2.9259140    -0.9099280    -0.5693610
  O       -2.5318610     1.2678500    -0.0507790
  C        2.5515340     0.1562790    -0.6847320
  C        1.3122096    -0.4741633    -0.1176465
  C        0.1996320     0.2215300     0.2212070
  C       -1.0388440    -0.3710000     0.8261750
  C        3.7521530     0.0645780     0.2634350
  C       -2.2854840     0.0250790    -0.0044070
  H        2.7900632    -0.3580772    -1.6254996
  H        2.3518550     1.2059430    -0.9306210
  H        1.3523840    -1.5323490     0.0963350
  H        0.1538580     1.2934970     0.0216010
  H       -0.9504340    -1.4608690     0.8884060
  H       -1.1707130     0.0247460     1.8437960
  H        3.9732670    -0.9779260     0.5120620
  H        3.5426510     0.5954950     1.1964510
  H        4.6498360     0.5017940    -0.1852730
units angstrom
no_reorient  #important for SAPT in psi4, default
symmetry c1  #important for SAPT in psi4, default
}

set PROPERTIES_ORIGIN ["COM"]
properties('MP2/aug-cc-pvtz', properties = ['dipole'])
--------------------------------------------------------------------------

    Molecular point group: c1
  Charge       = -1
  Multiplicity = 1
  Basis Set: AUG-CC-PVTZ
    Blend: AUG-CC-PVTZ
  Basis Set: (AUG-CC-PVTZ AUX)
    Blend: AUG-CC-PVTZ-JKFIT

    Orbital Energies [Eh]
    ---------------------

    Doubly Occupied:

       1A    -20.297602     2A    -20.295790     3A    -11.143872
       4A    -11.124000     5A    -11.121234     6A    -11.101926
       7A    -11.095961     8A    -11.069418     9A     -1.165432
      10A     -1.064599    11A     -0.967806    12A     -0.899481
      13A     -0.806979    14A     -0.721329    15A     -0.624438
      16A     -0.532520    17A     -0.514378    18A     -0.499319
      19A     -0.453349    20A     -0.443793    21A     -0.432617
      22A     -0.415429    23A     -0.401333    24A     -0.381666
      25A     -0.374657    26A     -0.349697    27A     -0.323658
      28A     -0.236584    29A     -0.210965    30A     -0.195436
      31A     -0.187529

  @DF-RHF Final Energy:  -382.33194211462842

   => Energetics <=

    Nuclear Repulsion Energy =            338.6887537512693598
    One-Electron Energy =               -1203.1358003597333663
    Two-Electron Energy =                 482.1151044938355881
    Total Energy =                       -382.3319421146284185
  Basis Set: (AUG-CC-PVTZ AUX)
    Blend: AUG-CC-PVTZ-RI
    Molecular point group: c1

    Geometry (in Angstrom), charge = -1, multiplicity = 1:

       Center              X                  Y                   Z               Mass
    ------------   -----------------  -----------------  -----------------  -----------------
         O           -2.779276710304    -0.914167154561    -0.551324326874    15.994914619570
         O           -2.385223710304     1.263610845439    -0.032742326874    15.994914619570
         C            2.698171289696     0.152039845439    -0.666695326874    12.000000000000
         C            1.458846889696    -0.478402454561    -0.099609826874    12.000000000000
         C            0.346269289696     0.217290845439     0.239243673126    12.000000000000
         C           -0.892206710304    -0.375239154561     0.844211673126    12.000000000000
         C            3.898790289696     0.060338845439     0.281471673126    12.000000000000
         C           -2.138846710304     0.020839845439     0.013629673126    12.000000000000
         H            2.936700489696    -0.362316354561    -1.607462926874     1.007825032230
         H            2.498492289696     1.201703845439    -0.912584326874     1.007825032230
         H            1.499021289696    -1.536588154561     0.114371673126     1.007825032230
         H            0.300495289696     1.289257845439     0.039637673126     1.007825032230
         H           -0.803796710304    -1.465108154561     0.906442673126     1.007825032230
         H           -1.024075710304     0.020506845439     1.861832673126     1.007825032230
         H            4.119904289696    -0.982165154561     0.530098673126     1.007825032230
         H            3.689288289696     0.591255845439     1.214487673126     1.007825032230
         H            4.796473289696     0.497554845439    -0.167236326874     1.007825032230

  Basis Set: AUG-CC-PVTZ
    Blend: AUG-CC-PVTZ
  Basis Set: (AUG-CC-PVTZ AUX)
    Blend: AUG-CC-PVTZ-JKFIT
	 Reference Energy          =    -382.3319421146284185 [Eh]
	 Singles Energy            =      -0.0000000000000000 [Eh]
	 Same-Spin Energy          =      -0.3910648786738864 [Eh]
	 Opposite-Spin Energy      =      -1.2598826037895199 [Eh]
	 Correlation Energy        =      -1.6509474824634063 [Eh]
	 Total Energy              =    -383.9828895970917984 [Eh]

	 ================> DF-SCS-MP2 Energies <==================
	-----------------------------------------------------------
	 SCS Same-Spin Scale       =       0.3333333333333333 [-]
	 SCS Opposite-Spin Scale   =       1.2000000000000000 [-]
	 SCS Same-Spin Energy      =      -0.1303549595579621 [Eh]
	 SCS Opposite-Spin Energy  =      -1.5118591245474238 [Eh]
	 SCS Correlation Energy    =      -1.6422140841053858 [Eh]
	 SCS Total Energy          =    -383.9741561987337946 [Eh]
	-----------------------------------------------------------

  Dipole Moment: [D]
     X:    10.7171      Y:    -0.7248      Z:     1.6841     Total:    10.8728

*** Psi4 exiting successfully. Buy a developer a beer!
