                               Psi4 1.3.2 release

  ==> Input File <==

--------------------------------------------------------------------------
#psi4
#
memory 32 gb

molecule  {
-1 1
  O       -2.9259140    -0.9099280    -0.5693610
  O       -2.5318610     1.2678500    -0.0507790
  C        2.5515340     0.1562790    -0.6847320
  C        1.3133740    -0.4576390    -0.0973370
  C        0.1996320     0.2215300     0.2212070
  C       -1.0369997    -0.4144112     0.8338907
  C        3.7521530     0.0645780     0.2634350
  C       -2.2854840     0.0250790    -0.0044070
  H        2.8053070    -0.3466590    -1.6276820
  H        2.3518550     1.2059430    -0.9306210
  H        1.3346385    -1.5315727     0.1032782
  H        0.1538580     1.2934970     0.0216010
  H       -0.9504340    -1.4608690     0.8884060
  H       -1.1707130     0.0247460     1.8437960
  H        3.9732670    -0.9779260     0.5120620
  H        3.5426510     0.5954950     1.1964510
  H        4.6498360     0.5017940    -0.1852730
units angstrom
no_reorient  #important for SAPT in psi4, default
symmetry c1  #important for SAPT in psi4, default
}

set PROPERTIES_ORIGIN ["COM"]
properties('MP2/aug-cc-pvtz', properties = ['dipole'])
--------------------------------------------------------------------------

    Molecular point group: c1
  Charge       = -1
  Multiplicity = 1
  Basis Set: AUG-CC-PVTZ
    Blend: AUG-CC-PVTZ
  Basis Set: (AUG-CC-PVTZ AUX)
    Blend: AUG-CC-PVTZ-JKFIT

    Orbital Energies [Eh]
    ---------------------

    Doubly Occupied:

       1A    -20.297051     2A    -20.296970     3A    -11.145036
       4A    -11.123381     5A    -11.121223     6A    -11.100356
       7A    -11.094263     8A    -11.068377     9A     -1.165062
      10A     -1.064624    11A     -0.967959    12A     -0.898884
      13A     -0.805585    14A     -0.722346    15A     -0.621672
      16A     -0.531802    17A     -0.514567    18A     -0.499242
      19A     -0.452008    20A     -0.442993    21A     -0.430653
      22A     -0.414032    23A     -0.402047    24A     -0.381962
      25A     -0.376720    26A     -0.354207    27A     -0.321806
      28A     -0.237232    29A     -0.212036    30A     -0.195782
      31A     -0.186650

  @DF-RHF Final Energy:  -382.33116933574115

   => Energetics <=

    Nuclear Repulsion Energy =            338.4821519608968856
    One-Electron Energy =               -1202.7335859929023627
    Two-Electron Energy =                 481.9202646962643257
    Total Energy =                       -382.3311693357411514
  Basis Set: (AUG-CC-PVTZ AUX)
    Blend: AUG-CC-PVTZ-RI
    Molecular point group: c1

    Geometry (in Angstrom), charge = -1, multiplicity = 1:

       Center              X                  Y                   Z               Mass
    ------------   -----------------  -----------------  -----------------  -----------------
         O           -2.779573747705    -0.911422132635    -0.554341306226    15.994914619570
         O           -2.385520747705     1.266355867365    -0.035759306226    15.994914619570
         C            2.697874252295     0.154784867365    -0.669712306226    12.000000000000
         C            1.459714252295    -0.459133132635    -0.082317306226    12.000000000000
         C            0.345972252295     0.220035867365     0.236226693774    12.000000000000
         C           -0.890659447705    -0.415905332635     0.848910393774    12.000000000000
         C            3.898493252295     0.063083867365     0.278454693774    12.000000000000
         C           -2.139143747705     0.023584867365     0.010612693774    12.000000000000
         H            2.951647252295    -0.348153132635    -1.612662306226     1.007825032230
         H            2.498195252295     1.204448867365    -0.915601306226     1.007825032230
         H            1.480978752295    -1.533066832635     0.118297893774     1.007825032230
         H            0.300198252295     1.292002867365     0.036620693774     1.007825032230
         H           -0.804093747705    -1.462363132635     0.903425693774     1.007825032230
         H           -1.024372747705     0.023251867365     1.858815693774     1.007825032230
         H            4.119607252295    -0.979420132635     0.527081693774     1.007825032230
         H            3.688991252295     0.594000867365     1.211470693774     1.007825032230
         H            4.796176252295     0.500299867365    -0.170253306226     1.007825032230

  Basis Set: AUG-CC-PVTZ
    Blend: AUG-CC-PVTZ
  Basis Set: (AUG-CC-PVTZ AUX)
    Blend: AUG-CC-PVTZ-JKFIT
	 Reference Energy          =    -382.3311693357411514 [Eh]
	 Singles Energy            =      -0.0000000000000000 [Eh]
	 Same-Spin Energy          =      -0.3908414821418685 [Eh]
	 Opposite-Spin Energy      =      -1.2594198126241336 [Eh]
	 Correlation Energy        =      -1.6502612947660020 [Eh]
	 Total Energy              =    -383.9814306305071341 [Eh]

	 ================> DF-SCS-MP2 Energies <==================
	-----------------------------------------------------------
	 SCS Same-Spin Scale       =       0.3333333333333333 [-]
	 SCS Opposite-Spin Scale   =       1.2000000000000000 [-]
	 SCS Same-Spin Energy      =      -0.1302804940472895 [Eh]
	 SCS Opposite-Spin Energy  =      -1.5113037751489602 [Eh]
	 SCS Correlation Energy    =      -1.6415842691962497 [Eh]
	 SCS Total Energy          =    -383.9727536049373953 [Eh]
	-----------------------------------------------------------

  Dipole Moment: [D]
     X:    10.6816      Y:    -0.7468      Z:     1.6563     Total:    10.8350

*** Psi4 exiting successfully. Buy a developer a beer!
