                               Psi4 1.3.2 release

  ==> Input File <==

--------------------------------------------------------------------------
#psi4
#
memory 32 gb

molecule  {
-1 1
  O       -2.9259140    -0.9099280    -0.5693610
  O       -2.5318610     1.2678500    -0.0507790
  C        2.5515340     0.1562790    -0.6847320
  C        1.3133740    -0.4576390    -0.0973370
  C        0.1996320     0.2215300     0.2212070
  C       -1.0028926    -0.4408359     0.8262748
  C        3.7521530     0.0645780     0.2634350
  C       -2.2854840     0.0250790    -0.0044070
  H        2.8053070    -0.3466590    -1.6276820
  H        2.3518550     1.2059430    -0.9306210
  H        1.3523840    -1.5323490     0.0963350
  H        0.2071953     1.2904787     0.0013375
  H       -0.9504340    -1.4608690     0.8884060
  H       -1.1707130     0.0247460     1.8437960
  H        3.9732670    -0.9779260     0.5120620
  H        3.5426510     0.5954950     1.1964510
  H        4.6498360     0.5017940    -0.1852730
units angstrom
no_reorient  #important for SAPT in psi4, default
symmetry c1  #important for SAPT in psi4, default
}

set PROPERTIES_ORIGIN ["COM"]
properties('MP2/aug-cc-pvtz', properties = ['dipole'])
--------------------------------------------------------------------------

    Molecular point group: c1
  Charge       = -1
  Multiplicity = 1
  Basis Set: AUG-CC-PVTZ
    Blend: AUG-CC-PVTZ
  Basis Set: (AUG-CC-PVTZ AUX)
    Blend: AUG-CC-PVTZ-JKFIT

    Orbital Energies [Eh]
    ---------------------

    Doubly Occupied:

       1A    -20.298430     2A    -20.297793     3A    -11.147610
       4A    -11.122926     5A    -11.120233     6A    -11.099762
       7A    -11.092332     8A    -11.068664     9A     -1.164971
      10A     -1.065130    11A     -0.968583    12A     -0.900584
      13A     -0.804479    14A     -0.721105    15A     -0.622651
      16A     -0.530597    17A     -0.514805    18A     -0.496949
      19A     -0.456027    20A     -0.442244    21A     -0.426592
      22A     -0.413620    23A     -0.401438    24A     -0.380982
      25A     -0.378880    26A     -0.358797    27A     -0.323565
      28A     -0.237594    29A     -0.213038    30A     -0.196620
      31A     -0.181586

  @DF-RHF Final Energy:  -382.32559938016118

   => Energetics <=

    Nuclear Repulsion Energy =            338.3839310389874413
    One-Electron Energy =               -1202.5218885692690947
    Two-Electron Energy =                 481.8123581501205308
    Total Energy =                       -382.3255993801611794
  Basis Set: (AUG-CC-PVTZ AUX)
    Blend: AUG-CC-PVTZ-RI
    Molecular point group: c1

    Geometry (in Angstrom), charge = -1, multiplicity = 1:

       Center              X                  Y                   Z               Mass
    ------------   -----------------  -----------------  -----------------  -----------------
         O           -2.783827446117    -0.908583640061    -0.553290447162    15.994914619570
         O           -2.389774446117     1.269194359939    -0.034708447162    15.994914619570
         C            2.693620553883     0.157623359939    -0.668661447162    12.000000000000
         C            1.455460553883    -0.456294640061    -0.081266447162    12.000000000000
         C            0.341718553883     0.222874359939     0.237277552838    12.000000000000
         C           -0.860806046117    -0.439491540061     0.842345352838    12.000000000000
         C            3.894239553883     0.065922359939     0.279505552838    12.000000000000
         C           -2.143397446117     0.026423359939     0.011663552838    12.000000000000
         H            2.947393553883    -0.345314640061    -1.611611447162     1.007825032230
         H            2.493941553883     1.207287359939    -0.914550447162     1.007825032230
         H            1.494470553883    -1.531004640061     0.112405552838     1.007825032230
         H            0.349281853883     1.291823059939     0.017408052838     1.007825032230
         H           -0.808347446117    -1.459524640061     0.904476552838     1.007825032230
         H           -1.028626446117     0.026090359939     1.859866552838     1.007825032230
         H            4.115353553883    -0.976581640061     0.528132552838     1.007825032230
         H            3.684737553883     0.596839359939     1.212521552838     1.007825032230
         H            4.791922553883     0.503138359939    -0.169202447162     1.007825032230

  Basis Set: AUG-CC-PVTZ
    Blend: AUG-CC-PVTZ
  Basis Set: (AUG-CC-PVTZ AUX)
    Blend: AUG-CC-PVTZ-JKFIT
	 Reference Energy          =    -382.3255993801611794 [Eh]
	 Singles Energy            =      -0.0000000000000000 [Eh]
	 Same-Spin Energy          =      -0.3912122511295816 [Eh]
	 Opposite-Spin Energy      =      -1.2598466550004361 [Eh]
	 Correlation Energy        =      -1.6510589061300178 [Eh]
	 Total Energy              =    -383.9766582862911832 [Eh]

	 ================> DF-SCS-MP2 Energies <==================
	-----------------------------------------------------------
	 SCS Same-Spin Scale       =       0.3333333333333333 [-]
	 SCS Opposite-Spin Scale   =       1.2000000000000000 [-]
	 SCS Same-Spin Energy      =      -0.1304040837098605 [Eh]
	 SCS Opposite-Spin Energy  =      -1.5118159860005234 [Eh]
	 SCS Correlation Energy    =      -1.6422200697103839 [Eh]
	 SCS Total Energy          =    -383.9678194498715698 [Eh]
	-----------------------------------------------------------

  Dipole Moment: [D]
     X:    10.6086      Y:    -0.7633      Z:     1.6112     Total:    10.7574

*** Psi4 exiting successfully. Buy a developer a beer!
