                               Psi4 1.3.2 release

  ==> Input File <==

--------------------------------------------------------------------------
#psi4
#
memory 32 gb

molecule  {
-1 1
  O       -2.9259140    -0.9099280    -0.5693610
  O       -2.5318610     1.2678500    -0.0507790
  C        2.5515340     0.1562790    -0.6847320
  C        1.3133740    -0.4576390    -0.0973370
  C        0.1996320     0.2215300     0.2212070
  C       -1.0388440    -0.3710000     0.8261750
  C        3.7521530     0.0645780     0.2634350
  C       -2.3243507     0.2211297    -0.0117223
  H        2.8053070    -0.3466590    -1.6276820
  H        2.3518550     1.2059430    -0.9306210
  H        1.3523840    -1.5323490     0.0963350
  H        0.1538580     1.2934970     0.0216010
  H       -0.9504340    -1.4608690     0.8884060
  H       -1.1707130     0.0247460     1.8437960
  H        3.9732670    -0.9779260     0.5120620
  H        3.5426510     0.5954950     1.1964510
  H        4.6498360     0.5017940    -0.1852730
units angstrom
no_reorient  #important for SAPT in psi4, default
symmetry c1  #important for SAPT in psi4, default
}

set PROPERTIES_ORIGIN ["COM"]
properties('MP2/aug-cc-pvtz', properties = ['dipole'])
--------------------------------------------------------------------------

    Molecular point group: c1
  Charge       = -1
  Multiplicity = 1
  Basis Set: AUG-CC-PVTZ
    Blend: AUG-CC-PVTZ
  Basis Set: (AUG-CC-PVTZ AUX)
    Blend: AUG-CC-PVTZ-JKFIT

    Orbital Energies [Eh]
    ---------------------

    Doubly Occupied:

       1A    -20.346087     2A    -20.263220     3A    -11.139729
       4A    -11.120734     5A    -11.117770     6A    -11.095650
       7A    -11.088491     8A    -11.057770     9A     -1.301808
      10A     -1.014752    11A     -0.963812    12A     -0.893060
      13A     -0.794358    14A     -0.712848    15A     -0.615993
      16A     -0.543863    17A     -0.511857    18A     -0.505337
      19A     -0.470649    20A     -0.453900    21A     -0.435641
      22A     -0.419860    23A     -0.412056    24A     -0.404349
      25A     -0.376030    26A     -0.363133    27A     -0.340630
      28A     -0.233572    29A     -0.202627    30A     -0.183897
      31A     -0.151352

  @DF-RHF Final Energy:  -382.26563135471571

   => Energetics <=

    Nuclear Repulsion Energy =            339.6155491998370053
    One-Electron Energy =               -1204.6926885275954646
    Two-Electron Energy =                 482.8115079730427510
    Total Energy =                       -382.2656313547157083
  Basis Set: (AUG-CC-PVTZ AUX)
    Blend: AUG-CC-PVTZ-RI
    Molecular point group: c1

    Geometry (in Angstrom), charge = -1, multiplicity = 1:

       Center              X                  Y                   Z               Mass
    ------------   -----------------  -----------------  -----------------  -----------------
         O           -2.775410944049    -0.936831242471    -0.552684052476    15.994914619570
         O           -2.381357944049     1.240946757529    -0.034102052476    15.994914619570
         C            2.702037055951     0.129375757529    -0.668055052476    12.000000000000
         C            1.463877055951    -0.484542242471    -0.080660052476    12.000000000000
         C            0.350135055951     0.194626757529     0.237883947524    12.000000000000
         C           -0.888340944049    -0.397903242471     0.842851947524    12.000000000000
         C            3.902656055951     0.037674757529     0.280111947524    12.000000000000
         C           -2.173847644049     0.194226457529     0.004954647524    12.000000000000
         H            2.955810055951    -0.373562242471    -1.611005052476     1.007825032230
         H            2.502358055951     1.179039757529    -0.913944052476     1.007825032230
         H            1.502887055951    -1.559252242471     0.113011947524     1.007825032230
         H            0.304361055951     1.266593757529     0.038277947524     1.007825032230
         H           -0.799930944049    -1.487772242471     0.905082947524     1.007825032230
         H           -1.020209944049    -0.002157242471     1.860472947524     1.007825032230
         H            4.123770055951    -1.004829242471     0.528738947524     1.007825032230
         H            3.693154055951     0.568591757529     1.213127947524     1.007825032230
         H            4.800339055951     0.474890757529    -0.168596052476     1.007825032230

  Basis Set: AUG-CC-PVTZ
    Blend: AUG-CC-PVTZ
  Basis Set: (AUG-CC-PVTZ AUX)
    Blend: AUG-CC-PVTZ-JKFIT
	 Reference Energy          =    -382.2656313547157083 [Eh]
	 Singles Energy            =      -0.0000000000000000 [Eh]
	 Same-Spin Energy          =      -0.3901837759167001 [Eh]
	 Opposite-Spin Energy      =      -1.2572139263679771 [Eh]
	 Correlation Energy        =      -1.6473977022846773 [Eh]
	 Total Energy              =    -383.9130290570003581 [Eh]

	 ================> DF-SCS-MP2 Energies <==================
	-----------------------------------------------------------
	 SCS Same-Spin Scale       =       0.3333333333333333 [-]
	 SCS Opposite-Spin Scale   =       1.2000000000000000 [-]
	 SCS Same-Spin Energy      =      -0.1300612586389000 [Eh]
	 SCS Opposite-Spin Energy  =      -1.5086567116415726 [Eh]
	 SCS Correlation Energy    =      -1.6387179702804726 [Eh]
	 SCS Total Energy          =    -383.9043493249961898 [Eh]
	-----------------------------------------------------------

  Dipole Moment: [D]
     X:    10.3053      Y:     1.3716      Z:     1.8670     Total:    10.5625

*** Psi4 exiting successfully. Buy a developer a beer!
