                               Psi4 1.3.2 release

  ==> Input File <==

--------------------------------------------------------------------------
#psi4
#
memory 32 gb

molecule  {
-1 1
  O       -2.9259140    -0.9099280    -0.5693610
  O       -2.5318610     1.2678500    -0.0507790
  C        2.5515340     0.1562790    -0.6847320
  C        1.3133740    -0.4576390    -0.0973370
  C        0.1996320     0.2215300     0.2212070
  C       -1.0311641    -0.5012598     0.8484689
  C        3.7521530     0.0645780     0.2634350
  C       -2.2854840     0.0250790    -0.0044070
  H        2.8053070    -0.3466590    -1.6276820
  H        2.3518550     1.2059430    -0.9306210
  H        1.2991335    -1.5290390     0.1169793
  H        0.1538580     1.2934970     0.0216010
  H       -0.9504340    -1.4608690     0.8884060
  H       -1.1707130     0.0247460     1.8437960
  H        3.9732670    -0.9779260     0.5120620
  H        3.5426510     0.5954950     1.1964510
  H        4.6498360     0.5017940    -0.1852730
units angstrom
no_reorient  #important for SAPT in psi4, default
symmetry c1  #important for SAPT in psi4, default
}

set PROPERTIES_ORIGIN ["COM"]
properties('MP2/aug-cc-pvtz', properties = ['dipole'])
--------------------------------------------------------------------------

    Molecular point group: c1
  Charge       = -1
  Multiplicity = 1
  Basis Set: AUG-CC-PVTZ
    Blend: AUG-CC-PVTZ
  Basis Set: (AUG-CC-PVTZ AUX)
    Blend: AUG-CC-PVTZ-JKFIT

    Orbital Energies [Eh]
    ---------------------

    Doubly Occupied:

       1A    -20.300105     2A    -20.296259     3A    -11.148355
       4A    -11.122720     5A    -11.120829     6A    -11.101248
       7A    -11.091519     8A    -11.067511     9A     -1.164889
      10A     -1.065279    11A     -0.966340    12A     -0.895846
      13A     -0.804042    14A     -0.722698    15A     -0.621739
      16A     -0.532766    17A     -0.515119    18A     -0.496677
      19A     -0.457739    20A     -0.439536    21A     -0.424871
      22A     -0.412543    23A     -0.404549    24A     -0.385006
      25A     -0.377926    26A     -0.358609    27A     -0.316556
      28A     -0.235291    29A     -0.214219    30A     -0.196939
      31A     -0.181090

  @DF-RHF Final Energy:  -382.31079570010218

   => Energetics <=

    Nuclear Repulsion Energy =            337.7693774009744629
    One-Electron Energy =               -1201.2827166757160740
    Two-Electron Energy =                 481.2025435746394351
    Total Energy =                       -382.3107957001021759
  Basis Set: (AUG-CC-PVTZ AUX)
    Blend: AUG-CC-PVTZ-RI
    Molecular point group: c1

    Geometry (in Angstrom), charge = -1, multiplicity = 1:

       Center              X                  Y                   Z               Mass
    ------------   -----------------  -----------------  -----------------  -----------------
         O           -2.779876633740    -0.902226773240    -0.556010740921    15.994914619570
         O           -2.385823633740     1.275551226760    -0.037428740921    15.994914619570
         C            2.697571366260     0.163980226760    -0.671381740921    12.000000000000
         C            1.459411366260    -0.449937773240    -0.083986740921    12.000000000000
         C            0.345669366260     0.229231226760     0.234557259079    12.000000000000
         C           -0.885126733740    -0.493558573240     0.861819159079    12.000000000000
         C            3.898190366260     0.072279226760     0.276785259079    12.000000000000
         C           -2.139446633740     0.032780226760     0.008943259079    12.000000000000
         H            2.951344366260    -0.338957773240    -1.614331740921     1.007825032230
         H            2.497892366260     1.213644226760    -0.917270740921     1.007825032230
         H            1.445170866260    -1.521337773240     0.130329559079     1.007825032230
         H            0.299895366260     1.301198226760     0.034951259079     1.007825032230
         H           -0.804396633740    -1.453167773240     0.901756259079     1.007825032230
         H           -1.024675633740     0.032447226760     1.857146259079     1.007825032230
         H            4.119304366260    -0.970224773240     0.525412259079     1.007825032230
         H            3.688688366260     0.603196226760     1.209801259079     1.007825032230
         H            4.795873366260     0.509495226760    -0.171922740921     1.007825032230

  Basis Set: AUG-CC-PVTZ
    Blend: AUG-CC-PVTZ
  Basis Set: (AUG-CC-PVTZ AUX)
    Blend: AUG-CC-PVTZ-JKFIT
	 Reference Energy          =    -382.3107957001021759 [Eh]
	 Singles Energy            =      -0.0000000000000000 [Eh]
	 Same-Spin Energy          =      -0.3910296090716821 [Eh]
	 Opposite-Spin Energy      =      -1.2600930064495859 [Eh]
	 Correlation Energy        =      -1.6511226155212679 [Eh]
	 Total Energy              =    -383.9619183156234499 [Eh]

	 ================> DF-SCS-MP2 Energies <==================
	-----------------------------------------------------------
	 SCS Same-Spin Scale       =       0.3333333333333333 [-]
	 SCS Opposite-Spin Scale   =       1.2000000000000000 [-]
	 SCS Same-Spin Energy      =      -0.1303432030238940 [Eh]
	 SCS Opposite-Spin Energy  =      -1.5121116077395029 [Eh]
	 SCS Correlation Energy    =      -1.6424548107633969 [Eh]
	 SCS Total Energy          =    -383.9532505108655869 [Eh]
	-----------------------------------------------------------

  Dipole Moment: [D]
     X:    10.5980      Y:    -0.7778      Z:     1.6175     Total:    10.7489

*** Psi4 exiting successfully. Buy a developer a beer!
