                               Psi4 1.3.2 release

  ==> Input File <==

--------------------------------------------------------------------------
#psi4
#
memory 32 gb

molecule  {
-1 1
  O       -2.9259140    -0.9099280    -0.5693610
  O       -2.5318610     1.2678500    -0.0507790
  C        2.5515340     0.1562790    -0.6847320
  C        1.3133740    -0.4576390    -0.0973370
  C        0.1996320     0.2215300     0.2212070
  C       -1.0388440    -0.3710000     0.8261750
  C        3.7521530     0.0645780     0.2634350
  C       -2.2349098     0.0989157     0.0402069
  H        2.8053070    -0.3466590    -1.6276820
  H        2.3518550     1.2059430    -0.9306210
  H        1.3523840    -1.5323490     0.0963350
  H        0.1538580     1.2934970     0.0216010
  H       -0.9504340    -1.4608690     0.8884060
  H       -1.1707130     0.0247460     1.8437960
  H        3.9732670    -0.9779260     0.5120620
  H        3.5426510     0.5954950     1.1964510
  H        4.6498360     0.5017940    -0.1852730
units angstrom
no_reorient  #important for SAPT in psi4, default
symmetry c1  #important for SAPT in psi4, default
}

set PROPERTIES_ORIGIN ["COM"]
properties('MP2/aug-cc-pvtz', properties = ['dipole'])
--------------------------------------------------------------------------

    Molecular point group: c1
  Charge       = -1
  Multiplicity = 1
  Basis Set: AUG-CC-PVTZ
    Blend: AUG-CC-PVTZ
  Basis Set: (AUG-CC-PVTZ AUX)
    Blend: AUG-CC-PVTZ-JKFIT

    Orbital Energies [Eh]
    ---------------------

    Doubly Occupied:

       1A    -20.314266     2A    -20.275208     3A    -11.143244
       4A    -11.125634     5A    -11.123705     6A    -11.103831
       7A    -11.099261     8A    -11.073749     9A     -1.183970
      10A     -1.025685    11A     -0.971977    12A     -0.906317
      13A     -0.814851    14A     -0.727426    15A     -0.626097
      16A     -0.541955    17A     -0.518091    18A     -0.502183
      19A     -0.457566    20A     -0.446666    21A     -0.441068
      22A     -0.417765    23A     -0.399170    24A     -0.385960
      25A     -0.370919    26A     -0.350604    27A     -0.324996
      28A     -0.239379    29A     -0.203365    30A     -0.185120
      31A     -0.181674

  @DF-RHF Final Energy:  -382.31594258006055

   => Energetics <=

    Nuclear Repulsion Energy =            339.0922235317371474
    One-Electron Energy =               -1203.8529287974231465
    Two-Electron Energy =                 482.4447626856255056
    Total Energy =                       -382.3159425800605504
  Basis Set: (AUG-CC-PVTZ AUX)
    Blend: AUG-CC-PVTZ-RI
    Molecular point group: c1

    Geometry (in Angstrom), charge = -1, multiplicity = 1:

       Center              X                  Y                   Z               Mass
    ------------   -----------------  -----------------  -----------------  -----------------
         O           -2.784904030762    -0.923859681367    -0.558195718823    15.994914619570
         O           -2.390851030762     1.253918318633    -0.039613718823    15.994914619570
         C            2.692543969238     0.142347318633    -0.673566718823    12.000000000000
         C            1.454383969238    -0.471570681367    -0.086171718823    12.000000000000
         C            0.340641969238     0.207598318633     0.232372281177    12.000000000000
         C           -0.897834030762    -0.384931681367     0.837340281177    12.000000000000
         C            3.893162969238     0.050646318633     0.274600281177    12.000000000000
         C           -2.093899830762     0.084984018633     0.051372181177    12.000000000000
         H            2.946316969238    -0.360590681367    -1.616516718823     1.007825032230
         H            2.492864969238     1.192011318633    -0.919455718823     1.007825032230
         H            1.493393969238    -1.546280681367     0.107500281177     1.007825032230
         H            0.294867969238     1.279565318633     0.032766281177     1.007825032230
         H           -0.809424030762    -1.474800681367     0.899571281177     1.007825032230
         H           -1.029703030762     0.010814318633     1.854961281177     1.007825032230
         H            4.114276969238    -0.991857681367     0.523227281177     1.007825032230
         H            3.683660969238     0.581563318633     1.207616281177     1.007825032230
         H            4.790845969238     0.487862318633    -0.174107718823     1.007825032230

  Basis Set: AUG-CC-PVTZ
    Blend: AUG-CC-PVTZ
  Basis Set: (AUG-CC-PVTZ AUX)
    Blend: AUG-CC-PVTZ-JKFIT
	 Reference Energy          =    -382.3159425800605504 [Eh]
	 Singles Energy            =      -0.0000000000000000 [Eh]
	 Same-Spin Energy          =      -0.3918360432761502 [Eh]
	 Opposite-Spin Energy      =      -1.2616565634513535 [Eh]
	 Correlation Energy        =      -1.6534926067275038 [Eh]
	 Total Energy              =    -383.9694351867880755 [Eh]

	 ================> DF-SCS-MP2 Energies <==================
	-----------------------------------------------------------
	 SCS Same-Spin Scale       =       0.3333333333333333 [-]
	 SCS Opposite-Spin Scale   =       1.2000000000000000 [-]
	 SCS Same-Spin Energy      =      -0.1306120144253834 [Eh]
	 SCS Opposite-Spin Energy  =      -1.5139878761416241 [Eh]
	 SCS Correlation Energy    =      -1.6445998905670076 [Eh]
	 SCS Total Energy          =    -383.9605424706275585 [Eh]
	-----------------------------------------------------------

  Dipole Moment: [D]
     X:    11.2173      Y:     0.0985      Z:     2.0192     Total:    11.3980

*** Psi4 exiting successfully. Buy a developer a beer!
