                               Psi4 1.3.2 release

  ==> Input File <==

--------------------------------------------------------------------------
#psi4
#
memory 32 gb

molecule  {
-1 1
  O       -2.8830483    -0.9529768    -0.5428170
  O       -2.4793033     1.2779618    -0.0115231
  C        2.5515340     0.1562790    -0.6847320
  C        1.3133740    -0.4576390    -0.0973370
  C        0.1996320     0.2215300     0.2212070
  C       -1.0388440    -0.3710000     0.8261750
  C        3.7521530     0.0645780     0.2634350
  C       -2.2854840     0.0250790    -0.0044070
  H        2.8053070    -0.3466590    -1.6276820
  H        2.3518550     1.2059430    -0.9306210
  H        1.3523840    -1.5323490     0.0963350
  H        0.1538580     1.2934970     0.0216010
  H       -0.9504340    -1.4608690     0.8884060
  H       -1.1707130     0.0247460     1.8437960
  H        3.9732670    -0.9779260     0.5120620
  H        3.5426510     0.5954950     1.1964510
  H        4.6498360     0.5017940    -0.1852730
units angstrom
no_reorient  #important for SAPT in psi4, default
symmetry c1  #important for SAPT in psi4, default
}

set PROPERTIES_ORIGIN ["COM"]
properties('MP2/aug-cc-pvtz', properties = ['dipole'])
--------------------------------------------------------------------------

    Molecular point group: c1
  Charge       = -1
  Multiplicity = 1
  Basis Set: AUG-CC-PVTZ
    Blend: AUG-CC-PVTZ
  Basis Set: (AUG-CC-PVTZ AUX)
    Blend: AUG-CC-PVTZ-JKFIT

    Orbital Energies [Eh]
    ---------------------

    Doubly Occupied:

       1A    -20.303705     2A    -20.301804     3A    -11.147287
       4A    -11.121957     5A    -11.119314     6A    -11.096683
       7A    -11.092177     8A    -11.061994     9A     -1.167160
      10A     -1.075802    11A     -0.966094    12A     -0.897028
      13A     -0.802740    14A     -0.719525    15A     -0.619273
      16A     -0.532702    17A     -0.512055    18A     -0.498807
      19A     -0.450483    20A     -0.441202    21A     -0.432583
      22A     -0.413283    23A     -0.403929    24A     -0.381623
      25A     -0.373422    26A     -0.346578    27A     -0.323930
      28A     -0.235988    29A     -0.219926    30A     -0.202979
      31A     -0.183275

  @DF-RHF Final Energy:  -382.33135273363234

   => Energetics <=

    Nuclear Repulsion Energy =            339.4817818504186562
    One-Electron Energy =               -1204.7356525134055119
    Two-Electron Energy =                 482.9225179293545125
    Total Energy =                       -382.3313527336323432
  Basis Set: (AUG-CC-PVTZ AUX)
    Blend: AUG-CC-PVTZ-RI
    Molecular point group: c1

    Geometry (in Angstrom), charge = -1, multiplicity = 1:

       Center              X                  Y                   Z               Mass
    ------------   -----------------  -----------------  -----------------  -----------------
         O           -2.750170266600    -0.954411915632    -0.536225359530    15.994914619570
         O           -2.346425266600     1.276526684368    -0.004931459530    15.994914619570
         C            2.684412033400     0.154843884368    -0.678140359530    12.000000000000
         C            1.446252033400    -0.459074115632    -0.090745359530    12.000000000000
         C            0.332510033400     0.220094884368     0.227798640470    12.000000000000
         C           -0.905965966600    -0.372435115632     0.832766640470    12.000000000000
         C            3.885031033400     0.063142884368     0.270026640470    12.000000000000
         C           -2.152605966600     0.023643884368     0.002184640470    12.000000000000
         H            2.938185033400    -0.348094115632    -1.621090359530     1.007825032230
         H            2.484733033400     1.204507884368    -0.924029359530     1.007825032230
         H            1.485262033400    -1.533784115632     0.102926640470     1.007825032230
         H            0.286736033400     1.292061884368     0.028192640470     1.007825032230
         H           -0.817555966600    -1.462304115632     0.894997640470     1.007825032230
         H           -1.037834966600     0.023310884368     1.850387640470     1.007825032230
         H            4.106145033400    -0.979361115632     0.518653640470     1.007825032230
         H            3.675529033400     0.594059884368     1.203042640470     1.007825032230
         H            4.782714033400     0.500358884368    -0.178681359530     1.007825032230

  Basis Set: AUG-CC-PVTZ
    Blend: AUG-CC-PVTZ
  Basis Set: (AUG-CC-PVTZ AUX)
    Blend: AUG-CC-PVTZ-JKFIT
	 Reference Energy          =    -382.3313527336323432 [Eh]
	 Singles Energy            =      -0.0000000000000000 [Eh]
	 Same-Spin Energy          =      -0.3912903637843840 [Eh]
	 Opposite-Spin Energy      =      -1.2600573422737855 [Eh]
	 Correlation Energy        =      -1.6513477060581696 [Eh]
	 Total Energy              =    -383.9827004396905181 [Eh]

	 ================> DF-SCS-MP2 Energies <==================
	-----------------------------------------------------------
	 SCS Same-Spin Scale       =       0.3333333333333333 [-]
	 SCS Opposite-Spin Scale   =       1.2000000000000000 [-]
	 SCS Same-Spin Energy      =      -0.1304301212614613 [Eh]
	 SCS Opposite-Spin Energy  =      -1.5120688107285425 [Eh]
	 SCS Correlation Energy    =      -1.6424989319900039 [Eh]
	 SCS Total Energy          =    -383.9738516656223624 [Eh]
	-----------------------------------------------------------

  Dipole Moment: [D]
     X:    10.3384      Y:    -0.6205      Z:     1.4959     Total:    10.4645

*** Psi4 exiting successfully. Buy a developer a beer!
