                               Psi4 1.3.2 release

  ==> Input File <==

--------------------------------------------------------------------------
#psi4
#
memory 32 gb

molecule  {
-1 1
  O       -2.9259140    -0.9099280    -0.5693610
  O       -2.5318610     1.2678500    -0.0507790
  C        2.5515340     0.1562790    -0.6847320
  C        1.3133740    -0.4576390    -0.0973370
  C        0.1996320     0.2215300     0.2212070
  C       -0.9937716    -0.4030648     0.8819414
  C        3.7521530     0.0645780     0.2634350
  C       -2.2782193     0.1000453    -0.1116452
  H        2.8053070    -0.3466590    -1.6276820
  H        2.3518550     1.2059430    -0.9306210
  H        1.3523840    -1.5323490     0.0963350
  H        0.1538580     1.2934970     0.0216010
  H       -0.9504340    -1.4608690     0.8884060
  H       -1.1707130     0.0247460     1.8437960
  H        3.9732670    -0.9779260     0.5120620
  H        3.5426510     0.5954950     1.1964510
  H        4.6498360     0.5017940    -0.1852730
units angstrom
no_reorient  #important for SAPT in psi4, default
symmetry c1  #important for SAPT in psi4, default
}

set PROPERTIES_ORIGIN ["COM"]
properties('MP2/aug-cc-pvtz', properties = ['dipole'])
--------------------------------------------------------------------------

    Molecular point group: c1
  Charge       = -1
  Multiplicity = 1
  Basis Set: AUG-CC-PVTZ
    Blend: AUG-CC-PVTZ
  Basis Set: (AUG-CC-PVTZ AUX)
    Blend: AUG-CC-PVTZ-JKFIT

    Orbital Energies [Eh]
    ---------------------

    Doubly Occupied:

       1A    -20.317586     2A    -20.294781     3A    -11.151728
       4A    -11.119884     5A    -11.116252     6A    -11.094369
       7A    -11.086022     8A    -11.055824     9A     -1.198557
      10A     -1.078894    11A     -0.962984    12A     -0.893179
      13A     -0.793706    14A     -0.711703    15A     -0.615691
      16A     -0.522645    17A     -0.510844    18A     -0.497848
      19A     -0.447016    20A     -0.441700    21A     -0.436777
      22A     -0.410695    23A     -0.406454    24A     -0.385521
      25A     -0.377955    26A     -0.357845    27A     -0.337940
      28A     -0.235832    29A     -0.225246    30A     -0.206631
      31A     -0.159821

  @DF-RHF Final Energy:  -382.31761358502860

   => Energetics <=

    Nuclear Repulsion Energy =            338.3260537473141198
    One-Electron Energy =               -1202.3834724292421470
    Two-Electron Energy =                 481.7398050968994880
    Total Energy =                       -382.3176135850285959
  Basis Set: (AUG-CC-PVTZ AUX)
    Blend: AUG-CC-PVTZ-RI
    Molecular point group: c1

    Geometry (in Angstrom), charge = -1, multiplicity = 1:

       Center              X                  Y                   Z               Mass
    ------------   -----------------  -----------------  -----------------  -----------------
         O           -2.785091141609    -0.920576278181    -0.547997365698    15.994914619570
         O           -2.391038141609     1.257201721819    -0.029415365698    15.994914619570
         C            2.692356858391     0.145630721819    -0.663368365698    12.000000000000
         C            1.454196858391    -0.468287278181    -0.075973365698    12.000000000000
         C            0.340454858391     0.210881721819     0.242570634302    12.000000000000
         C           -0.852948741609    -0.413713078181     0.903305034302    12.000000000000
         C            3.892975858391     0.053929721819     0.284798634302    12.000000000000
         C           -2.137396441609     0.089397021819    -0.090281565698    12.000000000000
         H            2.946129858391    -0.357307278181    -1.606318365698     1.007825032230
         H            2.492677858391     1.195294721819    -0.909257365698     1.007825032230
         H            1.493206858391    -1.542997278181     0.117698634302     1.007825032230
         H            0.294680858391     1.282848721819     0.042964634302     1.007825032230
         H           -0.809611141609    -1.471517278181     0.909769634302     1.007825032230
         H           -1.029890141609     0.014097721819     1.865159634302     1.007825032230
         H            4.114089858391    -0.988574278181     0.533425634302     1.007825032230
         H            3.683473858391     0.584846721819     1.217814634302     1.007825032230
         H            4.790658858391     0.491145721819    -0.163909365698     1.007825032230

  Basis Set: AUG-CC-PVTZ
    Blend: AUG-CC-PVTZ
  Basis Set: (AUG-CC-PVTZ AUX)
    Blend: AUG-CC-PVTZ-JKFIT
	 Reference Energy          =    -382.3176135850285959 [Eh]
	 Singles Energy            =      -0.0000000000000000 [Eh]
	 Same-Spin Energy          =      -0.3913709528966423 [Eh]
	 Opposite-Spin Energy      =      -1.2594756967843073 [Eh]
	 Correlation Energy        =      -1.6508466496809495 [Eh]
	 Total Energy              =    -383.9684602347095392 [Eh]

	 ================> DF-SCS-MP2 Energies <==================
	-----------------------------------------------------------
	 SCS Same-Spin Scale       =       0.3333333333333333 [-]
	 SCS Opposite-Spin Scale   =       1.2000000000000000 [-]
	 SCS Same-Spin Energy      =      -0.1304569842988808 [Eh]
	 SCS Opposite-Spin Energy  =      -1.5113708361411686 [Eh]
	 SCS Correlation Energy    =      -1.6418278204400494 [Eh]
	 SCS Total Energy          =    -383.9594414054686240 [Eh]
	-----------------------------------------------------------

  Dipole Moment: [D]
     X:     9.9227      Y:    -0.0312      Z:     1.5011     Total:    10.0357

*** Psi4 exiting successfully. Buy a developer a beer!
