                               Psi4 1.3.2 release

  ==> Input File <==

--------------------------------------------------------------------------
#psi4
#
memory 32 gb

molecule  {
-1 1
  O       -2.9259140    -0.9099280    -0.5693610
  O       -2.5749224     1.2583837    -0.0545731
  C        2.5515340     0.1562790    -0.6847320
  C        1.3133740    -0.4576390    -0.0973370
  C        0.2047949     0.1343401     0.2233416
  C       -1.0388440    -0.3710000     0.8261750
  C        3.7521530     0.0645780     0.2634350
  C       -2.2854840     0.0250790    -0.0044070
  H        2.8053070    -0.3466590    -1.6276820
  H        2.3518550     1.2059430    -0.9306210
  H        1.3523840    -1.5323490     0.0963350
  H        0.1538580     1.2934970     0.0216010
  H       -0.9504340    -1.4608690     0.8884060
  H       -1.1707130     0.0247460     1.8437960
  H        3.9732670    -0.9779260     0.5120620
  H        3.5426510     0.5954950     1.1964510
  H        4.6498360     0.5017940    -0.1852730
units angstrom
no_reorient  #important for SAPT in psi4, default
symmetry c1  #important for SAPT in psi4, default
}

set PROPERTIES_ORIGIN ["COM"]
properties('MP2/aug-cc-pvtz', properties = ['dipole'])
--------------------------------------------------------------------------

    Molecular point group: c1
  Charge       = -1
  Multiplicity = 1
  Basis Set: AUG-CC-PVTZ
    Blend: AUG-CC-PVTZ
  Basis Set: (AUG-CC-PVTZ AUX)
    Blend: AUG-CC-PVTZ-JKFIT

    Orbital Energies [Eh]
    ---------------------

    Doubly Occupied:

       1A    -20.295931     2A    -20.295138     3A    -11.144178
       4A    -11.125354     5A    -11.123960     6A    -11.099833
       7A    -11.090955     8A    -11.071241     9A     -1.165641
      10A     -1.061657    11A     -0.975142    12A     -0.908265
      13A     -0.814255    14A     -0.728940    15A     -0.610468
      16A     -0.537406    17A     -0.513546    18A     -0.502374
      19A     -0.459059    20A     -0.443533    21A     -0.435092
      22A     -0.417889    23A     -0.398633    24A     -0.387864
      25A     -0.372957    26A     -0.333474    27A     -0.320921
      28A     -0.248012    29A     -0.208372    30A     -0.194442
      31A     -0.193129

  @DF-RHF Final Energy:  -382.32459114700214

   => Energetics <=

    Nuclear Repulsion Energy =            339.1717344290800042
    One-Electron Energy =               -1204.0373261261549942
    Two-Electron Energy =                 482.5410005500727948
    Total Energy =                       -382.3245911470021383
  Basis Set: (AUG-CC-PVTZ AUX)
    Blend: AUG-CC-PVTZ-RI
    Molecular point group: c1

    Geometry (in Angstrom), charge = -1, multiplicity = 1:

       Center              X                  Y                   Z               Mass
    ------------   -----------------  -----------------  -----------------  -----------------
         O           -2.773992158844    -0.905429403911    -0.553150286120    15.994914619570
         O           -2.423000558844     1.262882296089    -0.038362386120    15.994914619570
         C            2.703455841156     0.160777596089    -0.668521286120    12.000000000000
         C            1.465295841156    -0.453140403911    -0.081126286120    12.000000000000
         C            0.356716741156     0.138838696089     0.239552313880    12.000000000000
         C           -0.886922158844    -0.366501403911     0.842385713880    12.000000000000
         C            3.904074841156     0.069076596089     0.279645713880    12.000000000000
         C           -2.133562158844     0.029577596089     0.011803713880    12.000000000000
         H            2.957228841156    -0.342160403911    -1.611471286120     1.007825032230
         H            2.503776841156     1.210441596089    -0.914410286120     1.007825032230
         H            1.504305841156    -1.527850403911     0.112545713880     1.007825032230
         H            0.305779841156     1.297995596089     0.037811713880     1.007825032230
         H           -0.798512158844    -1.456370403911     0.904616713880     1.007825032230
         H           -1.018791158844     0.029244596089     1.860006713880     1.007825032230
         H            4.125188841156    -0.973427403911     0.528272713880     1.007825032230
         H            3.694572841156     0.599993596089     1.212661713880     1.007825032230
         H            4.801757841156     0.506292596089    -0.169062286120     1.007825032230

  Basis Set: AUG-CC-PVTZ
    Blend: AUG-CC-PVTZ
  Basis Set: (AUG-CC-PVTZ AUX)
    Blend: AUG-CC-PVTZ-JKFIT
	 Reference Energy          =    -382.3245911470021383 [Eh]
	 Singles Energy            =      -0.0000000000000000 [Eh]
	 Same-Spin Energy          =      -0.3911139703185649 [Eh]
	 Opposite-Spin Energy      =      -1.2595771500054909 [Eh]
	 Correlation Energy        =      -1.6506911203240557 [Eh]
	 Total Energy              =    -383.9752822673261790 [Eh]

	 ================> DF-SCS-MP2 Energies <==================
	-----------------------------------------------------------
	 SCS Same-Spin Scale       =       0.3333333333333333 [-]
	 SCS Opposite-Spin Scale   =       1.2000000000000000 [-]
	 SCS Same-Spin Energy      =      -0.1303713234395216 [Eh]
	 SCS Opposite-Spin Energy  =      -1.5114925800065890 [Eh]
	 SCS Correlation Energy    =      -1.6418639034461107 [Eh]
	 SCS Total Energy          =    -383.9664550504482463 [Eh]
	-----------------------------------------------------------

  Dipole Moment: [D]
     X:    10.8273      Y:    -0.7910      Z:     1.7097     Total:    10.9899

*** Psi4 exiting successfully. Buy a developer a beer!
