                               Psi4 1.3.2 release

  ==> Input File <==

--------------------------------------------------------------------------
#psi4
#
memory 32 gb

molecule  {
-1 1
  O       -2.9259140    -0.9099280    -0.5693610
  O       -2.4667226     1.2792073    -0.0449834
  C        2.5515340     0.1562790    -0.6847320
  C        1.3133740    -0.4576390    -0.0973370
  C        0.1862137     0.3518330     0.2174906
  C       -1.0388440    -0.3710000     0.8261750
  C        3.7521530     0.0645780     0.2634350
  C       -2.2854840     0.0250790    -0.0044070
  H        2.8053070    -0.3466590    -1.6276820
  H        2.3518550     1.2059430    -0.9306210
  H        1.3523840    -1.5323490     0.0963350
  H        0.1538580     1.2934970     0.0216010
  H       -0.9504340    -1.4608690     0.8884060
  H       -1.1707130     0.0247460     1.8437960
  H        3.9732670    -0.9779260     0.5120620
  H        3.5426510     0.5954950     1.1964510
  H        4.6498360     0.5017940    -0.1852730
units angstrom
no_reorient  #important for SAPT in psi4, default
symmetry c1  #important for SAPT in psi4, default
}

set PROPERTIES_ORIGIN ["COM"]
properties('MP2/aug-cc-pvtz', properties = ['dipole'])
--------------------------------------------------------------------------

    Molecular point group: c1
  Charge       = -1
  Multiplicity = 1
  Basis Set: AUG-CC-PVTZ
    Blend: AUG-CC-PVTZ
  Basis Set: (AUG-CC-PVTZ AUX)
    Blend: AUG-CC-PVTZ-JKFIT

    Orbital Energies [Eh]
    ---------------------

    Doubly Occupied:

       1A    -20.300521     2A    -20.296757     3A    -11.143966
       4A    -11.121529     5A    -11.118246     6A    -11.106073
       7A    -11.103187     8A    -11.069225     9A     -1.165665
      10A     -1.069217    11A     -0.961305    12A     -0.890014
      13A     -0.798100    14A     -0.716874    15A     -0.645925
      16A     -0.529425    17A     -0.516605    18A     -0.497051
      19A     -0.447670    20A     -0.441014    21A     -0.430164
      22A     -0.415359    23A     -0.409523    24A     -0.377411
      25A     -0.371941    26A     -0.365044    27A     -0.314376
      28A     -0.225792    29A     -0.214184    30A     -0.198820
      31A     -0.179896

  @DF-RHF Final Energy:  -382.30549224867332

   => Energetics <=

    Nuclear Repulsion Energy =            338.3677823325990630
    One-Electron Energy =               -1202.4647853819335523
    Two-Electron Energy =                 481.7915108006611717
    Total Energy =                       -382.3054922486733176
  Basis Set: (AUG-CC-PVTZ AUX)
    Blend: AUG-CC-PVTZ-RI
    Molecular point group: c1

    Geometry (in Angstrom), charge = -1, multiplicity = 1:

       Center              X                  Y                   Z               Mass
    ------------   -----------------  -----------------  -----------------  -----------------
         O           -2.787327279742    -0.931459652262    -0.553885950771    15.994914619570
         O           -2.328135879742     1.257675647738    -0.029508350771    15.994914619570
         C            2.690120720258     0.134747347738    -0.669256950771    12.000000000000
         C            1.451960720258    -0.479170652262    -0.081861950771    12.000000000000
         C            0.324800420258     0.330301347738     0.232965649229    12.000000000000
         C           -0.900257279742    -0.392531652262     0.841650049229    12.000000000000
         C            3.890739720258     0.043046347738     0.278910049229    12.000000000000
         C           -2.146897279742     0.003547347738     0.011068049229    12.000000000000
         H            2.943893720258    -0.368190652262    -1.612206950771     1.007825032230
         H            2.490441720258     1.184411347738    -0.915145950771     1.007825032230
         H            1.490970720258    -1.553880652262     0.111810049229     1.007825032230
         H            0.292444720258     1.271965347738     0.037076049229     1.007825032230
         H           -0.811847279742    -1.482400652262     0.903881049229     1.007825032230
         H           -1.032126279742     0.003214347738     1.859271049229     1.007825032230
         H            4.111853720258    -0.999457652262     0.527537049229     1.007825032230
         H            3.681237720258     0.573963347738     1.211926049229     1.007825032230
         H            4.788422720258     0.480262347738    -0.169797950771     1.007825032230

  Basis Set: AUG-CC-PVTZ
    Blend: AUG-CC-PVTZ
  Basis Set: (AUG-CC-PVTZ AUX)
    Blend: AUG-CC-PVTZ-JKFIT
	 Reference Energy          =    -382.3054922486733176 [Eh]
	 Singles Energy            =      -0.0000000000000000 [Eh]
	 Same-Spin Energy          =      -0.3915695890386777 [Eh]
	 Opposite-Spin Energy      =      -1.2621328868718620 [Eh]
	 Correlation Energy        =      -1.6537024759105396 [Eh]
	 Total Energy              =    -383.9591947245838810 [Eh]

	 ================> DF-SCS-MP2 Energies <==================
	-----------------------------------------------------------
	 SCS Same-Spin Scale       =       0.3333333333333333 [-]
	 SCS Opposite-Spin Scale   =       1.2000000000000000 [-]
	 SCS Same-Spin Energy      =      -0.1305231963462259 [Eh]
	 SCS Opposite-Spin Energy  =      -1.5145594642462343 [Eh]
	 SCS Correlation Energy    =      -1.6450826605924602 [Eh]
	 SCS Total Energy          =    -383.9505749092657538 [Eh]
	-----------------------------------------------------------

  Dipole Moment: [D]
     X:    10.5286      Y:    -0.6579      Z:     1.5978     Total:    10.6695

*** Psi4 exiting successfully. Buy a developer a beer!
