                               Psi4 1.3.2 release

  ==> Input File <==

--------------------------------------------------------------------------
#psi4
#
memory 32 gb

molecule  {
-1 1
  O       -2.9259140    -0.9099280    -0.5693610
  O       -2.5318610     1.2678500    -0.0507790
  C        2.5515340     0.1562790    -0.6847320
  C        1.2751047    -0.4385376    -0.1633014
  C        0.1996320     0.2215300     0.2212070
  C       -1.0388440    -0.3710000     0.8261750
  C        3.7962193     0.1021153     0.2078713
  C       -2.2854840     0.0250790    -0.0044070
  H        2.8053070    -0.3466590    -1.6276820
  H        2.3518550     1.2059430    -0.9306210
  H        1.3523840    -1.5323490     0.0963350
  H        0.1538580     1.2934970     0.0216010
  H       -0.9504340    -1.4608690     0.8884060
  H       -1.1707130     0.0247460     1.8437960
  H        3.9732670    -0.9779260     0.5120620
  H        3.5426510     0.5954950     1.1964510
  H        4.6498360     0.5017940    -0.1852730
units angstrom
no_reorient  #important for SAPT in psi4, default
symmetry c1  #important for SAPT in psi4, default
}

set PROPERTIES_ORIGIN ["COM"]
properties('MP2/aug-cc-pvtz', properties = ['dipole'])
--------------------------------------------------------------------------

    Molecular point group: c1
  Charge       = -1
  Multiplicity = 1
  Basis Set: AUG-CC-PVTZ
    Blend: AUG-CC-PVTZ
  Basis Set: (AUG-CC-PVTZ AUX)
    Blend: AUG-CC-PVTZ-JKFIT

    Orbital Energies [Eh]
    ---------------------

    Doubly Occupied:

       1A    -20.297918     2A    -20.295976     3A    -11.144313
       4A    -11.126649     5A    -11.122067     6A    -11.098467
       7A    -11.096577     8A    -11.070507     9A     -1.165716
      10A     -1.064859    11A     -0.970221    12A     -0.904450
      13A     -0.810520    14A     -0.726609    15A     -0.615682
      16A     -0.533520    17A     -0.511564    18A     -0.507878
      19A     -0.462162    20A     -0.442374    21A     -0.432884
      22A     -0.411334    23A     -0.401825    24A     -0.379034
      25A     -0.366295    26A     -0.344431    27A     -0.324212
      28A     -0.244001    29A     -0.211207    30A     -0.195618
      31A     -0.191208

  @DF-RHF Final Energy:  -382.32253343200369

   => Energetics <=

    Nuclear Repulsion Energy =            338.7777989959973866
    One-Electron Energy =               -1203.2605052393023470
    Two-Electron Energy =                 482.1601728113012655
    Total Energy =                       -382.3225334320036950
  Basis Set: (AUG-CC-PVTZ AUX)
    Blend: AUG-CC-PVTZ-RI
    Molecular point group: c1

    Geometry (in Angstrom), charge = -1, multiplicity = 1:

       Center              X                  Y                   Z               Mass
    ------------   -----------------  -----------------  -----------------  -----------------
         O           -2.780151464068    -0.922034318415    -0.540561723496    15.994914619570
         O           -2.386098464068     1.255743681585    -0.021979723496    15.994914619570
         C            2.697296535932     0.144172681585    -0.655932723496    12.000000000000
         C            1.420867235932    -0.450643918415    -0.134502123496    12.000000000000
         C            0.345394535932     0.209423681585     0.250006276504    12.000000000000
         C           -0.893081464068    -0.383106318415     0.854974276504    12.000000000000
         C            3.941981835932     0.090008981585     0.236670576504    12.000000000000
         C           -2.139721464068     0.012972681585     0.024392276504    12.000000000000
         H            2.951069535932    -0.358765318415    -1.598882723496     1.007825032230
         H            2.497617535932     1.193836681585    -0.901821723496     1.007825032230
         H            1.498146535932    -1.544455318415     0.125134276504     1.007825032230
         H            0.299620535932     1.281390681585     0.050400276504     1.007825032230
         H           -0.804671464068    -1.472975318415     0.917205276504     1.007825032230
         H           -1.024950464068     0.012639681585     1.872595276504     1.007825032230
         H            4.119029535932    -0.990032318415     0.540861276504     1.007825032230
         H            3.688413535932     0.583388681585     1.225250276504     1.007825032230
         H            4.795598535932     0.489687681585    -0.156473723496     1.007825032230

  Basis Set: AUG-CC-PVTZ
    Blend: AUG-CC-PVTZ
  Basis Set: (AUG-CC-PVTZ AUX)
    Blend: AUG-CC-PVTZ-JKFIT
	 Reference Energy          =    -382.3225334320036950 [Eh]
	 Singles Energy            =      -0.0000000000000000 [Eh]
	 Same-Spin Energy          =      -0.3909856509508828 [Eh]
	 Opposite-Spin Energy      =      -1.2596854063291434 [Eh]
	 Correlation Energy        =      -1.6506710572800261 [Eh]
	 Total Energy              =    -383.9732044892837166 [Eh]

	 ================> DF-SCS-MP2 Energies <==================
	-----------------------------------------------------------
	 SCS Same-Spin Scale       =       0.3333333333333333 [-]
	 SCS Opposite-Spin Scale   =       1.2000000000000000 [-]
	 SCS Same-Spin Energy      =      -0.1303285503169609 [Eh]
	 SCS Opposite-Spin Energy  =      -1.5116224875949720 [Eh]
	 SCS Correlation Energy    =      -1.6419510379119329 [Eh]
	 SCS Total Energy          =    -383.9644844699156465 [Eh]
	-----------------------------------------------------------

  Dipole Moment: [D]
     X:    10.7396      Y:    -0.6184      Z:     1.6725     Total:    10.8866

*** Psi4 exiting successfully. Buy a developer a beer!
