                               Psi4 1.3.2 release

  ==> Input File <==

--------------------------------------------------------------------------
#psi4
#
memory 32 gb

molecule  {
-1 1
  O       -2.9259140    -0.9099280    -0.5693610
  O       -2.5318610     1.2678500    -0.0507790
  C        2.5515340     0.1562790    -0.6847320
  C        1.3133740    -0.4576390    -0.0973370
  C        0.1996320     0.2215300     0.2212070
  C       -1.1318722    -0.3675735     0.8626991
  C        3.7521530     0.0645780     0.2634350
  C       -2.2854840     0.0250790    -0.0044070
  H        2.8053070    -0.3466590    -1.6276820
  H        2.3518550     1.2059430    -0.9306210
  H        1.3523840    -1.5323490     0.0963350
  H        0.1538580     1.2934970     0.0216010
  H       -0.9504340    -1.4608690     0.8884060
  H       -1.1707130     0.0247460     1.8437960
  H        3.9732670    -0.9779260     0.5120620
  H        3.5426510     0.5954950     1.1964510
  H        4.6498360     0.5017940    -0.1852730
units angstrom
no_reorient  #important for SAPT in psi4, default
symmetry c1  #important for SAPT in psi4, default
}

set PROPERTIES_ORIGIN ["COM"]
properties('MP2/aug-cc-pvtz', properties = ['dipole'])
--------------------------------------------------------------------------

    Molecular point group: c1
  Charge       = -1
  Multiplicity = 1
  Basis Set: AUG-CC-PVTZ
    Blend: AUG-CC-PVTZ
  Basis Set: (AUG-CC-PVTZ AUX)
    Blend: AUG-CC-PVTZ-JKFIT

    Orbital Energies [Eh]
    ---------------------

    Doubly Occupied:

       1A    -20.295520     2A    -20.294016     3A    -11.139583
       4A    -11.124365     5A    -11.122435     6A    -11.103949
       7A    -11.097765     8A    -11.071838     9A     -1.165965
      10A     -1.063825    11A     -0.967305    12A     -0.893173
      13A     -0.809936    14A     -0.726707    15A     -0.621216
      16A     -0.538636    17A     -0.514116    18A     -0.501090
      19A     -0.448403    20A     -0.445065    21A     -0.436901
      22A     -0.415580    23A     -0.403287    24A     -0.383988
      25A     -0.373675    26A     -0.344285    27A     -0.310093
      28A     -0.235895    29A     -0.209665    30A     -0.197849
      31A     -0.194059

  @DF-RHF Final Energy:  -382.32507111742558

   => Energetics <=

    Nuclear Repulsion Energy =            338.4424640681768324
    One-Electron Energy =               -1202.6347020419395903
    Two-Electron Energy =                 481.8671668563371782
    Total Energy =                       -382.3250711174255798
  Basis Set: (AUG-CC-PVTZ AUX)
    Blend: AUG-CC-PVTZ-RI
    Molecular point group: c1

    Geometry (in Angstrom), charge = -1, multiplicity = 1:

       Center              X                  Y                   Z               Mass
    ------------   -----------------  -----------------  -----------------  -----------------
         O           -2.769662345634    -0.916386476893    -0.557337082864    15.994914619570
         O           -2.375609345634     1.261391523107    -0.038755082864    15.994914619570
         C            2.707785654366     0.149820523107    -0.672708082864    12.000000000000
         C            1.469625654366    -0.464097476893    -0.085313082864    12.000000000000
         C            0.355883654366     0.215071523107     0.233230917136    12.000000000000
         C           -0.975620545634    -0.374031976893     0.874723017136    12.000000000000
         C            3.908404654366     0.058119523107     0.275458917136    12.000000000000
         C           -2.129232345634     0.018620523107     0.007616917136    12.000000000000
         H            2.961558654366    -0.353117476893    -1.615658082864     1.007825032230
         H            2.508106654366     1.199484523107    -0.918597082864     1.007825032230
         H            1.508635654366    -1.538807476893     0.108358917136     1.007825032230
         H            0.310109654366     1.287038523107     0.033624917136     1.007825032230
         H           -0.794182345634    -1.467327476893     0.900429917136     1.007825032230
         H           -1.014461345634     0.018287523107     1.855819917136     1.007825032230
         H            4.129518654366    -0.984384476893     0.524085917136     1.007825032230
         H            3.698902654366     0.589036523107     1.208474917136     1.007825032230
         H            4.806087654366     0.495335523107    -0.173249082864     1.007825032230

  Basis Set: AUG-CC-PVTZ
    Blend: AUG-CC-PVTZ
  Basis Set: (AUG-CC-PVTZ AUX)
    Blend: AUG-CC-PVTZ-JKFIT
	 Reference Energy          =    -382.3250711174255798 [Eh]
	 Singles Energy            =      -0.0000000000000000 [Eh]
	 Same-Spin Energy          =      -0.3905524533860364 [Eh]
	 Opposite-Spin Energy      =      -1.2597885704427612 [Eh]
	 Correlation Energy        =      -1.6503410238287977 [Eh]
	 Total Energy              =    -383.9754121412543668 [Eh]

	 ================> DF-SCS-MP2 Energies <==================
	-----------------------------------------------------------
	 SCS Same-Spin Scale       =       0.3333333333333333 [-]
	 SCS Opposite-Spin Scale   =       1.2000000000000000 [-]
	 SCS Same-Spin Energy      =      -0.1301841511286788 [Eh]
	 SCS Opposite-Spin Energy  =      -1.5117462845313134 [Eh]
	 SCS Correlation Energy    =      -1.6419304356599922 [Eh]
	 SCS Total Energy          =    -383.9670015530855949 [Eh]
	-----------------------------------------------------------

  Dipole Moment: [D]
     X:    10.8408      Y:    -0.7298      Z:     1.7532     Total:    11.0059

*** Psi4 exiting successfully. Buy a developer a beer!
