                               Psi4 1.3.2 release

  ==> Input File <==

--------------------------------------------------------------------------
#psi4
#
memory 32 gb

molecule  {
-1 1
  O       -2.9259140    -0.9099280    -0.5693610
  O       -2.5318610     1.2678500    -0.0507790
  C        2.5458356     0.1680706    -0.6842732
  C        1.3133740    -0.4576390    -0.0973370
  C        0.1996320     0.2215300     0.2212070
  C       -1.0391973    -0.3491725     0.8229639
  C        3.7521530     0.0645780     0.2634350
  C       -2.2854840     0.0250790    -0.0044070
  H        2.8053070    -0.3466590    -1.6276820
  H        2.3518550     1.2059430    -0.9306210
  H        1.3523840    -1.5323490     0.0963350
  H        0.1538580     1.2934970     0.0216010
  H       -0.9504340    -1.4608690     0.8884060
  H       -1.1707130     0.0247460     1.8437960
  H        3.9732670    -0.9779260     0.5120620
  H        3.5426510     0.5954950     1.1964510
  H        4.6498360     0.5017940    -0.1852730
units angstrom
no_reorient  #important for SAPT in psi4, default
symmetry c1  #important for SAPT in psi4, default
}

set PROPERTIES_ORIGIN ["COM"]
properties('MP2/aug-cc-pvtz', properties = ['dipole'])
--------------------------------------------------------------------------

    Molecular point group: c1
  Charge       = -1
  Multiplicity = 1
  Basis Set: AUG-CC-PVTZ
    Blend: AUG-CC-PVTZ
  Basis Set: (AUG-CC-PVTZ AUX)
    Blend: AUG-CC-PVTZ-JKFIT

    Orbital Energies [Eh]
    ---------------------

    Doubly Occupied:

       1A    -20.297987     2A    -20.295283     3A    -11.143460
       4A    -11.123985     5A    -11.121570     6A    -11.099705
       7A    -11.096265     8A    -11.070110     9A     -1.165705
      10A     -1.064696    11A     -0.969086    12A     -0.901205
      13A     -0.807490    14A     -0.722860    15A     -0.623139
      16A     -0.533868    17A     -0.514095    18A     -0.500923
      19A     -0.454449    20A     -0.442219    21A     -0.433577
      22A     -0.413506    23A     -0.401546    24A     -0.384183
      25A     -0.373949    26A     -0.344582    27A     -0.324882
      28A     -0.238351    29A     -0.210435    30A     -0.195339
      31A     -0.189834

  @DF-RHF Final Energy:  -382.33209788046253

   => Energetics <=

    Nuclear Repulsion Energy =            339.0141251270435987
    One-Electron Energy =               -1203.7758766324575390
    Two-Electron Energy =                 482.4296536249514133
    Total Energy =                       -382.3320978804625270
  Basis Set: (AUG-CC-PVTZ AUX)
    Blend: AUG-CC-PVTZ-RI
    Molecular point group: c1

    Geometry (in Angstrom), charge = -1, multiplicity = 1:

       Center              X                  Y                   Z               Mass
    ------------   -----------------  -----------------  -----------------  -----------------
         O           -2.778893865626    -0.919591061931    -0.553168360602    15.994914619570
         O           -2.384840865626     1.258186938069    -0.034586360602    15.994914619570
         C            2.692855734374     0.158407538069    -0.668080560602    12.000000000000
         C            1.460394134374    -0.467302061931    -0.081144360602    12.000000000000
         C            0.346652134374     0.211866938069     0.237399639398    12.000000000000
         C           -0.892177165626    -0.358835561931     0.839156539398    12.000000000000
         C            3.899173134374     0.054914938069     0.279627639398    12.000000000000
         C           -2.138463865626     0.015415938069     0.011785639398    12.000000000000
         H            2.952327134374    -0.356322061931    -1.611489360602     1.007825032230
         H            2.498875134374     1.196279938069    -0.914428360602     1.007825032230
         H            1.499404134374    -1.542012061931     0.112527639398     1.007825032230
         H            0.300878134374     1.283833938069     0.037793639398     1.007825032230
         H           -0.803413865626    -1.470532061931     0.904598639398     1.007825032230
         H           -1.023692865626     0.015082938069     1.859988639398     1.007825032230
         H            4.120287134374    -0.987589061931     0.528254639398     1.007825032230
         H            3.689671134374     0.585831938069     1.212643639398     1.007825032230
         H            4.796856134374     0.492130938069    -0.169080360602     1.007825032230

  Basis Set: AUG-CC-PVTZ
    Blend: AUG-CC-PVTZ
  Basis Set: (AUG-CC-PVTZ AUX)
    Blend: AUG-CC-PVTZ-JKFIT
	 Reference Energy          =    -382.3320978804625270 [Eh]
	 Singles Energy            =      -0.0000000000000000 [Eh]
	 Same-Spin Energy          =      -0.3910213875373485 [Eh]
	 Opposite-Spin Energy      =      -1.2597261068513583 [Eh]
	 Correlation Energy        =      -1.6507474943887068 [Eh]
	 Total Energy              =    -383.9828453748512516 [Eh]

	 ================> DF-SCS-MP2 Energies <==================
	-----------------------------------------------------------
	 SCS Same-Spin Scale       =       0.3333333333333333 [-]
	 SCS Opposite-Spin Scale   =       1.2000000000000000 [-]
	 SCS Same-Spin Energy      =      -0.1303404625124495 [Eh]
	 SCS Opposite-Spin Energy  =      -1.5116713282216299 [Eh]
	 SCS Correlation Energy    =      -1.6420117907340794 [Eh]
	 SCS Total Energy          =    -383.9741096711966293 [Eh]
	-----------------------------------------------------------

  Dipole Moment: [D]
     X:    10.7185      Y:    -0.6820      Z:     1.6653     Total:    10.8685

*** Psi4 exiting successfully. Buy a developer a beer!
