                               Psi4 1.3.2 release

  ==> Input File <==

--------------------------------------------------------------------------
#psi4
#
memory 32 gb

molecule  {
-1 1
  O       -2.9259140    -0.9099280    -0.5693610
  O       -2.5318610     1.2678500    -0.0507790
  C        2.5515340     0.1562790    -0.6847320
  C        1.3133740    -0.4576390    -0.0973370
  C        0.1996320     0.2215300     0.2212070
  C       -1.0388440    -0.3710000     0.8261750
  C        3.7521530     0.0645780     0.2634350
  C       -2.3847672     0.0172306    -0.0134205
  H        2.8053070    -0.3466590    -1.6276820
  H        2.3518550     1.2059430    -0.9306210
  H        1.3523840    -1.5323490     0.0963350
  H        0.1538580     1.2934970     0.0216010
  H       -0.9504340    -1.4608690     0.8884060
  H       -1.1707130     0.0247460     1.8437960
  H        3.9732670    -0.9779260     0.5120620
  H        3.5426510     0.5954950     1.1964510
  H        4.6498360     0.5017940    -0.1852730
units angstrom
no_reorient  #important for SAPT in psi4, default
symmetry c1  #important for SAPT in psi4, default
}

set PROPERTIES_ORIGIN ["COM"]
properties('MP2/aug-cc-pvtz', properties = ['dipole'])
--------------------------------------------------------------------------

    Molecular point group: c1
  Charge       = -1
  Multiplicity = 1
  Basis Set: AUG-CC-PVTZ
    Blend: AUG-CC-PVTZ
  Basis Set: (AUG-CC-PVTZ AUX)
    Blend: AUG-CC-PVTZ-JKFIT

    Orbital Energies [Eh]
    ---------------------

    Doubly Occupied:

       1A    -20.309892     2A    -20.295974     3A    -11.145855
       4A    -11.120445     5A    -11.117584     6A    -11.094795
       7A    -11.089179     8A    -11.059504     9A     -1.191823
      10A     -1.090081    11A     -0.963637    12A     -0.892122
      13A     -0.794038    14A     -0.713519    15A     -0.615853
      16A     -0.525394    17A     -0.508878    18A     -0.497262
      19A     -0.448033    20A     -0.440732    21A     -0.431427
      22A     -0.412610    23A     -0.411453    24A     -0.383077
      25A     -0.374768    26A     -0.350563    27A     -0.332824
      28A     -0.237966    29A     -0.220893    30A     -0.208307
      31A     -0.171956

  @DF-RHF Final Energy:  -382.33093202765070

   => Energetics <=

    Nuclear Repulsion Energy =            338.5517161207597496
    One-Electron Energy =               -1202.8644097521605545
    Two-Electron Energy =                 481.9817616037501580
    Total Energy =                       -382.3309320276507037
  Basis Set: (AUG-CC-PVTZ AUX)
    Blend: AUG-CC-PVTZ-RI
    Molecular point group: c1

    Geometry (in Angstrom), charge = -1, multiplicity = 1:

       Center              X                  Y                   Z               Mass
    ------------   -----------------  -----------------  -----------------  -----------------
         O           -2.768998451852    -0.915189780490    -0.552503808764    15.994914619570
         O           -2.374945451852     1.262588219510    -0.033921808764    15.994914619570
         C            2.708449548148     0.151017219510    -0.667874808764    12.000000000000
         C            1.470289548148    -0.462900780490    -0.080479808764    12.000000000000
         C            0.356547548148     0.216268219510     0.238064191236    12.000000000000
         C           -0.881928451852    -0.376261780490     0.843032191236    12.000000000000
         C            3.909068548148     0.059316219510     0.280292191236    12.000000000000
         C           -2.227851651852     0.011968819510     0.003436691236    12.000000000000
         H            2.962222548148    -0.351920780490    -1.610824808764     1.007825032230
         H            2.508770548148     1.200681219510    -0.913763808764     1.007825032230
         H            1.509299548148    -1.537610780490     0.113192191236     1.007825032230
         H            0.310773548148     1.288235219510     0.038458191236     1.007825032230
         H           -0.793518451852    -1.466130780490     0.905263191236     1.007825032230
         H           -1.013797451852     0.019484219510     1.860653191236     1.007825032230
         H            4.130182548148    -0.983187780490     0.528919191236     1.007825032230
         H            3.699566548148     0.590233219510     1.213308191236     1.007825032230
         H            4.806751548148     0.496532219510    -0.168415808764     1.007825032230

  Basis Set: AUG-CC-PVTZ
    Blend: AUG-CC-PVTZ
  Basis Set: (AUG-CC-PVTZ AUX)
    Blend: AUG-CC-PVTZ-JKFIT
	 Reference Energy          =    -382.3309320276507037 [Eh]
	 Singles Energy            =      -0.0000000000000000 [Eh]
	 Same-Spin Energy          =      -0.3902407860021748 [Eh]
	 Opposite-Spin Energy      =      -1.2574505116537296 [Eh]
	 Correlation Energy        =      -1.6476912976559044 [Eh]
	 Total Energy              =    -383.9786233253066143 [Eh]

	 ================> DF-SCS-MP2 Energies <==================
	-----------------------------------------------------------
	 SCS Same-Spin Scale       =       0.3333333333333333 [-]
	 SCS Opposite-Spin Scale   =       1.2000000000000000 [-]
	 SCS Same-Spin Energy      =      -0.1300802620007249 [Eh]
	 SCS Opposite-Spin Energy  =      -1.5089406139844754 [Eh]
	 SCS Correlation Energy    =      -1.6390208759852003 [Eh]
	 SCS Total Energy          =    -383.9699529036358854 [Eh]
	-----------------------------------------------------------

  Dipole Moment: [D]
     X:     9.9426      Y:    -0.8430      Z:     1.3353     Total:    10.0672

*** Psi4 exiting successfully. Buy a developer a beer!
