                               Psi4 1.4a3.dev225

  ==> Input File <==

--------------------------------------------------------------------------
#psi4
#
memory 32 gb

molecule  {
-1 1
  O       -3.0493610    -0.8021490    -0.5876160
  O       -2.4328600     1.2902580     0.0530700
  C        2.5553900     0.3550440    -0.5884220
  C        1.3085550    -0.3848960    -0.2000760
  C        0.2108510     0.1869800     0.3208840
  C       -1.0406500    -0.5396790     0.7060670
  C        3.7725750    -0.0944570     0.2252300
  C       -2.2894080     0.0326700    -0.0161130
  H        2.7644980     0.1992670    -1.6554110
  H        2.3954460     1.4315290    -0.4528260
  H        1.3245080    -1.4678690    -0.3463610
  H        0.1908498     1.2479169     0.4594621
  H       -0.9472880    -1.6102600     0.4951310
  H       -1.2137680    -0.4258540     1.7866990
  H        3.9502020    -1.1668590     0.0980420
  H        3.6128950     0.0963670     1.2904210
  H        4.6769210     0.4370950    -0.0868020
units angstrom
no_reorient  #important for SAPT in psi4, default
symmetry c1  #important for SAPT in psi4, default
}

set PROPERTIES_ORIGIN ["COM"]
properties('MP2/aug-cc-pvtz', properties = ['dipole'])
--------------------------------------------------------------------------

    Molecular point group: c1
  Charge       = -1
  Multiplicity = 1
  Basis Set: AUG-CC-PVTZ
    Blend: AUG-CC-PVTZ
  Basis Set: (AUG-CC-PVTZ AUX)
    Blend: AUG-CC-PVTZ-JKFIT

    Orbital Energies [Eh]
    ---------------------

    Doubly Occupied:

       1A    -20.297861     2A    -20.296154     3A    -11.144400
       4A    -11.123455     5A    -11.120806     6A    -11.096635
       7A    -11.094493     8A    -11.069054     9A     -1.165964
      10A     -1.065451    11A     -0.968838    12A     -0.900946
      13A     -0.806319    14A     -0.722182    15A     -0.624887
      16A     -0.532732    17A     -0.513653    18A     -0.502143
      19A     -0.453033    20A     -0.442843    21A     -0.433155
      22A     -0.414679    23A     -0.402388    24A     -0.382770
      25A     -0.375617    26A     -0.346236    27A     -0.324104
      28A     -0.238726    29A     -0.211825    30A     -0.196279
      31A     -0.187878

  @DF-RHF Final Energy:  -382.33379936065825

   => Energetics <=

    Nuclear Repulsion Energy =            338.7731996573959350
    One-Electron Energy =               -1203.3029871016153720
    Two-Electron Energy =                 482.1959880835611898
    Total Energy =                       -382.3337993606582472
  Basis Set: (AUG-CC-PVTZ AUX)
    Blend: AUG-CC-PVTZ-RI
    Molecular point group: c1

    Geometry (in Angstrom), charge = -1, multiplicity = 1:

       Center              X                  Y                   Z               Mass
    ------------   -----------------  -----------------  -----------------  -----------------
         O           -2.902584978351    -0.812821977648    -0.573655359216    15.994914619570
         O           -2.286083978351     1.279585022352     0.067030640784    15.994914619570
         C            2.702166021649     0.344371022352    -0.574461359216    12.000000000000
         C            1.455331021649    -0.395568977648    -0.186115359216    12.000000000000
         C            0.357627021649     0.176307022352     0.334844640784    12.000000000000
         C           -0.893873978351    -0.550351977648     0.720027640784    12.000000000000
         C            3.919351021649    -0.105129977648     0.239190640784    12.000000000000
         C           -2.142631978351     0.021997022352    -0.002152359216    12.000000000000
         H            2.911274021649     0.188594022352    -1.641450359216     1.007825032230
         H            2.542222021649     1.420856022352    -0.438865359216     1.007825032230
         H            1.471284021649    -1.478541977648    -0.332400359216     1.007825032230
         H            0.337625821649     1.237243922352     0.473422740784     1.007825032230
         H           -0.800511978351    -1.620932977648     0.509091640784     1.007825032230
         H           -1.066991978351    -0.436526977648     1.800659640784     1.007825032230
         H            4.096978021649    -1.177531977648     0.112002640784     1.007825032230
         H            3.759671021649     0.085694022352     1.304381640784     1.007825032230
         H            4.823697021649     0.426422022352    -0.072841359216     1.007825032230

  Basis Set: AUG-CC-PVTZ
    Blend: AUG-CC-PVTZ
  Basis Set: (AUG-CC-PVTZ AUX)
    Blend: AUG-CC-PVTZ-JKFIT
	 Reference Energy          =    -382.3337993606582472 [Eh]
	 Singles Energy            =      -0.0000000000000000 [Eh]
	 Same-Spin Energy          =      -0.3908460379649848 [Eh]
	 Opposite-Spin Energy      =      -1.2592488479487143 [Eh]
	 Correlation Energy        =      -1.6500948859136990 [Eh]
	 Total Energy              =    -383.9838942465719356 [Eh]

	 ================> DF-SCS-MP2 Energies <==================
	-----------------------------------------------------------
	 SCS Same-Spin Scale       =       0.3333333333333333 [-]
	 SCS Opposite-Spin Scale   =       1.2000000000000000 [-]
	 SCS Same-Spin Energy      =      -0.1302820126549949 [Eh]
	 SCS Opposite-Spin Energy  =      -1.5110986175384571 [Eh]
	 SCS Correlation Energy    =      -1.6413806301934519 [Eh]
	 SCS Total Energy          =    -383.9751799908517000 [Eh]
	-----------------------------------------------------------

  Dipole Moment: [D]
     X:    10.7321      Y:    -1.0127      Z:     1.4698     Total:    10.8795

*** Psi4 exiting successfully. Buy a developer a beer!
