                               Psi4 1.4a3.dev225

  ==> Input File <==

--------------------------------------------------------------------------
#psi4
#
memory 32 gb

molecule  {
-1 1
  O       -3.0493610    -0.8021490    -0.5876160
  O       -2.4328600     1.2902580     0.0530700
  C        2.5553900     0.3550440    -0.5884220
  C        1.3085550    -0.3848960    -0.2000760
  C        0.2108510     0.1869800     0.3208840
  C       -1.0824350    -0.5639406     0.7189274
  C        3.7725750    -0.0944570     0.2252300
  C       -2.2894080     0.0326700    -0.0161130
  H        2.7644980     0.1992670    -1.6554110
  H        2.3954460     1.4315290    -0.4528260
  H        1.3245080    -1.4678690    -0.3463610
  H        0.1904760     1.2677450     0.4620520
  H       -0.9472880    -1.6102600     0.4951310
  H       -1.2137680    -0.4258540     1.7866990
  H        3.9502020    -1.1668590     0.0980420
  H        3.6128950     0.0963670     1.2904210
  H        4.6769210     0.4370950    -0.0868020
units angstrom
no_reorient  #important for SAPT in psi4, default
symmetry c1  #important for SAPT in psi4, default
}

set PROPERTIES_ORIGIN ["COM"]
properties('MP2/aug-cc-pvtz', properties = ['dipole'])
--------------------------------------------------------------------------

    Molecular point group: c1
  Charge       = -1
  Multiplicity = 1
  Basis Set: AUG-CC-PVTZ
    Blend: AUG-CC-PVTZ
  Basis Set: (AUG-CC-PVTZ AUX)
    Blend: AUG-CC-PVTZ-JKFIT

    Orbital Energies [Eh]
    ---------------------

    Doubly Occupied:

       1A    -20.296340     2A    -20.296014     3A    -11.142705
       4A    -11.123499     5A    -11.120882     6A    -11.100548
       7A    -11.095080     8A    -11.069465     9A     -1.165912
      10A     -1.065000    11A     -0.967268    12A     -0.895902
      13A     -0.807115    14A     -0.723664    15A     -0.621462
      16A     -0.533577    17A     -0.513092    18A     -0.501183
      19A     -0.449004    20A     -0.444546    21A     -0.434792
      22A     -0.414301    23A     -0.402635    24A     -0.383827
      25A     -0.376458    26A     -0.344422    27A     -0.319460
      28A     -0.236892    29A     -0.211833    30A     -0.195982
      31A     -0.190808

  @DF-RHF Final Energy:  -382.33204264665807

   => Energetics <=

    Nuclear Repulsion Energy =            338.3421555169288126
    One-Electron Energy =               -1202.4610613300988007
    Two-Electron Energy =                 481.7868631665118642
    Total Energy =                       -382.3320426466580670
  Basis Set: (AUG-CC-PVTZ AUX)
    Blend: AUG-CC-PVTZ-RI
    Molecular point group: c1

    Geometry (in Angstrom), charge = -1, multiplicity = 1:

       Center              X                  Y                   Z               Mass
    ------------   -----------------  -----------------  -----------------  -----------------
         O           -2.898146665992    -0.810423646372    -0.575043424074    15.994914619570
         O           -2.281645665992     1.281983353628     0.065642575926    15.994914619570
         C            2.706604334008     0.346769353628    -0.575849424074    12.000000000000
         C            1.459769334008    -0.393170646372    -0.187503424074    12.000000000000
         C            0.362065334008     0.178705353628     0.333456575926    12.000000000000
         C           -0.931220665992    -0.572215246372     0.731499975926    12.000000000000
         C            3.923789334008    -0.102731646372     0.237802575926    12.000000000000
         C           -2.138193665992     0.024395353628    -0.003540424074    12.000000000000
         H            2.915712334008     0.190992353628    -1.642838424074     1.007825032230
         H            2.546660334008     1.423254353628    -0.440253424074     1.007825032230
         H            1.475722334008    -1.476143646372    -0.333788424074     1.007825032230
         H            0.341690334008     1.259470353628     0.474624575926     1.007825032230
         H           -0.796073665992    -1.618534646372     0.507703575926     1.007825032230
         H           -1.062553665992    -0.434128646372     1.799271575926     1.007825032230
         H            4.101416334008    -1.175133646372     0.110614575926     1.007825032230
         H            3.764109334008     0.088092353628     1.302993575926     1.007825032230
         H            4.828135334008     0.428820353628    -0.074229424074     1.007825032230

  Basis Set: AUG-CC-PVTZ
    Blend: AUG-CC-PVTZ
  Basis Set: (AUG-CC-PVTZ AUX)
    Blend: AUG-CC-PVTZ-JKFIT
	 Reference Energy          =    -382.3320426466580670 [Eh]
	 Singles Energy            =      -0.0000000000000000 [Eh]
	 Same-Spin Energy          =      -0.3905216594584292 [Eh]
	 Opposite-Spin Energy      =      -1.2591670554953858 [Eh]
	 Correlation Energy        =      -1.6496887149538151 [Eh]
	 Total Energy              =    -383.9817313616118781 [Eh]

	 ================> DF-SCS-MP2 Energies <==================
	-----------------------------------------------------------
	 SCS Same-Spin Scale       =       0.3333333333333333 [-]
	 SCS Opposite-Spin Scale   =       1.2000000000000000 [-]
	 SCS Same-Spin Energy      =      -0.1301738864861431 [Eh]
	 SCS Opposite-Spin Energy  =      -1.5110004665944630 [Eh]
	 SCS Correlation Energy    =      -1.6411743530806060 [Eh]
	 SCS Total Energy          =    -383.9732169997386677 [Eh]
	-----------------------------------------------------------

  Dipole Moment: [D]
     X:    10.7721      Y:    -1.0536      Z:     1.5039     Total:    10.9275

*** Psi4 exiting successfully. Buy a developer a beer!
