                               Psi4 1.4a3.dev225

  ==> Input File <==

--------------------------------------------------------------------------
#psi4
#
memory 32 gb

molecule  {
-1 1
  O       -3.0493610    -0.8021490    -0.5876160
  O       -2.4328600     1.2902580     0.0530700
  C        2.5553900     0.3550440    -0.5884220
  C        1.3085550    -0.3848960    -0.2000760
  C        0.2108510     0.1869800     0.3208840
  C       -1.0406500    -0.5396790     0.7060670
  C        3.7725750    -0.0944570     0.2252300
  C       -2.2950663     0.0822738    -0.0133842
  H        2.7644980     0.1992670    -1.6554110
  H        2.3954460     1.4315290    -0.4528260
  H        1.3245080    -1.4678690    -0.3463610
  H        0.1904760     1.2677450     0.4620520
  H       -0.9472880    -1.6102600     0.4951310
  H       -1.2137680    -0.4258540     1.7866990
  H        3.9502020    -1.1668590     0.0980420
  H        3.6128950     0.0963670     1.2904210
  H        4.6769210     0.4370950    -0.0868020
units angstrom
no_reorient  #important for SAPT in psi4, default
symmetry c1  #important for SAPT in psi4, default
}

set PROPERTIES_ORIGIN ["COM"]
properties('MP2/aug-cc-pvtz', properties = ['dipole'])
--------------------------------------------------------------------------

    Molecular point group: c1
  Charge       = -1
  Multiplicity = 1
  Basis Set: AUG-CC-PVTZ
    Blend: AUG-CC-PVTZ
  Basis Set: (AUG-CC-PVTZ AUX)
    Blend: AUG-CC-PVTZ-JKFIT

    Orbital Energies [Eh]
    ---------------------

    Doubly Occupied:

       1A    -20.308093     2A    -20.288572     3A    -11.144144
       4A    -11.122950     5A    -11.120187     6A    -11.097804
       7A    -11.093556     8A    -11.066820     9A     -1.182337
      10A     -1.064433    11A     -0.967775    12A     -0.898993
      13A     -0.803308    14A     -0.719630    15A     -0.620943
      16A     -0.531219    17A     -0.513003    18A     -0.500622
      19A     -0.452448    20A     -0.442337    21A     -0.435922
      22A     -0.414647    23A     -0.401492    24A     -0.383945
      25A     -0.376854    26A     -0.346580    27A     -0.330295
      28A     -0.237717    29A     -0.215562    30A     -0.197463
      31A     -0.181478

  @DF-RHF Final Energy:  -382.33186668431728

   => Energetics <=

    Nuclear Repulsion Energy =            338.7834520667550464
    One-Electron Energy =               -1203.3083775465481722
    Two-Electron Energy =                 482.1930587954759062
    Total Energy =                       -382.3318666843172764
  Basis Set: (AUG-CC-PVTZ AUX)
    Blend: AUG-CC-PVTZ-RI
    Molecular point group: c1

    Geometry (in Angstrom), charge = -1, multiplicity = 1:

       Center              X                  Y                   Z               Mass
    ------------   -----------------  -----------------  -----------------  -----------------
         O           -2.901981085097    -0.818263579191    -0.573968075353    15.994914619570
         O           -2.285480085097     1.274143420809     0.066717924647    15.994914619570
         C            2.702769914903     0.338929420809    -0.574774075353    12.000000000000
         C            1.455934914903    -0.401010579191    -0.186428075353    12.000000000000
         C            0.358230914903     0.170865420809     0.334531924647    12.000000000000
         C           -0.893270085097    -0.555793579191     0.719714924647    12.000000000000
         C            3.919954914903    -0.110571579191     0.238877924647    12.000000000000
         C           -2.147686385097     0.066159220809     0.000263724647    12.000000000000
         H            2.911877914903     0.183152420809    -1.641763075353     1.007825032230
         H            2.542825914903     1.415414420809    -0.439178075353     1.007825032230
         H            1.471887914903    -1.483983579191    -0.332713075353     1.007825032230
         H            0.337855914903     1.251630420809     0.475699924647     1.007825032230
         H           -0.799908085097    -1.626374579191     0.508778924647     1.007825032230
         H           -1.066388085097    -0.441968579191     1.800346924647     1.007825032230
         H            4.097581914903    -1.182973579191     0.111689924647     1.007825032230
         H            3.760274914903     0.080252420809     1.304068924647     1.007825032230
         H            4.824300914903     0.420980420809    -0.073154075353     1.007825032230

  Basis Set: AUG-CC-PVTZ
    Blend: AUG-CC-PVTZ
  Basis Set: (AUG-CC-PVTZ AUX)
    Blend: AUG-CC-PVTZ-JKFIT
	 Reference Energy          =    -382.3318666843172764 [Eh]
	 Singles Energy            =      -0.0000000000000000 [Eh]
	 Same-Spin Energy          =      -0.3906709460355085 [Eh]
	 Opposite-Spin Energy      =      -1.2586924767773833 [Eh]
	 Correlation Energy        =      -1.6493634228128917 [Eh]
	 Total Energy              =    -383.9812301071301590 [Eh]

	 ================> DF-SCS-MP2 Energies <==================
	-----------------------------------------------------------
	 SCS Same-Spin Scale       =       0.3333333333333333 [-]
	 SCS Opposite-Spin Scale   =       1.2000000000000000 [-]
	 SCS Same-Spin Energy      =      -0.1302236486785028 [Eh]
	 SCS Opposite-Spin Energy  =      -1.5104309721328599 [Eh]
	 SCS Correlation Energy    =      -1.6406546208113628 [Eh]
	 SCS Total Energy          =    -383.9725213051286232 [Eh]
	-----------------------------------------------------------

  Dipole Moment: [D]
     X:    10.6922      Y:    -0.5312      Z:     1.5572     Total:    10.8180

*** Psi4 exiting successfully. Buy a developer a beer!
