                               Psi4 1.3.2 release

  ==> Input File <==

--------------------------------------------------------------------------
#psi4
#
memory 32 gb

molecule  {
-1 1
  O       -2.9259140    -0.9099280    -0.5693610
  O       -2.5534325     1.2633055    -0.0526834
  C        2.5515340     0.1562790    -0.6847320
  C        1.3133740    -0.4576390    -0.0973370
  C        0.2025924     0.1779583     0.2223088
  C       -1.0388440    -0.3710000     0.8261750
  C        3.7521530     0.0645780     0.2634350
  C       -2.2854840     0.0250790    -0.0044070
  H        2.8053070    -0.3466590    -1.6276820
  H        2.3518550     1.2059430    -0.9306210
  H        1.3523840    -1.5323490     0.0963350
  H        0.1538580     1.2934970     0.0216010
  H       -0.9504340    -1.4608690     0.8884060
  H       -1.1707130     0.0247460     1.8437960
  H        3.9732670    -0.9779260     0.5120620
  H        3.5426510     0.5954950     1.1964510
  H        4.6498360     0.5017940    -0.1852730
units angstrom
no_reorient  #important for SAPT in psi4, default
symmetry c1  #important for SAPT in psi4, default
}

set PROPERTIES_ORIGIN ["COM"]
properties('MP2/aug-cc-pvtz', properties = ['dipole'])
--------------------------------------------------------------------------

    Molecular point group: c1
  Charge       = -1
  Multiplicity = 1
  Basis Set: AUG-CC-PVTZ
    Blend: AUG-CC-PVTZ
  Basis Set: (AUG-CC-PVTZ AUX)
    Blend: AUG-CC-PVTZ-JKFIT

    Orbital Energies [Eh]
    ---------------------

    Doubly Occupied:

       1A    -20.296773     2A    -20.295469     3A    -11.144007
       4A    -11.124509     5A    -11.122647     6A    -11.099740
       7A    -11.093073     8A    -11.070213     9A     -1.165525
      10A     -1.063139    11A     -0.971870    12A     -0.904491
      13A     -0.810407    14A     -0.725617    15A     -0.615936
      16A     -0.535148    17A     -0.513698    18A     -0.501529
      19A     -0.455816    20A     -0.443338    21A     -0.433921
      22A     -0.416340    23A     -0.399246    24A     -0.385751
      25A     -0.373263    26A     -0.339457    27A     -0.325013
      28A     -0.242979    29A     -0.209696    30A     -0.194367
      31A     -0.191730

  @DF-RHF Final Energy:  -382.33106906409358

   => Energetics <=

    Nuclear Repulsion Energy =            339.0050572116506942
    One-Electron Energy =               -1203.7428330956306581
    Two-Electron Energy =                 482.4067068198864376
    Total Energy =                       -382.3310690640935832
  Basis Set: (AUG-CC-PVTZ AUX)
    Blend: AUG-CC-PVTZ-RI
    Molecular point group: c1

    Geometry (in Angstrom), charge = -1, multiplicity = 1:

       Center              X                  Y                   Z               Mass
    ------------   -----------------  -----------------  -----------------  -----------------
         O           -2.776798619143    -0.910755255806    -0.553308007242    15.994914619570
         O           -2.404317119143     1.262478244194    -0.036630407242    15.994914619570
         C            2.700649380857     0.155451744194    -0.668679007242    12.000000000000
         C            1.462489380857    -0.458466255806    -0.081284007242    12.000000000000
         C            0.351707780857     0.177131044194     0.238361792758    12.000000000000
         C           -0.889728619143    -0.371827255806     0.842227992758    12.000000000000
         C            3.901268380857     0.063750744194     0.279487992758    12.000000000000
         C           -2.136368619143     0.024251744194     0.011645992758    12.000000000000
         H            2.954422380857    -0.347486255806    -1.611629007242     1.007825032230
         H            2.500970380857     1.205115744194    -0.914568007242     1.007825032230
         H            1.501499380857    -1.533176255806     0.112387992758     1.007825032230
         H            0.302973380857     1.292669744194     0.037653992758     1.007825032230
         H           -0.801318619143    -1.461696255806     0.904458992758     1.007825032230
         H           -1.021597619143     0.023918744194     1.859848992758     1.007825032230
         H            4.122382380857    -0.978753255806     0.528114992758     1.007825032230
         H            3.691766380857     0.594667744194     1.212503992758     1.007825032230
         H            4.798951380857     0.500966744194    -0.169220007242     1.007825032230

  Basis Set: AUG-CC-PVTZ
    Blend: AUG-CC-PVTZ
  Basis Set: (AUG-CC-PVTZ AUX)
    Blend: AUG-CC-PVTZ-JKFIT
	 Reference Energy          =    -382.3310690640935832 [Eh]
	 Singles Energy            =      -0.0000000000000000 [Eh]
	 Same-Spin Energy          =      -0.3909725715898592 [Eh]
	 Opposite-Spin Energy      =      -1.2594283975005722 [Eh]
	 Correlation Energy        =      -1.6504009690904313 [Eh]
	 Total Energy              =    -383.9814700331839958 [Eh]

	 ================> DF-SCS-MP2 Energies <==================
	-----------------------------------------------------------
	 SCS Same-Spin Scale       =       0.3333333333333333 [-]
	 SCS Opposite-Spin Scale   =       1.2000000000000000 [-]
	 SCS Same-Spin Energy      =      -0.1303241905299531 [Eh]
	 SCS Opposite-Spin Energy  =      -1.5113140770006865 [Eh]
	 SCS Correlation Energy    =      -1.6416382675306396 [Eh]
	 SCS Total Energy          =    -383.9727073316242354 [Eh]
	-----------------------------------------------------------

  Dipole Moment: [D]
     X:    10.7705      Y:    -0.7484      Z:     1.6860     Total:    10.9274

*** Psi4 exiting successfully. Buy a developer a beer!
