                               Psi4 1.4a3.dev225

  ==> Input File <==

--------------------------------------------------------------------------
#psi4
#
memory 32 gb

molecule  {
-1 1
  O       -3.0493610    -0.8021490    -0.5876160
  O       -2.4328600     1.2902580     0.0530700
  C        2.5553900     0.3550440    -0.5884220
  C        1.3085550    -0.3848960    -0.2000760
  C        0.2108510     0.1869800     0.3208840
  C       -1.0406500    -0.5396790     0.7060670
  C        3.7725750    -0.0944570     0.2252300
  C       -2.2837497    -0.0169338    -0.0188418
  H        2.7644980     0.1992670    -1.6554110
  H        2.3954460     1.4315290    -0.4528260
  H        1.3245080    -1.4678690    -0.3463610
  H        0.1904760     1.2677450     0.4620520
  H       -0.9472880    -1.6102600     0.4951310
  H       -1.2137680    -0.4258540     1.7866990
  H        3.9502020    -1.1668590     0.0980420
  H        3.6128950     0.0963670     1.2904210
  H        4.6769210     0.4370950    -0.0868020
units angstrom
no_reorient  #important for SAPT in psi4, default
symmetry c1  #important for SAPT in psi4, default
}

set PROPERTIES_ORIGIN ["COM"]
properties('MP2/aug-cc-pvtz', properties = ['dipole'])
--------------------------------------------------------------------------

    Molecular point group: c1
  Charge       = -1
  Multiplicity = 1
  Basis Set: AUG-CC-PVTZ
    Blend: AUG-CC-PVTZ
  Basis Set: (AUG-CC-PVTZ AUX)
    Blend: AUG-CC-PVTZ-JKFIT

    Orbital Energies [Eh]
    ---------------------

    Doubly Occupied:

       1A    -20.307450     2A    -20.284619     3A    -11.144286
       4A    -11.123823     5A    -11.121248     6A    -11.099679
       7A    -11.095936     8A    -11.071603     9A     -1.169495
      10A     -1.050717    11A     -0.969252    12A     -0.901898
      13A     -0.809519    14A     -0.724136    15A     -0.623841
      16A     -0.535175    17A     -0.513169    18A     -0.502863
      19A     -0.454091    20A     -0.444192    21A     -0.434632
      22A     -0.415120    23A     -0.402227    24A     -0.383127
      25A     -0.374191    26A     -0.342647    27A     -0.322942
      28A     -0.239853    29A     -0.204505    30A     -0.193691
      31A     -0.189504

  @DF-RHF Final Energy:  -382.32857835578886

   => Energetics <=

    Nuclear Repulsion Energy =            338.6347721747114861
    One-Electron Energy =               -1203.0278458625157327
    Two-Electron Energy =                 482.0644953320153263
    Total Energy =                       -382.3285783557888635
  Basis Set: (AUG-CC-PVTZ AUX)
    Blend: AUG-CC-PVTZ-RI
    Molecular point group: c1

    Geometry (in Angstrom), charge = -1, multiplicity = 1:

       Center              X                  Y                   Z               Mass
    ------------   -----------------  -----------------  -----------------  -----------------
         O           -2.903182207460    -0.807733873549    -0.573388816088    15.994914619570
         O           -2.286681207460     1.284673126451     0.067297183912    15.994914619570
         C            2.701568792540     0.349459126451    -0.574194816088    12.000000000000
         C            1.454733792540    -0.390480873549    -0.185848816088    12.000000000000
         C            0.357029792540     0.181395126451     0.335111183912    12.000000000000
         C           -0.894471207460    -0.545263873549     0.720294183912    12.000000000000
         C            3.918753792540    -0.100041873549     0.239457183912    12.000000000000
         C           -2.137570907460    -0.022518673549    -0.004614616088    12.000000000000
         H            2.910676792540     0.193682126451    -1.641183816088     1.007825032230
         H            2.541624792540     1.425944126451    -0.438598816088     1.007825032230
         H            1.470686792540    -1.473453873549    -0.332133816088     1.007825032230
         H            0.336654792540     1.262160126451     0.476279183912     1.007825032230
         H           -0.801109207460    -1.615844873549     0.509358183912     1.007825032230
         H           -1.067589207460    -0.431438873549     1.800926183912     1.007825032230
         H            4.096380792540    -1.172443873549     0.112269183912     1.007825032230
         H            3.759073792540     0.090782126451     1.304648183912     1.007825032230
         H            4.823099792540     0.431510126451    -0.072574816088     1.007825032230

  Basis Set: AUG-CC-PVTZ
    Blend: AUG-CC-PVTZ
  Basis Set: (AUG-CC-PVTZ AUX)
    Blend: AUG-CC-PVTZ-JKFIT
	 Reference Energy          =    -382.3285783557888635 [Eh]
	 Singles Energy            =      -0.0000000000000000 [Eh]
	 Same-Spin Energy          =      -0.3911666156650041 [Eh]
	 Opposite-Spin Energy      =      -1.2601931530826820 [Eh]
	 Correlation Energy        =      -1.6513597687476862 [Eh]
	 Total Energy              =    -383.9799381245365453 [Eh]

	 ================> DF-SCS-MP2 Energies <==================
	-----------------------------------------------------------
	 SCS Same-Spin Scale       =       0.3333333333333333 [-]
	 SCS Opposite-Spin Scale   =       1.2000000000000000 [-]
	 SCS Same-Spin Energy      =      -0.1303888718883347 [Eh]
	 SCS Opposite-Spin Energy  =      -1.5122317836992183 [Eh]
	 SCS Correlation Energy    =      -1.6426206555875529 [Eh]
	 SCS Total Energy          =    -383.9711990113764273 [Eh]
	-----------------------------------------------------------

  Dipole Moment: [D]
     X:    10.7510      Y:    -1.4952      Z:     1.3834     Total:    10.9422

*** Psi4 exiting successfully. Buy a developer a beer!
