                               Psi4 1.4a3.dev225

  ==> Input File <==

--------------------------------------------------------------------------
#psi4
#
memory 32 gb

molecule  {
-1 1
  O       -3.0493610    -0.8021490    -0.5876160
  O       -2.4328600     1.2902580     0.0530700
  C        2.5553900     0.3550440    -0.5884220
  C        1.3085550    -0.3848960    -0.2000760
  C        0.2108510     0.1869800     0.3208840
  C       -1.0406500    -0.5396790     0.7060670
  C        3.7725750    -0.0944570     0.2252300
  C       -2.2916713     0.0525115    -0.0150215
  H        2.7644980     0.1992670    -1.6554110
  H        2.3954460     1.4315290    -0.4528260
  H        1.3245080    -1.4678690    -0.3463610
  H        0.1904760     1.2677450     0.4620520
  H       -0.9472880    -1.6102600     0.4951310
  H       -1.2137680    -0.4258540     1.7866990
  H        3.9502020    -1.1668590     0.0980420
  H        3.6128950     0.0963670     1.2904210
  H        4.6769210     0.4370950    -0.0868020
units angstrom
no_reorient  #important for SAPT in psi4, default
symmetry c1  #important for SAPT in psi4, default
}

set PROPERTIES_ORIGIN ["COM"]
properties('MP2/aug-cc-pvtz', properties = ['dipole'])
--------------------------------------------------------------------------

    Molecular point group: c1
  Charge       = -1
  Multiplicity = 1
  Basis Set: AUG-CC-PVTZ
    Blend: AUG-CC-PVTZ
  Basis Set: (AUG-CC-PVTZ AUX)
    Blend: AUG-CC-PVTZ-JKFIT

    Orbital Energies [Eh]
    ---------------------

    Doubly Occupied:

       1A    -20.300868     2A    -20.294141     3A    -11.144392
       4A    -11.123244     5A    -11.120542     6A    -11.098388
       7A    -11.094339     8A    -11.068343     9A     -1.170065
      10A     -1.067021    11A     -0.968288    12A     -0.899929
      13A     -0.805169    14A     -0.721016    15A     -0.621818
      16A     -0.531882    17A     -0.513049    18A     -0.501081
      19A     -0.452795    20A     -0.442237    21A     -0.433988
      22A     -0.414629    23A     -0.401400    24A     -0.383028
      25A     -0.376229    26A     -0.345636    27A     -0.326089
      28A     -0.238286    29A     -0.213893    30A     -0.197165
      31A     -0.185680

  @DF-RHF Final Energy:  -382.33385624524811

   => Energetics <=

    Nuclear Repulsion Energy =            338.7148021689559414
    One-Electron Energy =               -1203.1880550489872803
    Two-Electron Energy =                 482.1393966347832816
    Total Energy =                       -382.3338562452481142
  Basis Set: (AUG-CC-PVTZ AUX)
    Blend: AUG-CC-PVTZ-RI
    Molecular point group: c1

    Geometry (in Angstrom), charge = -1, multiplicity = 1:

       Center              X                  Y                   Z               Mass
    ------------   -----------------  -----------------  -----------------  -----------------
         O           -2.902341423929    -0.815104665375    -0.573794295451    15.994914619570
         O           -2.285840423929     1.277302334625     0.066891704549    15.994914619570
         C            2.702409576071     0.342088334625    -0.574600295451    12.000000000000
         C            1.455574576071    -0.397851665375    -0.186254295451    12.000000000000
         C            0.357870576071     0.174024334625     0.334705704549    12.000000000000
         C           -0.893630423929    -0.552634665375     0.719888704549    12.000000000000
         C            3.919594576071    -0.107412665375     0.239051704549    12.000000000000
         C           -2.144651723929     0.039555834625    -0.001199795451    12.000000000000
         H            2.911517576071     0.186311334625    -1.641589295451     1.007825032230
         H            2.542465576071     1.418573334625    -0.439004295451     1.007825032230
         H            1.471527576071    -1.480824665375    -0.332539295451     1.007825032230
         H            0.337495576071     1.254789334625     0.475873704549     1.007825032230
         H           -0.800268423929    -1.623215665375     0.508952704549     1.007825032230
         H           -1.066748423929    -0.438809665375     1.800520704549     1.007825032230
         H            4.097221576071    -1.179814665375     0.111863704549     1.007825032230
         H            3.759914576071     0.083411334625     1.304242704549     1.007825032230
         H            4.823940576071     0.424139334625    -0.072980295451     1.007825032230

  Basis Set: AUG-CC-PVTZ
    Blend: AUG-CC-PVTZ
  Basis Set: (AUG-CC-PVTZ AUX)
    Blend: AUG-CC-PVTZ-JKFIT
	 Reference Energy          =    -382.3338562452481142 [Eh]
	 Singles Energy            =      -0.0000000000000000 [Eh]
	 Same-Spin Energy          =      -0.3908060578039199 [Eh]
	 Opposite-Spin Energy      =      -1.2591060480244192 [Eh]
	 Correlation Energy        =      -1.6499121058283390 [Eh]
	 Total Energy              =    -383.9837683510764350 [Eh]

	 ================> DF-SCS-MP2 Energies <==================
	-----------------------------------------------------------
	 SCS Same-Spin Scale       =       0.3333333333333333 [-]
	 SCS Opposite-Spin Scale   =       1.2000000000000000 [-]
	 SCS Same-Spin Energy      =      -0.1302686859346400 [Eh]
	 SCS Opposite-Spin Energy  =      -1.5109272576293029 [Eh]
	 SCS Correlation Energy    =      -1.6411959435639429 [Eh]
	 SCS Total Energy          =    -383.9750521888120716 [Eh]
	-----------------------------------------------------------

  Dipole Moment: [D]
     X:    10.7128      Y:    -0.8257      Z:     1.5040     Total:    10.8493

*** Psi4 exiting successfully. Buy a developer a beer!
