                               Psi4 1.3.2 release

  ==> Input File <==

--------------------------------------------------------------------------
#psi4
#
memory 32 gb

molecule  {
-1 1
  O       -2.9259140    -0.9099280    -0.5693610
  O       -2.5318610     1.2678500    -0.0507790
  C        2.5630356     0.1327301    -0.6845154
  C        1.3133740    -0.4576390    -0.0973370
  C        0.1996320     0.2215300     0.2212070
  C       -1.0388440    -0.3710000     0.8261750
  C        3.7521530     0.0645780     0.2634350
  C       -2.2854840     0.0250790    -0.0044070
  H        2.8053070    -0.3466590    -1.6276820
  H        2.3518550     1.2059430    -0.9306210
  H        1.3702429    -1.5327354     0.0896548
  H        0.1538580     1.2934970     0.0216010
  H       -0.9504340    -1.4608690     0.8884060
  H       -1.1707130     0.0247460     1.8437960
  H        3.9732670    -0.9779260     0.5120620
  H        3.5426510     0.5954950     1.1964510
  H        4.6498360     0.5017940    -0.1852730
units angstrom
no_reorient  #important for SAPT in psi4, default
symmetry c1  #important for SAPT in psi4, default
}

set PROPERTIES_ORIGIN ["COM"]
properties('MP2/aug-cc-pvtz', properties = ['dipole'])
--------------------------------------------------------------------------

    Molecular point group: c1
  Charge       = -1
  Multiplicity = 1
  Basis Set: AUG-CC-PVTZ
    Blend: AUG-CC-PVTZ
  Basis Set: (AUG-CC-PVTZ AUX)
    Blend: AUG-CC-PVTZ-JKFIT

    Orbital Energies [Eh]
    ---------------------

    Doubly Occupied:

       1A    -20.297738     2A    -20.295885     3A    -11.144010
       4A    -11.123541     5A    -11.121497     6A    -11.100984
       7A    -11.095976     8A    -11.069737     9A     -1.165558
      10A     -1.064720    11A     -0.969502    12A     -0.901772
      13A     -0.807167    14A     -0.722222    15A     -0.621832
      16A     -0.533771    17A     -0.514509    18A     -0.500996
      19A     -0.452548    20A     -0.444561    21A     -0.433364
      22A     -0.418624    23A     -0.401122    24A     -0.382422
      25A     -0.368444    26A     -0.347618    27A     -0.324118
      28A     -0.238754    29A     -0.211071    30A     -0.195527
      31A     -0.189408

  @DF-RHF Final Energy:  -382.33201097123998

   => Energetics <=

    Nuclear Repulsion Energy =            338.8271451949771063
    One-Electron Energy =               -1203.4003153230921725
    Two-Electron Energy =                 482.2411591568750850
    Total Energy =                       -382.3320109712399812
  Basis Set: (AUG-CC-PVTZ AUX)
    Blend: AUG-CC-PVTZ-RI
    Molecular point group: c1

    Geometry (in Angstrom), charge = -1, multiplicity = 1:

       Center              X                  Y                   Z               Mass
    ------------   -----------------  -----------------  -----------------  -----------------
         O           -2.780916134614    -0.913519914944    -0.553423926339    15.994914619570
         O           -2.386863134614     1.264258085056    -0.034841926339    15.994914619570
         C            2.708033465386     0.129138185056    -0.668578326339    12.000000000000
         C            1.458371865386    -0.461230914944    -0.081399926339    12.000000000000
         C            0.344629865386     0.217938085056     0.237144073661    12.000000000000
         C           -0.893846134614    -0.374591914944     0.842112073661    12.000000000000
         C            3.897150865386     0.060986085056     0.279372073661    12.000000000000
         C           -2.140486134614     0.021487085056     0.011530073661    12.000000000000
         H            2.950304865386    -0.350250914944    -1.611744926339     1.007825032230
         H            2.496852865386     1.202351085056    -0.914683926339     1.007825032230
         H            1.515240765386    -1.536327314944     0.105591873661     1.007825032230
         H            0.298855865386     1.289905085056     0.037538073661     1.007825032230
         H           -0.805436134614    -1.464460914944     0.904343073661     1.007825032230
         H           -1.025715134614     0.021154085056     1.859733073661     1.007825032230
         H            4.118264865386    -0.981517914944     0.527999073661     1.007825032230
         H            3.687648865386     0.591903085056     1.212388073661     1.007825032230
         H            4.794833865386     0.498202085056    -0.169335926339     1.007825032230

  Basis Set: AUG-CC-PVTZ
    Blend: AUG-CC-PVTZ
  Basis Set: (AUG-CC-PVTZ AUX)
    Blend: AUG-CC-PVTZ-JKFIT
	 Reference Energy          =    -382.3320109712399812 [Eh]
	 Singles Energy            =      -0.0000000000000000 [Eh]
	 Same-Spin Energy          =      -0.3910076992785549 [Eh]
	 Opposite-Spin Energy      =      -1.2597242244538149 [Eh]
	 Correlation Energy        =      -1.6507319237323699 [Eh]
	 Total Energy              =    -383.9827428949723753 [Eh]

	 ================> DF-SCS-MP2 Energies <==================
	-----------------------------------------------------------
	 SCS Same-Spin Scale       =       0.3333333333333333 [-]
	 SCS Opposite-Spin Scale   =       1.2000000000000000 [-]
	 SCS Same-Spin Energy      =      -0.1303358997595183 [Eh]
	 SCS Opposite-Spin Energy  =      -1.5116690693445778 [Eh]
	 SCS Correlation Energy    =      -1.6420049691040961 [Eh]
	 SCS Total Energy          =    -383.9740159403440884 [Eh]
	-----------------------------------------------------------

  Dipole Moment: [D]
     X:    10.7200      Y:    -0.7391      Z:     1.6644     Total:    10.8736

*** Psi4 exiting successfully. Buy a developer a beer!
