                               Psi4 1.3.2 release

  ==> Input File <==

--------------------------------------------------------------------------
#psi4
#
memory 32 gb

molecule  {
-1 1
  O       -2.8975248    -0.9389194    -0.5518327
  O       -2.4968887     1.2749716    -0.0246159
  C        2.5515340     0.1562790    -0.6847320
  C        1.3133740    -0.4576390    -0.0973370
  C        0.1996320     0.2215300     0.2212070
  C       -1.0388440    -0.3710000     0.8261750
  C        3.7521530     0.0645780     0.2634350
  C       -2.2854840     0.0250790    -0.0044070
  H        2.8053070    -0.3466590    -1.6276820
  H        2.3518550     1.2059430    -0.9306210
  H        1.3523840    -1.5323490     0.0963350
  H        0.1538580     1.2934970     0.0216010
  H       -0.9504340    -1.4608690     0.8884060
  H       -1.1707130     0.0247460     1.8437960
  H        3.9732670    -0.9779260     0.5120620
  H        3.5426510     0.5954950     1.1964510
  H        4.6498360     0.5017940    -0.1852730
units angstrom
no_reorient  #important for SAPT in psi4, default
symmetry c1  #important for SAPT in psi4, default
}

set PROPERTIES_ORIGIN ["COM"]
properties('MP2/aug-cc-pvtz', properties = ['dipole'])
--------------------------------------------------------------------------

    Molecular point group: c1
  Charge       = -1
  Multiplicity = 1
  Basis Set: AUG-CC-PVTZ
    Blend: AUG-CC-PVTZ
  Basis Set: (AUG-CC-PVTZ AUX)
    Blend: AUG-CC-PVTZ-JKFIT

    Orbital Energies [Eh]
    ---------------------

    Doubly Occupied:

       1A    -20.301733     2A    -20.299850     3A    -11.146144
       4A    -11.122549     5A    -11.120025     6A    -11.097853
       7A    -11.093360     8A    -11.064529     9A     -1.166520
      10A     -1.072194    11A     -0.967023    12A     -0.898270
      13A     -0.804139    14A     -0.720536    15A     -0.620301
      16A     -0.532827    17A     -0.512791    18A     -0.499390
      19A     -0.451285    20A     -0.441802    21A     -0.432684
      22A     -0.413819    23A     -0.403045    24A     -0.382063
      25A     -0.373533    26A     -0.347232    27A     -0.324007
      28A     -0.236629    29A     -0.217272    30A     -0.200541
      31A     -0.185269

  @DF-RHF Final Energy:  -382.33249028775396

   => Energetics <=

    Nuclear Repulsion Energy =            339.2536943993038676
    One-Electron Energy =               -1204.2739427448100287
    Two-Electron Energy =                 482.6877580577522053
    Total Energy =                       -382.3324902877539557
  Basis Set: (AUG-CC-PVTZ AUX)
    Blend: AUG-CC-PVTZ-RI
    Molecular point group: c1

    Geometry (in Angstrom), charge = -1, multiplicity = 1:

       Center              X                  Y                   Z               Mass
    ------------   -----------------  -----------------  -----------------  -----------------
         O           -2.760110890087    -0.941920219864    -0.542113315201    15.994914619570
         O           -2.359474790087     1.271970780136    -0.014896515201    15.994914619570
         C            2.688947909913     0.153278180136    -0.675012615201    12.000000000000
         C            1.450787909913    -0.460639819864    -0.087617615201    12.000000000000
         C            0.337045909913     0.218529180136     0.230926384799    12.000000000000
         C           -0.901430090087    -0.374000819864     0.835894384799    12.000000000000
         C            3.889566909913     0.061577180136     0.273154384799    12.000000000000
         C           -2.148070090087     0.022078180136     0.005312384799    12.000000000000
         H            2.942720909913    -0.349659819864    -1.617962615201     1.007825032230
         H            2.489268909913     1.202942180136    -0.920901615201     1.007825032230
         H            1.489797909913    -1.535349819864     0.106054384799     1.007825032230
         H            0.291271909913     1.290496180136     0.031320384799     1.007825032230
         H           -0.813020090087    -1.463869819864     0.898125384799     1.007825032230
         H           -1.033299090087     0.021745180136     1.853515384799     1.007825032230
         H            4.110680909913    -0.980926819864     0.521781384799     1.007825032230
         H            3.680064909913     0.592494180136     1.206170384799     1.007825032230
         H            4.787249909913     0.498793180136    -0.175553615201     1.007825032230

  Basis Set: AUG-CC-PVTZ
    Blend: AUG-CC-PVTZ
  Basis Set: (AUG-CC-PVTZ AUX)
    Blend: AUG-CC-PVTZ-JKFIT
	 Reference Energy          =    -382.3324902877539557 [Eh]
	 Singles Energy            =      -0.0000000000000000 [Eh]
	 Same-Spin Energy          =      -0.3911494687195050 [Eh]
	 Opposite-Spin Energy      =      -1.2598510473965521 [Eh]
	 Correlation Energy        =      -1.6510005161160570 [Eh]
	 Total Energy              =    -383.9834908038700405 [Eh]

	 ================> DF-SCS-MP2 Energies <==================
	-----------------------------------------------------------
	 SCS Same-Spin Scale       =       0.3333333333333333 [-]
	 SCS Opposite-Spin Scale   =       1.2000000000000000 [-]
	 SCS Same-Spin Energy      =      -0.1303831562398350 [Eh]
	 SCS Opposite-Spin Energy  =      -1.5118212568758624 [Eh]
	 SCS Correlation Energy    =      -1.6422044131156974 [Eh]
	 SCS Total Energy          =    -383.9746947008696338 [Eh]
	-----------------------------------------------------------

  Dipole Moment: [D]
     X:    10.4644      Y:    -0.6522      Z:     1.5522     Total:    10.5990

*** Psi4 exiting successfully. Buy a developer a beer!
