                               Psi4 1.4a3.dev225

  ==> Input File <==

--------------------------------------------------------------------------
#psi4
#
memory 32 gb

molecule  {
-1 1
  O       -3.0493610    -0.8021490    -0.5876160
  O       -2.4328600     1.2902580     0.0530700
  C        2.5553900     0.3550440    -0.5884220
  C        1.3085550    -0.3848960    -0.2000760
  C        0.2108510     0.1869800     0.3208840
  C       -1.0573640    -0.5493836     0.7112112
  C        3.7725750    -0.0944570     0.2252300
  C       -2.2894080     0.0326700    -0.0161130
  H        2.7644980     0.1992670    -1.6554110
  H        2.3954460     1.4315290    -0.4528260
  H        1.3245080    -1.4678690    -0.3463610
  H        0.1904760     1.2677450     0.4620520
  H       -0.9472880    -1.6102600     0.4951310
  H       -1.2137680    -0.4258540     1.7866990
  H        3.9502020    -1.1668590     0.0980420
  H        3.6128950     0.0963670     1.2904210
  H        4.6769210     0.4370950    -0.0868020
units angstrom
no_reorient  #important for SAPT in psi4, default
symmetry c1  #important for SAPT in psi4, default
}

set PROPERTIES_ORIGIN ["COM"]
properties('MP2/aug-cc-pvtz', properties = ['dipole'])
--------------------------------------------------------------------------

    Molecular point group: c1
  Charge       = -1
  Multiplicity = 1
  Basis Set: AUG-CC-PVTZ
    Blend: AUG-CC-PVTZ
  Basis Set: (AUG-CC-PVTZ AUX)
    Blend: AUG-CC-PVTZ-JKFIT

    Orbital Energies [Eh]
    ---------------------

    Doubly Occupied:

       1A    -20.297241     2A    -20.296060     3A    -11.143696
       4A    -11.123465     5A    -11.120824     6A    -11.099538
       7A    -11.094954     8A    -11.069303     9A     -1.165922
      10A     -1.065247    11A     -0.968031    12A     -0.898606
      13A     -0.806664    14A     -0.722663    15A     -0.622031
      16A     -0.532846    17A     -0.513109    18A     -0.501391
      19A     -0.451389    20A     -0.443281    21A     -0.433915
      22A     -0.414519    23A     -0.401990    24A     -0.383114
      25A     -0.376072    26A     -0.344679    27A     -0.322627
      28A     -0.238039    29A     -0.211809    30A     -0.196100
      31A     -0.189212

  @DF-RHF Final Energy:  -382.33355753056787

   => Energetics <=

    Nuclear Repulsion Energy =            338.5438641367990726
    One-Electron Energy =               -1202.8581681445712093
    Two-Electron Energy =                 481.9807464772042067
    Total Energy =                       -382.3335575305678731
  Basis Set: (AUG-CC-PVTZ AUX)
    Blend: AUG-CC-PVTZ-RI
    Molecular point group: c1

    Geometry (in Angstrom), charge = -1, multiplicity = 1:

       Center              X                  Y                   Z               Mass
    ------------   -----------------  -----------------  -----------------  -----------------
         O           -2.900807654164    -0.811968698616    -0.574224441307    15.994914619570
         O           -2.284306654164     1.280438301384     0.066461558693    15.994914619570
         C            2.703943345836     0.345224301384    -0.575030441307    12.000000000000
         C            1.457108345836    -0.394715698616    -0.186684441307    12.000000000000
         C            0.359404345836     0.177160301384     0.334275558693    12.000000000000
         C           -0.908810654164    -0.559203298616     0.724602758693    12.000000000000
         C            3.921128345836    -0.104276698616     0.238621558693    12.000000000000
         C           -2.140854654164     0.022850301384    -0.002721441307    12.000000000000
         H            2.913051345836     0.189447301384    -1.642019441307     1.007825032230
         H            2.543999345836     1.421709301384    -0.439434441307     1.007825032230
         H            1.473061345836    -1.477688698616    -0.332969441307     1.007825032230
         H            0.339029345836     1.257925301384     0.475443558693     1.007825032230
         H           -0.798734654164    -1.620079698616     0.508522558693     1.007825032230
         H           -1.065214654164    -0.435673698616     1.800090558693     1.007825032230
         H            4.098755345836    -1.176678698616     0.111433558693     1.007825032230
         H            3.761448345836     0.086547301384     1.303812558693     1.007825032230
         H            4.825474345836     0.427275301384    -0.073410441307     1.007825032230

  Basis Set: AUG-CC-PVTZ
    Blend: AUG-CC-PVTZ
  Basis Set: (AUG-CC-PVTZ AUX)
    Blend: AUG-CC-PVTZ-JKFIT
	 Reference Energy          =    -382.3335575305678731 [Eh]
	 Singles Energy            =      -0.0000000000000000 [Eh]
	 Same-Spin Energy          =      -0.3907207288925971 [Eh]
	 Opposite-Spin Energy      =      -1.2592578013464166 [Eh]
	 Correlation Energy        =      -1.6499785302390138 [Eh]
	 Total Energy              =    -383.9835360608068981 [Eh]

	 ================> DF-SCS-MP2 Energies <==================
	-----------------------------------------------------------
	 SCS Same-Spin Scale       =       0.3333333333333333 [-]
	 SCS Opposite-Spin Scale   =       1.2000000000000000 [-]
	 SCS Same-Spin Energy      =      -0.1302402429641990 [Eh]
	 SCS Opposite-Spin Energy  =      -1.5111093616156999 [Eh]
	 SCS Correlation Energy    =      -1.6413496045798990 [Eh]
	 SCS Total Energy          =    -383.9749071351477596 [Eh]
	-----------------------------------------------------------

  Dipole Moment: [D]
     X:    10.7467      Y:    -1.0333      Z:     1.4834     Total:    10.8977

*** Psi4 exiting successfully. Buy a developer a beer!
