                               Psi4 1.3.2 release

  ==> Input File <==

--------------------------------------------------------------------------
#psi4
#
memory 32 gb

molecule  {
-1 1
  O       -2.9188885    -0.9172841    -0.5650426
  O       -2.5231444     1.2697727    -0.0442423
  C        2.5515340     0.1562790    -0.6847320
  C        1.3133740    -0.4576390    -0.0973370
  C        0.1996320     0.2215300     0.2212070
  C       -1.0388440    -0.3710000     0.8261750
  C        3.7521530     0.0645780     0.2634350
  C       -2.2854840     0.0250790    -0.0044070
  H        2.8053070    -0.3466590    -1.6276820
  H        2.3518550     1.2059430    -0.9306210
  H        1.3523840    -1.5323490     0.0963350
  H        0.1538580     1.2934970     0.0216010
  H       -0.9504340    -1.4608690     0.8884060
  H       -1.1707130     0.0247460     1.8437960
  H        3.9732670    -0.9779260     0.5120620
  H        3.5426510     0.5954950     1.1964510
  H        4.6498360     0.5017940    -0.1852730
units angstrom
no_reorient  #important for SAPT in psi4, default
symmetry c1  #important for SAPT in psi4, default
}

set PROPERTIES_ORIGIN ["COM"]
properties('MP2/aug-cc-pvtz', properties = ['dipole'])
--------------------------------------------------------------------------

    Molecular point group: c1
  Charge       = -1
  Multiplicity = 1
  Basis Set: AUG-CC-PVTZ
    Blend: AUG-CC-PVTZ
  Basis Set: (AUG-CC-PVTZ AUX)
    Blend: AUG-CC-PVTZ-JKFIT

    Orbital Energies [Eh]
    ---------------------

    Doubly Occupied:

       1A    -20.298689     2A    -20.296828     3A    -11.144455
       4A    -11.123422     5A    -11.121074     6A    -11.099579
       7A    -11.095106     8A    -11.068275     9A     -1.165701
      10A     -1.066568    11A     -0.968402    12A     -0.900110
      13A     -0.806206    14A     -0.722027    15A     -0.621830
      16A     -0.533091    17A     -0.513891    18A     -0.500241
      19A     -0.452503    20A     -0.442751    21A     -0.432810
      22A     -0.414614    23A     -0.401794    24A     -0.382763
      25A     -0.373501    26A     -0.348154    27A     -0.323986
      28A     -0.237763    29A     -0.212666    30A     -0.196753
      31A     -0.188112

  @DF-RHF Final Energy:  -382.33310622004171

   => Energetics <=

    Nuclear Repulsion Energy =            338.9364923858664724
    One-Electron Energy =               -1203.6318714436815753
    Two-Electron Energy =                 482.3622728377733893
    Total Energy =                       -382.3331062200417136
  Basis Set: (AUG-CC-PVTZ AUX)
    Blend: AUG-CC-PVTZ-RI
    Molecular point group: c1

    Geometry (in Angstrom), charge = -1, multiplicity = 1:

       Center              X                  Y                   Z               Mass
    ------------   -----------------  -----------------  -----------------  -----------------
         O           -2.774737755464    -0.922610218138    -0.550677782400    15.994914619570
         O           -2.378993655464     1.264446581862    -0.029877482400    15.994914619570
         C            2.695684744536     0.150952881862    -0.670367182400    12.000000000000
         C            1.457524744536    -0.462965118138    -0.082972182400    12.000000000000
         C            0.343782744536     0.216203881862     0.235571817600    12.000000000000
         C           -0.894693255464    -0.376326118138     0.840539817600    12.000000000000
         C            3.896303744536     0.059251881862     0.277799817600    12.000000000000
         C           -2.141333255464     0.019752881862     0.009957817600    12.000000000000
         H            2.949457744536    -0.351985118138    -1.613317182400     1.007825032230
         H            2.496005744536     1.200616881862    -0.916256182400     1.007825032230
         H            1.496534744536    -1.537675118138     0.110699817600     1.007825032230
         H            0.298008744536     1.288170881862     0.035965817600     1.007825032230
         H           -0.806283255464    -1.466195118138     0.902770817600     1.007825032230
         H           -1.026562255464     0.019419881862     1.858160817600     1.007825032230
         H            4.117417744536    -0.983252118138     0.526426817600     1.007825032230
         H            3.686801744536     0.590168881862     1.210815817600     1.007825032230
         H            4.793986744536     0.496467881862    -0.170908182400     1.007825032230

  Basis Set: AUG-CC-PVTZ
    Blend: AUG-CC-PVTZ
  Basis Set: (AUG-CC-PVTZ AUX)
    Blend: AUG-CC-PVTZ-JKFIT
	 Reference Energy          =    -382.3331062200417136 [Eh]
	 Singles Energy            =      -0.0000000000000000 [Eh]
	 Same-Spin Energy          =      -0.3909846129094237 [Eh]
	 Opposite-Spin Energy      =      -1.2596271265469570 [Eh]
	 Correlation Energy        =      -1.6506117394563806 [Eh]
	 Total Energy              =    -383.9837179594981080 [Eh]

	 ================> DF-SCS-MP2 Energies <==================
	-----------------------------------------------------------
	 SCS Same-Spin Scale       =       0.3333333333333333 [-]
	 SCS Opposite-Spin Scale   =       1.2000000000000000 [-]
	 SCS Same-Spin Energy      =      -0.1303282043031412 [Eh]
	 SCS Opposite-Spin Energy  =      -1.5115525518563484 [Eh]
	 SCS Correlation Energy    =      -1.6418807561594897 [Eh]
	 SCS Total Energy          =    -383.9749869762011940 [Eh]
	-----------------------------------------------------------

  Dipole Moment: [D]
     X:    10.6508      Y:    -0.6991      Z:     1.6357     Total:    10.7983

*** Psi4 exiting successfully. Buy a developer a beer!
