                               Psi4 1.3.2 release

  ==> Input File <==

--------------------------------------------------------------------------
#psi4
#
memory 32 gb

molecule  {
-1 1
  O       -2.9259140    -0.9099280    -0.5693610
  O       -2.5318610     1.2678500    -0.0507790
  C        2.5515340     0.1562790    -0.6847320
  C        1.3133740    -0.4576390    -0.0973370
  C        0.1996320     0.2215300     0.2212070
  C       -1.0500781    -0.3473509     0.8257731
  C        3.7521530     0.0645780     0.2634350
  C       -2.2854840     0.0250790    -0.0044070
  H        2.8053070    -0.3466590    -1.6276820
  H        2.3518550     1.2059430    -0.9306210
  H        1.3523840    -1.5323490     0.0963350
  H        0.1360996     1.2938504     0.0284799
  H       -0.9504340    -1.4608690     0.8884060
  H       -1.1707130     0.0247460     1.8437960
  H        3.9732670    -0.9779260     0.5120620
  H        3.5426510     0.5954950     1.1964510
  H        4.6498360     0.5017940    -0.1852730
units angstrom
no_reorient  #important for SAPT in psi4, default
symmetry c1  #important for SAPT in psi4, default
}

set PROPERTIES_ORIGIN ["COM"]
properties('MP2/aug-cc-pvtz', properties = ['dipole'])
--------------------------------------------------------------------------

    Molecular point group: c1
  Charge       = -1
  Multiplicity = 1
  Basis Set: AUG-CC-PVTZ
    Blend: AUG-CC-PVTZ
  Basis Set: (AUG-CC-PVTZ AUX)
    Blend: AUG-CC-PVTZ-JKFIT

    Orbital Energies [Eh]
    ---------------------

    Doubly Occupied:

       1A    -20.297740     2A    -20.295141     3A    -11.142875
       4A    -11.123968     5A    -11.121811     6A    -11.100459
       7A    -11.096790     8A    -11.070164     9A     -1.165848
      10A     -1.064666    11A     -0.969002    12A     -0.900886
      13A     -0.807894    14A     -0.723146    15A     -0.622576
      16A     -0.534557    17A     -0.514416    18A     -0.501616
      19A     -0.453606    20A     -0.442780    21A     -0.434435
      22A     -0.415412    23A     -0.401477    24A     -0.383669
      25A     -0.372361    26A     -0.343048    27A     -0.323679
      28A     -0.238355    29A     -0.210320    30A     -0.195222
      31A     -0.191292

  @DF-RHF Final Energy:  -382.33196274255334

   => Energetics <=

    Nuclear Repulsion Energy =            338.9945224889197561
    One-Electron Energy =               -1203.7345564207355437
    Two-Electron Energy =                 482.4080711892624436
    Total Energy =                       -382.3319627425533440
  Basis Set: (AUG-CC-PVTZ AUX)
    Blend: AUG-CC-PVTZ-RI
    Molecular point group: c1

    Geometry (in Angstrom), charge = -1, multiplicity = 1:

       Center              X                  Y                   Z               Mass
    ------------   -----------------  -----------------  -----------------  -----------------
         O           -2.778185516256    -0.918536015353    -0.553479146455    15.994914619570
         O           -2.384132516256     1.259241984647    -0.034897146455    15.994914619570
         C            2.699262483744     0.147670984647    -0.668850146455    12.000000000000
         C            1.461102483744    -0.466247015353    -0.081455146455    12.000000000000
         C            0.347360483744     0.212921984647     0.237088853545    12.000000000000
         C           -0.902349616256    -0.355958915353     0.841654953545    12.000000000000
         C            3.899881483744     0.055969984647     0.279316853545    12.000000000000
         C           -2.137755516256     0.016470984647     0.011474853545    12.000000000000
         H            2.953035483744    -0.355267015353    -1.611800146455     1.007825032230
         H            2.499583483744     1.197334984647    -0.914739146455     1.007825032230
         H            1.500112483744    -1.540957015353     0.112216853545     1.007825032230
         H            0.283828083744     1.285242384647     0.044361753545     1.007825032230
         H           -0.802705516256    -1.469477015353     0.904287853545     1.007825032230
         H           -1.022984516256     0.016137984647     1.859677853545     1.007825032230
         H            4.120995483744    -0.986534015353     0.527943853545     1.007825032230
         H            3.690379483744     0.586886984647     1.212332853545     1.007825032230
         H            4.797564483744     0.493185984647    -0.169391146455     1.007825032230

  Basis Set: AUG-CC-PVTZ
    Blend: AUG-CC-PVTZ
  Basis Set: (AUG-CC-PVTZ AUX)
    Blend: AUG-CC-PVTZ-JKFIT
	 Reference Energy          =    -382.3319627425533440 [Eh]
	 Singles Energy            =      -0.0000000000000000 [Eh]
	 Same-Spin Energy          =      -0.3909678692659666 [Eh]
	 Opposite-Spin Energy      =      -1.2597346297208760 [Eh]
	 Correlation Energy        =      -1.6507024989868426 [Eh]
	 Total Energy              =    -383.9826652415401895 [Eh]

	 ================> DF-SCS-MP2 Energies <==================
	-----------------------------------------------------------
	 SCS Same-Spin Scale       =       0.3333333333333333 [-]
	 SCS Opposite-Spin Scale   =       1.2000000000000000 [-]
	 SCS Same-Spin Energy      =      -0.1303226230886555 [Eh]
	 SCS Opposite-Spin Energy  =      -1.5116815556650511 [Eh]
	 SCS Correlation Energy    =      -1.6420041787537067 [Eh]
	 SCS Total Energy          =    -383.9739669213070670 [Eh]
	-----------------------------------------------------------

  Dipole Moment: [D]
     X:    10.7387      Y:    -0.6897      Z:     1.6739     Total:    10.8902

*** Psi4 exiting successfully. Buy a developer a beer!
