                               Psi4 1.3.2 release

  ==> Input File <==

--------------------------------------------------------------------------
#psi4
#
memory 32 gb

molecule  {
-1 1
  O       -2.9259140    -0.9099280    -0.5693610
  O       -2.5318610     1.2678500    -0.0507790
  C        2.5515340     0.1562790    -0.6847320
  C        1.3133740    -0.4576390    -0.0973370
  C        0.1996320     0.2215300     0.2212070
  C       -1.0241911    -0.3818732     0.8449557
  C        3.7521530     0.0645780     0.2634350
  C       -2.2838187     0.0500180    -0.0402363
  H        2.8053070    -0.3466590    -1.6276820
  H        2.3518550     1.2059430    -0.9306210
  H        1.3523840    -1.5323490     0.0963350
  H        0.1538580     1.2934970     0.0216010
  H       -0.9504340    -1.4608690     0.8884060
  H       -1.1707130     0.0247460     1.8437960
  H        3.9732670    -0.9779260     0.5120620
  H        3.5426510     0.5954950     1.1964510
  H        4.6498360     0.5017940    -0.1852730
units angstrom
no_reorient  #important for SAPT in psi4, default
symmetry c1  #important for SAPT in psi4, default
}

set PROPERTIES_ORIGIN ["COM"]
properties('MP2/aug-cc-pvtz', properties = ['dipole'])
--------------------------------------------------------------------------

    Molecular point group: c1
  Charge       = -1
  Multiplicity = 1
  Basis Set: AUG-CC-PVTZ
    Blend: AUG-CC-PVTZ
  Basis Set: (AUG-CC-PVTZ AUX)
    Blend: AUG-CC-PVTZ-JKFIT

    Orbital Energies [Eh]
    ---------------------

    Doubly Occupied:

       1A    -20.302174     2A    -20.295952     3A    -11.145758
       4A    -11.122574     5A    -11.119845     6A    -11.098071
       7A    -11.092777     8A    -11.065154     9A     -1.173403
      10A     -1.072214    11A     -0.967060    12A     -0.898209
      13A     -0.802151    14A     -0.718756    15A     -0.619979
      16A     -0.527981    17A     -0.513358    18A     -0.499292
      19A     -0.451074    20A     -0.442454    21A     -0.434039
      22A     -0.413433    23A     -0.402208    24A     -0.381910
      25A     -0.376273    26A     -0.351780    27A     -0.329768
      28A     -0.237420    29A     -0.216277    30A     -0.199605
      31A     -0.180374

  @DF-RHF Final Energy:  -382.33275374217033

   => Energetics <=

    Nuclear Repulsion Energy =            338.6796353077834283
    One-Electron Energy =               -1203.1221331358165116
    Two-Electron Energy =                 482.1097440858627579
    Total Energy =                       -382.3327537421703255
  Basis Set: (AUG-CC-PVTZ AUX)
    Blend: AUG-CC-PVTZ-RI
    Molecular point group: c1

    Geometry (in Angstrom), charge = -1, multiplicity = 1:

       Center              X                  Y                   Z               Mass
    ------------   -----------------  -----------------  -----------------  -----------------
         O           -2.781268164190    -0.917515711924    -0.551650978559    15.994914619570
         O           -2.387215164190     1.260262288076    -0.033068978559    15.994914619570
         C            2.696179835810     0.148691288076    -0.667021978559    12.000000000000
         C            1.458019835810    -0.465226711924    -0.079626978559    12.000000000000
         C            0.344277835810     0.213942288076     0.238917021441    12.000000000000
         C           -0.879545264190    -0.389460911924     0.862665721441    12.000000000000
         C            3.896798835810     0.056990288076     0.281145021441    12.000000000000
         C           -2.139172864190     0.042430288076    -0.022526278559    12.000000000000
         H            2.949952835810    -0.354246711924    -1.609971978559     1.007825032230
         H            2.496500835810     1.198355288076    -0.912910978559     1.007825032230
         H            1.497029835810    -1.539936711924     0.114045021441     1.007825032230
         H            0.298503835810     1.285909288076     0.039311021441     1.007825032230
         H           -0.805788164190    -1.468456711924     0.906116021441     1.007825032230
         H           -1.026067164190     0.017158288076     1.861506021441     1.007825032230
         H            4.117912835810    -0.985513711924     0.529772021441     1.007825032230
         H            3.687296835810     0.587907288076     1.214161021441     1.007825032230
         H            4.794481835810     0.494206288076    -0.167562978559     1.007825032230

  Basis Set: AUG-CC-PVTZ
    Blend: AUG-CC-PVTZ
  Basis Set: (AUG-CC-PVTZ AUX)
    Blend: AUG-CC-PVTZ-JKFIT
	 Reference Energy          =    -382.3327537421703255 [Eh]
	 Singles Energy            =      -0.0000000000000000 [Eh]
	 Same-Spin Energy          =      -0.3907861816282446 [Eh]
	 Opposite-Spin Energy      =      -1.2589446819856578 [Eh]
	 Correlation Energy        =      -1.6497308636139025 [Eh]
	 Total Energy              =    -383.9824846057842365 [Eh]

	 ================> DF-SCS-MP2 Energies <==================
	-----------------------------------------------------------
	 SCS Same-Spin Scale       =       0.3333333333333333 [-]
	 SCS Opposite-Spin Scale   =       1.2000000000000000 [-]
	 SCS Same-Spin Energy      =      -0.1302620605427482 [Eh]
	 SCS Opposite-Spin Energy  =      -1.5107336183827893 [Eh]
	 SCS Correlation Energy    =      -1.6409956789255375 [Eh]
	 SCS Total Energy          =    -383.9737494210958744 [Eh]
	-----------------------------------------------------------

  Dipole Moment: [D]
     X:    10.4813      Y:    -0.5001      Z:     1.6219     Total:    10.6178

*** Psi4 exiting successfully. Buy a developer a beer!
