                               Psi4 1.3.2 release

  ==> Input File <==

--------------------------------------------------------------------------
#psi4
#
memory 32 gb

molecule  {
-1 1
  O       -2.9259140    -0.9099280    -0.5693610
  O       -2.5318610     1.2678500    -0.0507790
  C        2.5515340     0.1562790    -0.6847320
  C        1.3114227    -0.4904956    -0.1381288
  C        0.1996320     0.2215300     0.2212070
  C       -1.0388440    -0.3710000     0.8261750
  C        3.7521530     0.0645780     0.2634350
  C       -2.2854840     0.0250790    -0.0044070
  H        2.7747466    -0.3693386    -1.6230306
  H        2.3518550     1.2059430    -0.9306210
  H        1.3523840    -1.5323490     0.0963350
  H        0.1538580     1.2934970     0.0216010
  H       -0.9504340    -1.4608690     0.8884060
  H       -1.1707130     0.0247460     1.8437960
  H        3.9732670    -0.9779260     0.5120620
  H        3.5426510     0.5954950     1.1964510
  H        4.6498360     0.5017940    -0.1852730
units angstrom
no_reorient  #important for SAPT in psi4, default
symmetry c1  #important for SAPT in psi4, default
}

set PROPERTIES_ORIGIN ["COM"]
properties('MP2/aug-cc-pvtz', properties = ['dipole'])
--------------------------------------------------------------------------

    Molecular point group: c1
  Charge       = -1
  Multiplicity = 1
  Basis Set: AUG-CC-PVTZ
    Blend: AUG-CC-PVTZ
  Basis Set: (AUG-CC-PVTZ AUX)
    Blend: AUG-CC-PVTZ-JKFIT

    Orbital Energies [Eh]
    ---------------------

    Doubly Occupied:

       1A    -20.297598     2A    -20.295828     3A    -11.143900
       4A    -11.124262     5A    -11.121051     6A    -11.103939
       7A    -11.096348     8A    -11.069407     9A     -1.165441
      10A     -1.064610    11A     -0.966805    12A     -0.898268
      13A     -0.807144    14A     -0.720107    15A     -0.626518
      16A     -0.531936    17A     -0.514517    18A     -0.498085
      19A     -0.453847    20A     -0.444413    21A     -0.432443
      22A     -0.416001    23A     -0.401317    24A     -0.381331
      25A     -0.374651    26A     -0.350763    27A     -0.323298
      28A     -0.235090    29A     -0.210983    30A     -0.195457
      31A     -0.185969

  @DF-RHF Final Energy:  -382.32973564894274

   => Energetics <=

    Nuclear Repulsion Energy =            338.5323731502708142
    One-Electron Energy =               -1202.8215616846700868
    Two-Electron Energy =                 481.9594528854565283
    Total Energy =                       -382.3297356489427443
  Basis Set: (AUG-CC-PVTZ AUX)
    Blend: AUG-CC-PVTZ-RI
    Molecular point group: c1

    Geometry (in Angstrom), charge = -1, multiplicity = 1:

       Center              X                  Y                   Z               Mass
    ------------   -----------------  -----------------  -----------------  -----------------
         O           -2.779056657263    -0.912333290647    -0.549172383373    15.994914619570
         O           -2.385003657263     1.265444709353    -0.030590383373    15.994914619570
         C            2.698391342737     0.153873709353    -0.664543383373    12.000000000000
         C            1.458280042737    -0.492900890647    -0.117940183373    12.000000000000
         C            0.346489342737     0.219124709353     0.241395616627    12.000000000000
         C           -0.891986657263    -0.373405290647     0.846363616627    12.000000000000
         C            3.899010342737     0.062172709353     0.283623616627    12.000000000000
         C           -2.138626657263     0.022673709353     0.015781616627    12.000000000000
         H            2.921603942737    -0.371743890647    -1.602841983373     1.007825032230
         H            2.498712342737     1.203537709353    -0.910432383373     1.007825032230
         H            1.499241342737    -1.534754290647     0.116523616627     1.007825032230
         H            0.300715342737     1.291091709353     0.041789616627     1.007825032230
         H           -0.803576657263    -1.463274290647     0.908594616627     1.007825032230
         H           -1.023855657263     0.022340709353     1.863984616627     1.007825032230
         H            4.120124342737    -0.980331290647     0.532250616627     1.007825032230
         H            3.689508342737     0.593089709353     1.216639616627     1.007825032230
         H            4.796693342737     0.499388709353    -0.165084383373     1.007825032230

  Basis Set: AUG-CC-PVTZ
    Blend: AUG-CC-PVTZ
  Basis Set: (AUG-CC-PVTZ AUX)
    Blend: AUG-CC-PVTZ-JKFIT
	 Reference Energy          =    -382.3297356489427443 [Eh]
	 Singles Energy            =      -0.0000000000000000 [Eh]
	 Same-Spin Energy          =      -0.3912352762431214 [Eh]
	 Opposite-Spin Energy      =      -1.2602979746885605 [Eh]
	 Correlation Energy        =      -1.6515332509316818 [Eh]
	 Total Energy              =    -383.9812688998744079 [Eh]

	 ================> DF-SCS-MP2 Energies <==================
	-----------------------------------------------------------
	 SCS Same-Spin Scale       =       0.3333333333333333 [-]
	 SCS Opposite-Spin Scale   =       1.2000000000000000 [-]
	 SCS Same-Spin Energy      =      -0.1304117587477071 [Eh]
	 SCS Opposite-Spin Energy  =      -1.5123575696262725 [Eh]
	 SCS Correlation Energy    =      -1.6427693283739797 [Eh]
	 SCS Total Energy          =    -383.9725049773167029 [Eh]
	-----------------------------------------------------------

  Dipole Moment: [D]
     X:    10.7179      Y:    -0.7325      Z:     1.7060     Total:    10.8775

*** Psi4 exiting successfully. Buy a developer a beer!
