                               Psi4 1.4a3.dev225

  ==> Input File <==

--------------------------------------------------------------------------
#psi4
#
memory 32 gb

molecule  {
-1 1
  O       -3.0493610    -0.8021490    -0.5876160
  O       -2.4328600     1.2902580     0.0530700
  C        2.5553900     0.3550440    -0.5884220
  C        1.3085550    -0.3848960    -0.2000760
  C        0.2108510     0.1869800     0.3208840
  C       -1.0406500    -0.5396790     0.7060670
  C        3.7725750    -0.0944570     0.2252300
  C       -2.2399485     0.0357225    -0.0094466
  H        2.7644980     0.1992670    -1.6554110
  H        2.3954460     1.4315290    -0.4528260
  H        1.3245080    -1.4678690    -0.3463610
  H        0.1904760     1.2677450     0.4620520
  H       -0.9472880    -1.6102600     0.4951310
  H       -1.2137680    -0.4258540     1.7866990
  H        3.9502020    -1.1668590     0.0980420
  H        3.6128950     0.0963670     1.2904210
  H        4.6769210     0.4370950    -0.0868020
units angstrom
no_reorient  #important for SAPT in psi4, default
symmetry c1  #important for SAPT in psi4, default
}

set PROPERTIES_ORIGIN ["COM"]
properties('MP2/aug-cc-pvtz', properties = ['dipole'])
--------------------------------------------------------------------------

    Molecular point group: c1
  Charge       = -1
  Multiplicity = 1
  Basis Set: AUG-CC-PVTZ
    Blend: AUG-CC-PVTZ
  Basis Set: (AUG-CC-PVTZ AUX)
    Blend: AUG-CC-PVTZ-JKFIT

    Orbital Energies [Eh]
    ---------------------

    Doubly Occupied:

       1A    -20.298202     2A    -20.291948     3A    -11.144991
       4A    -11.124960     5A    -11.122578     6A    -11.101373
       7A    -11.097852     8A    -11.073249     9A     -1.156241
      10A     -1.049615    11A     -0.971195    12A     -0.905241
      13A     -0.813377    14A     -0.726222    15A     -0.625545
      16A     -0.538226    17A     -0.515929    18A     -0.503588
      19A     -0.456472    20A     -0.445646    21A     -0.433005
      22A     -0.415844    23A     -0.398221    24A     -0.383946
      25A     -0.373688    26A     -0.344860    27A     -0.316299
      28A     -0.239579    29A     -0.206465    30A     -0.194266
      31A     -0.188825

  @DF-RHF Final Energy:  -382.32714093272216

   => Energetics <=

    Nuclear Repulsion Energy =            338.8036186372353882
    One-Electron Energy =               -1203.3466230824269587
    Two-Electron Energy =                 482.2158635124694683
    Total Energy =                       -382.3271409327221591
  Basis Set: (AUG-CC-PVTZ AUX)
    Blend: AUG-CC-PVTZ-RI
    Molecular point group: c1

    Geometry (in Angstrom), charge = -1, multiplicity = 1:

       Center              X                  Y                   Z               Mass
    ------------   -----------------  -----------------  -----------------  -----------------
         O           -2.907831183372    -0.813322712904    -0.574386004715    15.994914619570
         O           -2.291330183372     1.279084287096     0.066299995285    15.994914619570
         C            2.696919816628     0.343870287096    -0.575192004715    12.000000000000
         C            1.450084816628    -0.396069712904    -0.186846004715    12.000000000000
         C            0.352380816628     0.175806287096     0.334113995285    12.000000000000
         C           -0.899120183372    -0.550852712904     0.719296995285    12.000000000000
         C            3.914104816628    -0.105630712904     0.238459995285    12.000000000000
         C           -2.098418683372     0.024548787096     0.003783395285    12.000000000000
         H            2.906027816628     0.188093287096    -1.642181004715     1.007825032230
         H            2.536975816628     1.420355287096    -0.439596004715     1.007825032230
         H            1.466037816628    -1.479042712904    -0.333131004715     1.007825032230
         H            0.332005816628     1.256571287096     0.475281995285     1.007825032230
         H           -0.805758183372    -1.621433712904     0.508360995285     1.007825032230
         H           -1.072238183372    -0.437027712904     1.799928995285     1.007825032230
         H            4.091731816628    -1.178032712904     0.111271995285     1.007825032230
         H            3.754424816628     0.085193287096     1.303650995285     1.007825032230
         H            4.818450816628     0.425921287096    -0.073572004715     1.007825032230

  Basis Set: AUG-CC-PVTZ
    Blend: AUG-CC-PVTZ
  Basis Set: (AUG-CC-PVTZ AUX)
    Blend: AUG-CC-PVTZ-JKFIT
	 Reference Energy          =    -382.3271409327221591 [Eh]
	 Singles Energy            =      -0.0000000000000000 [Eh]
	 Same-Spin Energy          =      -0.3916797360170025 [Eh]
	 Opposite-Spin Energy      =      -1.2612780840267466 [Eh]
	 Correlation Energy        =      -1.6529578200437491 [Eh]
	 Total Energy              =    -383.9800987527659117 [Eh]

	 ================> DF-SCS-MP2 Energies <==================
	-----------------------------------------------------------
	 SCS Same-Spin Scale       =       0.3333333333333333 [-]
	 SCS Opposite-Spin Scale   =       1.2000000000000000 [-]
	 SCS Same-Spin Energy      =      -0.1305599120056675 [Eh]
	 SCS Opposite-Spin Energy  =      -1.5135337008320959 [Eh]
	 SCS Correlation Energy    =      -1.6440936128377635 [Eh]
	 SCS Total Energy          =    -383.9712345455599234 [Eh]
	-----------------------------------------------------------

  Dipole Moment: [D]
     X:    11.0845      Y:    -0.9381      Z:     1.6244     Total:    11.2421

*** Psi4 exiting successfully. Buy a developer a beer!
