                               Psi4 1.3.2 release

  ==> Input File <==

--------------------------------------------------------------------------
#psi4
#
memory 32 gb

molecule  {
-1 1
  O       -2.9118148    -0.9245683    -0.5606816
  O       -2.5144097     1.2716006    -0.0377025
  C        2.5515340     0.1562790    -0.6847320
  C        1.3133740    -0.4576390    -0.0973370
  C        0.1996320     0.2215300     0.2212070
  C       -1.0388440    -0.3710000     0.8261750
  C        3.7521530     0.0645780     0.2634350
  C       -2.2854840     0.0250790    -0.0044070
  H        2.8053070    -0.3466590    -1.6276820
  H        2.3518550     1.2059430    -0.9306210
  H        1.3523840    -1.5323490     0.0963350
  H        0.1538580     1.2934970     0.0216010
  H       -0.9504340    -1.4608690     0.8884060
  H       -1.1707130     0.0247460     1.8437960
  H        3.9732670    -0.9779260     0.5120620
  H        3.5426510     0.5954950     1.1964510
  H        4.6498360     0.5017940    -0.1852730
units angstrom
no_reorient  #important for SAPT in psi4, default
symmetry c1  #important for SAPT in psi4, default
}

set PROPERTIES_ORIGIN ["COM"]
properties('MP2/aug-cc-pvtz', properties = ['dipole'])
--------------------------------------------------------------------------

    Molecular point group: c1
  Charge       = -1
  Multiplicity = 1
  Basis Set: AUG-CC-PVTZ
    Blend: AUG-CC-PVTZ
  Basis Set: (AUG-CC-PVTZ AUX)
    Blend: AUG-CC-PVTZ-JKFIT

    Orbital Energies [Eh]
    ---------------------

    Doubly Occupied:

       1A    -20.299716     2A    -20.297847     3A    -11.145014
       4A    -11.123133     5A    -11.120727     6A    -11.099007
       7A    -11.094528     8A    -11.067034     9A     -1.165954
      10A     -1.068473    11A     -0.967944    12A     -0.899500
      13A     -0.805521    14A     -0.721533    15A     -0.621322
      16A     -0.532993    17A     -0.513525    18A     -0.499960
      19A     -0.452095    20A     -0.442428    21A     -0.432772
      22A     -0.414351    23A     -0.402197    24A     -0.382524
      25A     -0.373540    26A     -0.347857    27A     -0.324010
      28A     -0.237370    29A     -0.214276    30A     -0.198033
      31A     -0.187184

  @DF-RHF Final Energy:  -382.33304808188666

   => Energetics <=

    Nuclear Repulsion Energy =            339.0388839033324189
    One-Electron Energy =               -1203.8391260600260466
    Two-Electron Energy =                 482.4671940748070256
    Total Energy =                       -382.3330480818866590
  Basis Set: (AUG-CC-PVTZ AUX)
    Blend: AUG-CC-PVTZ-RI
    Molecular point group: c1

    Geometry (in Angstrom), charge = -1, multiplicity = 1:

       Center              X                  Y                   Z               Mass
    ------------   -----------------  -----------------  -----------------  -----------------
         O           -2.769900509020    -0.929122501844    -0.547858945612    15.994914619570
         O           -2.372495409020     1.267046398156    -0.024879845612    15.994914619570
         C            2.693448290980     0.151724798156    -0.671909345612    12.000000000000
         C            1.455288290980    -0.462193201844    -0.084514345612    12.000000000000
         C            0.341546290980     0.216975798156     0.234029654388    12.000000000000
         C           -0.896929709020    -0.375554201844     0.838997654388    12.000000000000
         C            3.894067290980     0.060023798156     0.276257654388    12.000000000000
         C           -2.143569709020     0.020524798156     0.008415654388    12.000000000000
         H            2.947221290980    -0.351213201844    -1.614859345612     1.007825032230
         H            2.493769290980     1.201388798156    -0.917798345612     1.007825032230
         H            1.494298290980    -1.536903201844     0.109157654388     1.007825032230
         H            0.295772290980     1.288942798156     0.034423654388     1.007825032230
         H           -0.808519709020    -1.465423201844     0.901228654388     1.007825032230
         H           -1.028798709020     0.020191798156     1.856618654388     1.007825032230
         H            4.115181290980    -0.982480201844     0.524884654388     1.007825032230
         H            3.684565290980     0.590940798156     1.209273654388     1.007825032230
         H            4.791750290980     0.497239798156    -0.172450345612     1.007825032230

  Basis Set: AUG-CC-PVTZ
    Blend: AUG-CC-PVTZ
  Basis Set: (AUG-CC-PVTZ AUX)
    Blend: AUG-CC-PVTZ-JKFIT
	 Reference Energy          =    -382.3330480818866590 [Eh]
	 Singles Energy            =      -0.0000000000000000 [Eh]
	 Same-Spin Energy          =      -0.3910333233699553 [Eh]
	 Opposite-Spin Energy      =      -1.2596902247021058 [Eh]
	 Correlation Energy        =      -1.6507235480720612 [Eh]
	 Total Energy              =    -383.9837716299587100 [Eh]

	 ================> DF-SCS-MP2 Energies <==================
	-----------------------------------------------------------
	 SCS Same-Spin Scale       =       0.3333333333333333 [-]
	 SCS Opposite-Spin Scale   =       1.2000000000000000 [-]
	 SCS Same-Spin Energy      =      -0.1303444411233184 [Eh]
	 SCS Opposite-Spin Energy  =      -1.5116282696425269 [Eh]
	 SCS Correlation Energy    =      -1.6419727107658453 [Eh]
	 SCS Total Energy          =    -383.9750207926525150 [Eh]
	-----------------------------------------------------------

  Dipole Moment: [D]
     X:    10.5890      Y:    -0.6836      Z:     1.6080     Total:    10.7322

*** Psi4 exiting successfully. Buy a developer a beer!
