                               Psi4 1.3.2 release

  ==> Input File <==

--------------------------------------------------------------------------
#psi4
#
memory 32 gb

molecule  {
-1 1
  O       -2.9259140    -0.9099280    -0.5693610
  O       -2.5318610     1.2678500    -0.0507790
  C        2.5515340     0.1562790    -0.6847320
  C        1.3133740    -0.4576390    -0.0973370
  C        0.1996320     0.2215300     0.2212070
  C       -1.0388440    -0.3710000     0.8261750
  C        3.7521530     0.0645780     0.2634350
  C       -2.2786606    -0.0604905     0.0118598
  H        2.8053070    -0.3466590    -1.6276820
  H        2.3518550     1.2059430    -0.9306210
  H        1.3523840    -1.5323490     0.0963350
  H        0.1917376     1.2951243     0.0252884
  H       -0.9504340    -1.4608690     0.8884060
  H       -1.1707130     0.0247460     1.8437960
  H        3.9732670    -0.9779260     0.5120620
  H        3.5426510     0.5954950     1.1964510
  H        4.6498360     0.5017940    -0.1852730
units angstrom
no_reorient  #important for SAPT in psi4, default
symmetry c1  #important for SAPT in psi4, default
}

set PROPERTIES_ORIGIN ["COM"]
properties('MP2/aug-cc-pvtz', properties = ['dipole'])
--------------------------------------------------------------------------

    Molecular point group: c1
  Charge       = -1
  Multiplicity = 1
  Basis Set: AUG-CC-PVTZ
    Blend: AUG-CC-PVTZ
  Basis Set: (AUG-CC-PVTZ AUX)
    Blend: AUG-CC-PVTZ-JKFIT

    Orbital Energies [Eh]
    ---------------------

    Doubly Occupied:

       1A    -20.314104     2A    -20.276079     3A    -11.143469
       4A    -11.124619     5A    -11.122600     6A    -11.101973
       7A    -11.097575     8A    -11.073845     9A     -1.178864
      10A     -1.033948    11A     -0.970385    12A     -0.903095
      13A     -0.812284    14A     -0.726647    15A     -0.624796
      16A     -0.538258    17A     -0.514266    18A     -0.502896
      19A     -0.455352    20A     -0.445838    21A     -0.437141
      22A     -0.416676    23A     -0.402109    24A     -0.384385
      25A     -0.371511    26A     -0.345771    27A     -0.324544
      28A     -0.238588    29A     -0.199619    30A     -0.191897
      31A     -0.184657

  @DF-RHF Final Energy:  -382.32031005557320

   => Energetics <=

    Nuclear Repulsion Energy =            338.7372691069559210
    One-Electron Energy =               -1203.1995794092990764
    Two-Electron Energy =                 482.1420002467700101
    Total Energy =                       -382.3203100555732021
  Basis Set: (AUG-CC-PVTZ AUX)
    Blend: AUG-CC-PVTZ-RI
    Molecular point group: c1

    Geometry (in Angstrom), charge = -1, multiplicity = 1:

       Center              X                  Y                   Z               Mass
    ------------   -----------------  -----------------  -----------------  -----------------
         O           -2.780598064948    -0.906955116856    -0.555219881316    15.994914619570
         O           -2.386545064948     1.270822883144    -0.036637881316    15.994914619570
         C            2.696849935052     0.159251883144    -0.670590881316    12.000000000000
         C            1.458689935052    -0.454666116856    -0.083195881316    12.000000000000
         C            0.344947935052     0.224502883144     0.235348118684    12.000000000000
         C           -0.893528064948    -0.368027116856     0.840316118684    12.000000000000
         C            3.897468935052     0.067550883144     0.277576118684    12.000000000000
         C           -2.133344664948    -0.057517616856     0.026000918684    12.000000000000
         H            2.950622935052    -0.343686116856    -1.613540881316     1.007825032230
         H            2.497170935052     1.208915883144    -0.916479881316     1.007825032230
         H            1.497699935052    -1.529376116856     0.110476118684     1.007825032230
         H            0.337053535052     1.298097183144     0.039429518684     1.007825032230
         H           -0.805118064948    -1.457896116856     0.902547118684     1.007825032230
         H           -1.025397064948     0.027718883144     1.857937118684     1.007825032230
         H            4.118582935052    -0.974953116856     0.526203118684     1.007825032230
         H            3.687966935052     0.598467883144     1.210592118684     1.007825032230
         H            4.795151935052     0.504766883144    -0.171131881316     1.007825032230

  Basis Set: AUG-CC-PVTZ
    Blend: AUG-CC-PVTZ
  Basis Set: (AUG-CC-PVTZ AUX)
    Blend: AUG-CC-PVTZ-JKFIT
	 Reference Energy          =    -382.3203100555732021 [Eh]
	 Singles Energy            =      -0.0000000000000000 [Eh]
	 Same-Spin Energy          =      -0.3914365319684261 [Eh]
	 Opposite-Spin Energy      =      -1.2610532663874481 [Eh]
	 Correlation Energy        =      -1.6524897983558742 [Eh]
	 Total Energy              =    -383.9727998539290752 [Eh]

	 ================> DF-SCS-MP2 Energies <==================
	-----------------------------------------------------------
	 SCS Same-Spin Scale       =       0.3333333333333333 [-]
	 SCS Opposite-Spin Scale   =       1.2000000000000000 [-]
	 SCS Same-Spin Energy      =      -0.1304788439894753 [Eh]
	 SCS Opposite-Spin Energy  =      -1.5132639196649376 [Eh]
	 SCS Correlation Energy    =      -1.6437427636544129 [Eh]
	 SCS Total Energy          =    -383.9640528192276179 [Eh]
	-----------------------------------------------------------

  Dipole Moment: [D]
     X:    10.8580      Y:    -1.5463      Z:     1.5883     Total:    11.0820

*** Psi4 exiting successfully. Buy a developer a beer!
