                               Psi4 1.3.2 release

  ==> Input File <==

--------------------------------------------------------------------------
#psi4
#
memory 32 gb

molecule  {
-1 1
  O       -2.9259140    -0.9099280    -0.5693610
  O       -2.5318610     1.2678500    -0.0507790
  C        2.5515340     0.1562790    -0.6847320
  C        1.3407791    -0.4694415    -0.0542442
  C        0.1996320     0.2215300     0.2212070
  C       -1.0388440    -0.3710000     0.8261750
  C        3.7209394     0.0396864     0.2990428
  C       -2.2854840     0.0250790    -0.0044070
  H        2.8053070    -0.3466590    -1.6276820
  H        2.3518550     1.2059430    -0.9306210
  H        1.3523840    -1.5323490     0.0963350
  H        0.1538580     1.2934970     0.0216010
  H       -0.9504340    -1.4608690     0.8884060
  H       -1.1707130     0.0247460     1.8437960
  H        3.9732670    -0.9779260     0.5120620
  H        3.5426510     0.5954950     1.1964510
  H        4.6498360     0.5017940    -0.1852730
units angstrom
no_reorient  #important for SAPT in psi4, default
symmetry c1  #important for SAPT in psi4, default
}

set PROPERTIES_ORIGIN ["COM"]
properties('MP2/aug-cc-pvtz', properties = ['dipole'])
--------------------------------------------------------------------------

    Molecular point group: c1
  Charge       = -1
  Multiplicity = 1
  Basis Set: AUG-CC-PVTZ
    Blend: AUG-CC-PVTZ
  Basis Set: (AUG-CC-PVTZ AUX)
    Blend: AUG-CC-PVTZ-JKFIT

    Orbital Energies [Eh]
    ---------------------

    Doubly Occupied:

       1A    -20.297857     2A    -20.296065     3A    -11.144091
       4A    -11.123136     5A    -11.121579     6A    -11.103129
       7A    -11.095845     8A    -11.069393     9A     -1.165697
      10A     -1.064869    11A     -0.968673    12A     -0.898690
      13A     -0.805141    14A     -0.720930    15A     -0.626666
      16A     -0.533489    17A     -0.519586    18A     -0.495275
      19A     -0.456527    20A     -0.435438    21A     -0.433162
      22A     -0.418943    23A     -0.400917    24A     -0.384804
      25A     -0.372701    26A     -0.350006    27A     -0.323633
      28A     -0.234261    29A     -0.211220    30A     -0.195698
      31A     -0.187576

  @DF-RHF Final Energy:  -382.32747740833702

   => Energetics <=

    Nuclear Repulsion Energy =            338.8539781856932791
    One-Electron Energy =               -1203.4529181968173361
    Two-Electron Energy =                 482.2714626027870963
    Total Energy =                       -382.3274774083370176
  Basis Set: (AUG-CC-PVTZ AUX)
    Blend: AUG-CC-PVTZ-RI
    Molecular point group: c1

    Geometry (in Angstrom), charge = -1, multiplicity = 1:

       Center              X                  Y                   Z               Mass
    ------------   -----------------  -----------------  -----------------  -----------------
         O           -2.779131954600    -0.912128152852    -0.561813616215    15.994914619570
         O           -2.385078954600     1.265649847148    -0.043231616215    15.994914619570
         C            2.698316045400     0.154078847148    -0.677184616215    12.000000000000
         C            1.487561145400    -0.471641652852    -0.046696816215    12.000000000000
         C            0.346414045400     0.219329847148     0.228754383785    12.000000000000
         C           -0.892061954600    -0.373200152852     0.833722383785    12.000000000000
         C            3.867721445400     0.037486247148     0.306590183785    12.000000000000
         C           -2.138701954600     0.022878847148     0.003140383785    12.000000000000
         H            2.952089045400    -0.348859152852    -1.620134616215     1.007825032230
         H            2.498637045400     1.203742847148    -0.923073616215     1.007825032230
         H            1.499166045400    -1.534549152852     0.103882383785     1.007825032230
         H            0.300640045400     1.291296847148     0.029148383785     1.007825032230
         H           -0.803651954600    -1.463069152852     0.895953383785     1.007825032230
         H           -1.023930954600     0.022545847148     1.851343383785     1.007825032230
         H            4.120049045400    -0.980126152852     0.519609383785     1.007825032230
         H            3.689433045400     0.593294847148     1.203998383785     1.007825032230
         H            4.796618045400     0.499593847148    -0.177725616215     1.007825032230

  Basis Set: AUG-CC-PVTZ
    Blend: AUG-CC-PVTZ
  Basis Set: (AUG-CC-PVTZ AUX)
    Blend: AUG-CC-PVTZ-JKFIT
	 Reference Energy          =    -382.3274774083370176 [Eh]
	 Singles Energy            =      -0.0000000000000000 [Eh]
	 Same-Spin Energy          =      -0.3912605571285592 [Eh]
	 Opposite-Spin Energy      =      -1.2603780499509174 [Eh]
	 Correlation Energy        =      -1.6516386070794766 [Eh]
	 Total Energy              =    -383.9791160154164800 [Eh]

	 ================> DF-SCS-MP2 Energies <==================
	-----------------------------------------------------------
	 SCS Same-Spin Scale       =       0.3333333333333333 [-]
	 SCS Opposite-Spin Scale   =       1.2000000000000000 [-]
	 SCS Same-Spin Energy      =      -0.1304201857095197 [Eh]
	 SCS Opposite-Spin Energy  =      -1.5124536599411009 [Eh]
	 SCS Correlation Energy    =      -1.6428738456506207 [Eh]
	 SCS Total Energy          =    -383.9703512539876442 [Eh]
	-----------------------------------------------------------

  Dipole Moment: [D]
     X:    10.6377      Y:    -0.7729      Z:     1.6563     Total:    10.7936

*** Psi4 exiting successfully. Buy a developer a beer!
