                               Psi4 1.3.2 release

  ==> Input File <==

--------------------------------------------------------------------------
#psi4
#
memory 32 gb

molecule  {
-1 1
  O       -2.9259140    -0.9099280    -0.5693610
  O       -2.5318610     1.2678500    -0.0507790
  C        2.5159449     0.2262962    -0.6813098
  C        1.3133740    -0.4576390    -0.0973370
  C        0.1996320     0.2215300     0.2212070
  C       -1.0382762    -0.2401922     0.8058619
  C        3.7521530     0.0645780     0.2634350
  C       -2.2854840     0.0250790    -0.0044070
  H        2.8053070    -0.3466590    -1.6276820
  H        2.3518550     1.2059430    -0.9306210
  H        1.3523840    -1.5323490     0.0963350
  H        0.1538580     1.2934970     0.0216010
  H       -0.9504340    -1.4608690     0.8884060
  H       -1.1707130     0.0247460     1.8437960
  H        3.9732670    -0.9779260     0.5120620
  H        3.5426510     0.5954950     1.1964510
  H        4.6498360     0.5017940    -0.1852730
units angstrom
no_reorient  #important for SAPT in psi4, default
symmetry c1  #important for SAPT in psi4, default
}

set PROPERTIES_ORIGIN ["COM"]
properties('MP2/aug-cc-pvtz', properties = ['dipole'])
--------------------------------------------------------------------------

    Molecular point group: c1
  Charge       = -1
  Multiplicity = 1
  Basis Set: AUG-CC-PVTZ
    Blend: AUG-CC-PVTZ
  Basis Set: (AUG-CC-PVTZ AUX)
    Blend: AUG-CC-PVTZ-JKFIT

    Orbital Energies [Eh]
    ---------------------

    Doubly Occupied:

       1A    -20.300268     2A    -20.293908     3A    -11.142831
       4A    -11.125674     5A    -11.123011     6A    -11.100381
       7A    -11.097415     8A    -11.075307     9A     -1.167819
      10A     -1.066064    11A     -0.970998    12A     -0.904218
      13A     -0.810986    14A     -0.726125    15A     -0.629306
      16A     -0.539430    17A     -0.515669    18A     -0.502077
      19A     -0.464106    20A     -0.439841    21A     -0.436689
      22A     -0.411892    23A     -0.401798    24A     -0.388969
      25A     -0.375262    26A     -0.329527    27A     -0.316836
      28A     -0.239123    29A     -0.207385    30A     -0.195540
      31A     -0.192625

  @DF-RHF Final Energy:  -382.30746921384554

   => Energetics <=

    Nuclear Repulsion Energy =            339.8662036428054876
    One-Electron Energy =               -1205.3651844107403122
    Two-Electron Energy =                 483.1915115540893453
    Total Energy =                       -382.3074692138455362
  Basis Set: (AUG-CC-PVTZ AUX)
    Blend: AUG-CC-PVTZ-RI
    Molecular point group: c1

    Geometry (in Angstrom), charge = -1, multiplicity = 1:

       Center              X                  Y                   Z               Mass
    ------------   -----------------  -----------------  -----------------  -----------------
         O           -2.775819087478    -0.937337977576    -0.551667716537    15.994914619570
         O           -2.381766087478     1.240440022424    -0.033085716537    15.994914619570
         C            2.666039812522     0.198886222424    -0.663616516537    12.000000000000
         C            1.463468912522    -0.485048977576    -0.079643716537    12.000000000000
         C            0.349726912522     0.194120022424     0.238900283463    12.000000000000
         C           -0.888181287478    -0.267602177576     0.823555183463    12.000000000000
         C            3.902247912522     0.037168022424     0.281128283463    12.000000000000
         C           -2.135389087478    -0.002330977576     0.013286283463    12.000000000000
         H            2.955401912522    -0.374068977576    -1.609988716537     1.007825032230
         H            2.501949912522     1.178533022424    -0.912927716537     1.007825032230
         H            1.502478912522    -1.559758977576     0.114028283463     1.007825032230
         H            0.303952912522     1.266087022424     0.039294283463     1.007825032230
         H           -0.800339087478    -1.488278977576     0.906099283463     1.007825032230
         H           -1.020618087478    -0.002663977576     1.861489283463     1.007825032230
         H            4.123361912522    -1.005335977576     0.529755283463     1.007825032230
         H            3.692745912522     0.568085022424     1.214144283463     1.007825032230
         H            4.799930912522     0.474384022424    -0.167579716537     1.007825032230

  Basis Set: AUG-CC-PVTZ
    Blend: AUG-CC-PVTZ
  Basis Set: (AUG-CC-PVTZ AUX)
    Blend: AUG-CC-PVTZ-JKFIT
	 Reference Energy          =    -382.3074692138455362 [Eh]
	 Singles Energy            =      -0.0000000000000000 [Eh]
	 Same-Spin Energy          =      -0.3919567053026683 [Eh]
	 Opposite-Spin Energy      =      -1.2617369567146506 [Eh]
	 Correlation Energy        =      -1.6536936620173188 [Eh]
	 Total Energy              =    -383.9611628758628399 [Eh]

	 ================> DF-SCS-MP2 Energies <==================
	-----------------------------------------------------------
	 SCS Same-Spin Scale       =       0.3333333333333333 [-]
	 SCS Opposite-Spin Scale   =       1.2000000000000000 [-]
	 SCS Same-Spin Energy      =      -0.1306522351008894 [Eh]
	 SCS Opposite-Spin Energy  =      -1.5140843480575807 [Eh]
	 SCS Correlation Energy    =      -1.6447365831584702 [Eh]
	 SCS Total Energy          =    -383.9522057970040123 [Eh]
	-----------------------------------------------------------

  Dipole Moment: [D]
     X:    10.7073      Y:    -0.4808      Z:     1.6525     Total:    10.8448

*** Psi4 exiting successfully. Buy a developer a beer!
