                               Psi4 1.3.2 release

  ==> Input File <==

--------------------------------------------------------------------------
#psi4
#
memory 32 gb

molecule  {
-1 1
  O       -2.9259140    -0.9099280    -0.5693610
  O       -2.5318610     1.2678500    -0.0507790
  C        2.5515340     0.1562790    -0.6847320
  C        1.3133740    -0.4576390    -0.0973370
  C        0.1852517     0.1799480     0.1561401
  C       -1.0388440    -0.3710000     0.8261750
  C        3.7521530     0.0645780     0.2634350
  C       -2.2854840     0.0250790    -0.0044070
  H        2.8053070    -0.3466590    -1.6276820
  H        2.3518550     1.2059430    -0.9306210
  H        1.3523840    -1.5323490     0.0963350
  H        0.1538580     1.2934970     0.0216010
  H       -0.9504340    -1.4608690     0.8884060
  H       -1.2184531    -0.0071171     1.8483720
  H        3.9732670    -0.9779260     0.5120620
  H        3.5426510     0.5954950     1.1964510
  H        4.6498360     0.5017940    -0.1852730
units angstrom
no_reorient  #important for SAPT in psi4, default
symmetry c1  #important for SAPT in psi4, default
}

set PROPERTIES_ORIGIN ["COM"]
properties('MP2/aug-cc-pvtz', properties = ['dipole'])
--------------------------------------------------------------------------

    Molecular point group: c1
  Charge       = -1
  Multiplicity = 1
  Basis Set: AUG-CC-PVTZ
    Blend: AUG-CC-PVTZ
  Basis Set: (AUG-CC-PVTZ AUX)
    Blend: AUG-CC-PVTZ-JKFIT

    Orbital Energies [Eh]
    ---------------------

    Doubly Occupied:

       1A    -20.296305     2A    -20.295168     3A    -11.142414
       4A    -11.124658     5A    -11.122288     6A    -11.099508
       7A    -11.093820     8A    -11.069251     9A     -1.164641
      10A     -1.063692    11A     -0.971404    12A     -0.902168
      13A     -0.808604    14A     -0.725095    15A     -0.617947
      16A     -0.531535    17A     -0.514622    18A     -0.500625
      19A     -0.458638    20A     -0.442277    21A     -0.431316
      22A     -0.414683    23A     -0.399751    24A     -0.385625
      25A     -0.372963    26A     -0.338706    27A     -0.324949
      28A     -0.242450    29A     -0.210033    30A     -0.194608
      31A     -0.189222

  @DF-RHF Final Energy:  -382.32934514968485

   => Energetics <=

    Nuclear Repulsion Energy =            339.1611320673628711
    One-Electron Energy =               -1204.0830204607204905
    Two-Electron Energy =                 482.5925432436728215
    Total Energy =                       -382.3293451496848547
  Basis Set: (AUG-CC-PVTZ AUX)
    Blend: AUG-CC-PVTZ-RI
    Molecular point group: c1

    Geometry (in Angstrom), charge = -1, multiplicity = 1:

       Center              X                  Y                   Z               Mass
    ------------   -----------------  -----------------  -----------------  -----------------
         O           -2.777584326138    -0.911325331116    -0.546595198391    15.994914619570
         O           -2.383531326138     1.266452668884    -0.028013198391    15.994914619570
         C            2.699863673862     0.154881668884    -0.661966198391    12.000000000000
         C            1.461703673862    -0.459036331116    -0.074571198391    12.000000000000
         C            0.333581373862     0.178550668884     0.178905901609    12.000000000000
         C           -0.890514326138    -0.372397331116     0.848940801609    12.000000000000
         C            3.900482673862     0.063180668884     0.286200801609    12.000000000000
         C           -2.137154326138     0.023681668884     0.018358801609    12.000000000000
         H            2.953636673862    -0.348056331116    -1.604916198391     1.007825032230
         H            2.500184673862     1.204545668884    -0.907855198391     1.007825032230
         H            1.500713673862    -1.533746331116     0.119100801609     1.007825032230
         H            0.302187673862     1.292099668884     0.044366801609     1.007825032230
         H           -0.802104326138    -1.462266331116     0.911171801609     1.007825032230
         H           -1.070123426138    -0.008514431116     1.871137801609     1.007825032230
         H            4.121596673862    -0.979323331116     0.534827801609     1.007825032230
         H            3.690980673862     0.594097668884     1.219216801609     1.007825032230
         H            4.798165673862     0.500396668884    -0.162507198391     1.007825032230

  Basis Set: AUG-CC-PVTZ
    Blend: AUG-CC-PVTZ
  Basis Set: (AUG-CC-PVTZ AUX)
    Blend: AUG-CC-PVTZ-JKFIT
	 Reference Energy          =    -382.3293451496848547 [Eh]
	 Singles Energy            =      -0.0000000000000000 [Eh]
	 Same-Spin Energy          =      -0.3909747348521430 [Eh]
	 Opposite-Spin Energy      =      -1.2595872942906534 [Eh]
	 Correlation Energy        =      -1.6505620291427965 [Eh]
	 Total Energy              =    -383.9799071788276592 [Eh]

	 ================> DF-SCS-MP2 Energies <==================
	-----------------------------------------------------------
	 SCS Same-Spin Scale       =       0.3333333333333333 [-]
	 SCS Opposite-Spin Scale   =       1.2000000000000000 [-]
	 SCS Same-Spin Energy      =      -0.1303249116173810 [Eh]
	 SCS Opposite-Spin Energy  =      -1.5115047531487840 [Eh]
	 SCS Correlation Energy    =      -1.6418296647661650 [Eh]
	 SCS Total Energy          =    -383.9711748144510466 [Eh]
	-----------------------------------------------------------

  Dipole Moment: [D]
     X:    10.7780      Y:    -0.7445      Z:     1.6917     Total:    10.9353

*** Psi4 exiting successfully. Buy a developer a beer!
