                               Psi4 1.4a3.dev225

  ==> Input File <==

--------------------------------------------------------------------------
#psi4
#
memory 32 gb

molecule  {
-1 1
  O       -3.0493610    -0.8021490    -0.5876160
  O       -2.4328600     1.2902580     0.0530700
  C        2.5553900     0.3550440    -0.5884220
  C        1.3085550    -0.3848960    -0.2000760
  C        0.2108510     0.1869800     0.3208840
  C       -1.0406500    -0.5396790     0.7060670
  C        3.7725750    -0.0944570     0.2252300
  C       -2.3194378    -0.0003181    -0.0386961
  H        2.7644980     0.1992670    -1.6554110
  H        2.3954460     1.4315290    -0.4528260
  H        1.3245080    -1.4678690    -0.3463610
  H        0.1904760     1.2677450     0.4620520
  H       -0.9472880    -1.6102600     0.4951310
  H       -1.2137680    -0.4258540     1.7866990
  H        3.9502020    -1.1668590     0.0980420
  H        3.6128950     0.0963670     1.2904210
  H        4.6769210     0.4370950    -0.0868020
units angstrom
no_reorient  #important for SAPT in psi4, default
symmetry c1  #important for SAPT in psi4, default
}

set PROPERTIES_ORIGIN ["COM"]
properties('MP2/aug-cc-pvtz', properties = ['dipole'])
--------------------------------------------------------------------------

    Molecular point group: c1
  Charge       = -1
  Multiplicity = 1
  Basis Set: AUG-CC-PVTZ
    Blend: AUG-CC-PVTZ
  Basis Set: (AUG-CC-PVTZ AUX)
    Blend: AUG-CC-PVTZ-JKFIT

    Orbital Energies [Eh]
    ---------------------

    Doubly Occupied:

       1A    -20.309809     2A    -20.287129     3A    -11.144116
       4A    -11.122254     5A    -11.119353     6A    -11.096837
       7A    -11.092651     8A    -11.066957     9A     -1.182538
      10A     -1.065041    11A     -0.966704    12A     -0.897513
      13A     -0.802418    14A     -0.719308    15A     -0.620365
      16A     -0.530269    17A     -0.510808    18A     -0.500752
      19A     -0.451215    20A     -0.441694    21A     -0.435400
      22A     -0.413868    23A     -0.405422    24A     -0.382508
      25A     -0.375553    26A     -0.343545    27A     -0.330568
      28A     -0.239745    29A     -0.211052    30A     -0.197835
      31A     -0.183689

  @DF-RHF Final Energy:  -382.33205069571028

   => Energetics <=

    Nuclear Repulsion Energy =            338.6150758034669366
    One-Electron Energy =               -1203.0004195487822471
    Two-Electron Energy =                 482.0532930496050881
    Total Energy =                       -382.3320506957102793
  Basis Set: (AUG-CC-PVTZ AUX)
    Blend: AUG-CC-PVTZ-RI
    Molecular point group: c1

    Geometry (in Angstrom), charge = -1, multiplicity = 1:

       Center              X                  Y                   Z               Mass
    ------------   -----------------  -----------------  -----------------  -----------------
         O           -2.899394340523    -0.809497432289    -0.571281518515    15.994914619570
         O           -2.282893340523     1.282909567711     0.069404481485    15.994914619570
         C            2.705356659477     0.347695567711    -0.572087518515    12.000000000000
         C            1.458521659477    -0.392244432289    -0.183741518515    12.000000000000
         C            0.360817659477     0.179631567711     0.337218481485    12.000000000000
         C           -0.890683340523    -0.547027432289     0.722401481485    12.000000000000
         C            3.922541659477    -0.101805432289     0.241564481485    12.000000000000
         C           -2.169471140523    -0.007666532289    -0.022361618515    12.000000000000
         H            2.914464659477     0.191918567711    -1.639076518515     1.007825032230
         H            2.545412659477     1.424180567711    -0.436491518515     1.007825032230
         H            1.474474659477    -1.475217432289    -0.330026518515     1.007825032230
         H            0.340442659477     1.260396567711     0.478386481485     1.007825032230
         H           -0.797321340523    -1.617608432289     0.511465481485     1.007825032230
         H           -1.063801340523    -0.433202432289     1.803033481485     1.007825032230
         H            4.100168659477    -1.174207432289     0.114376481485     1.007825032230
         H            3.762861659477     0.089018567711     1.306755481485     1.007825032230
         H            4.826887659477     0.429746567711    -0.070467518515     1.007825032230

  Basis Set: AUG-CC-PVTZ
    Blend: AUG-CC-PVTZ
  Basis Set: (AUG-CC-PVTZ AUX)
    Blend: AUG-CC-PVTZ-JKFIT
	 Reference Energy          =    -382.3320506957102793 [Eh]
	 Singles Energy            =      -0.0000000000000000 [Eh]
	 Same-Spin Energy          =      -0.3905371713070607 [Eh]
	 Opposite-Spin Energy      =      -1.2585513318167458 [Eh]
	 Correlation Energy        =      -1.6490885031238065 [Eh]
	 Total Energy              =    -383.9811391988340574 [Eh]

	 ================> DF-SCS-MP2 Energies <==================
	-----------------------------------------------------------
	 SCS Same-Spin Scale       =       0.3333333333333333 [-]
	 SCS Opposite-Spin Scale   =       1.2000000000000000 [-]
	 SCS Same-Spin Energy      =      -0.1301790571023536 [Eh]
	 SCS Opposite-Spin Energy  =      -1.5102615981800949 [Eh]
	 SCS Correlation Energy    =      -1.6404406552824484 [Eh]
	 SCS Total Energy          =    -383.9724913509927546 [Eh]
	-----------------------------------------------------------

  Dipole Moment: [D]
     X:    10.4058      Y:    -1.4060      Z:     1.2657     Total:    10.5764

*** Psi4 exiting successfully. Buy a developer a beer!
