                               Psi4 1.4a3.dev225

  ==> Input File <==

--------------------------------------------------------------------------
#psi4
#
memory 32 gb

molecule  {
-1 1
  O       -3.0493610    -0.8021490    -0.5876160
  O       -2.4328600     1.2902580     0.0530700
  C        2.5553900     0.3550440    -0.5884220
  C        1.3085550    -0.3848960    -0.2000760
  C        0.2108510     0.1869800     0.3208840
  C       -0.9988650    -0.5154174     0.6932066
  C        3.7725750    -0.0944570     0.2252300
  C       -2.2894080     0.0326700    -0.0161130
  H        2.7644980     0.1992670    -1.6554110
  H        2.3954460     1.4315290    -0.4528260
  H        1.3245080    -1.4678690    -0.3463610
  H        0.1904760     1.2677450     0.4620520
  H       -0.9472880    -1.6102600     0.4951310
  H       -1.2137680    -0.4258540     1.7866990
  H        3.9502020    -1.1668590     0.0980420
  H        3.6128950     0.0963670     1.2904210
  H        4.6769210     0.4370950    -0.0868020
units angstrom
no_reorient  #important for SAPT in psi4, default
symmetry c1  #important for SAPT in psi4, default
}

set PROPERTIES_ORIGIN ["COM"]
properties('MP2/aug-cc-pvtz', properties = ['dipole'])
--------------------------------------------------------------------------

    Molecular point group: c1
  Charge       = -1
  Multiplicity = 1
  Basis Set: AUG-CC-PVTZ
    Blend: AUG-CC-PVTZ
  Basis Set: (AUG-CC-PVTZ AUX)
    Blend: AUG-CC-PVTZ-JKFIT

    Orbital Energies [Eh]
    ---------------------

    Doubly Occupied:

       1A    -20.299828     2A    -20.296498     3A    -11.146690
       4A    -11.123248     5A    -11.120504     6A    -11.096545
       7A    -11.094278     8A    -11.069677     9A     -1.166357
      10A     -1.066242    11A     -0.970301    12A     -0.905720
      13A     -0.805943    14A     -0.719817    15A     -0.623245
      16A     -0.532993    17A     -0.512884    18A     -0.501794
      19A     -0.457605    20A     -0.441879    21A     -0.431306
      22A     -0.414804    23A     -0.400901    24A     -0.382628
      25A     -0.374107    26A     -0.345530    27A     -0.326038
      28A     -0.240806    29A     -0.212090    30A     -0.197009
      31A     -0.184192

  @DF-RHF Final Energy:  -382.33048127009636

   => Energetics <=

    Nuclear Repulsion Energy =            339.0374613582425241
    One-Electron Energy =               -1203.8129677863148572
    Two-Electron Energy =                 482.4450251579759197
    Total Energy =                       -382.3304812700963566
  Basis Set: (AUG-CC-PVTZ AUX)
    Blend: AUG-CC-PVTZ-RI
    Molecular point group: c1

    Geometry (in Angstrom), charge = -1, multiplicity = 1:

       Center              X                  Y                   Z               Mass
    ------------   -----------------  -----------------  -----------------  -----------------
         O           -2.907016626565    -0.815573806368    -0.572313467368    15.994914619570
         O           -2.290515626565     1.276833193632     0.068372532632    15.994914619570
         C            2.697734373435     0.341619193632    -0.573119467368    12.000000000000
         C            1.450899373435    -0.398320806368    -0.184773467368    12.000000000000
         C            0.353195373435     0.173555193632     0.336186532632    12.000000000000
         C           -0.856520626565    -0.528842206368     0.708509132632    12.000000000000
         C            3.914919373435    -0.107881806368     0.240532532632    12.000000000000
         C           -2.147063626565     0.019245193632    -0.000810467368    12.000000000000
         H            2.906842373435     0.185842193632    -1.640108467368     1.007825032230
         H            2.537790373435     1.418104193632    -0.437523467368     1.007825032230
         H            1.466852373435    -1.481293806368    -0.331058467368     1.007825032230
         H            0.332820373435     1.254320193632     0.477354532632     1.007825032230
         H           -0.804943626565    -1.623684806368     0.510433532632     1.007825032230
         H           -1.071423626565    -0.439278806368     1.802001532632     1.007825032230
         H            4.092546373435    -1.180283806368     0.113344532632     1.007825032230
         H            3.755239373435     0.082942193632     1.305723532632     1.007825032230
         H            4.819265373435     0.423670193632    -0.071499467368     1.007825032230

  Basis Set: AUG-CC-PVTZ
    Blend: AUG-CC-PVTZ
  Basis Set: (AUG-CC-PVTZ AUX)
    Blend: AUG-CC-PVTZ-JKFIT
	 Reference Energy          =    -382.3304812700963566 [Eh]
	 Singles Energy            =      -0.0000000000000000 [Eh]
	 Same-Spin Energy          =      -0.3915368211053730 [Eh]
	 Opposite-Spin Energy      =      -1.2600397271100836 [Eh]
	 Correlation Energy        =      -1.6515765482154565 [Eh]
	 Total Energy              =    -383.9820578183118300 [Eh]

	 ================> DF-SCS-MP2 Energies <==================
	-----------------------------------------------------------
	 SCS Same-Spin Scale       =       0.3333333333333333 [-]
	 SCS Opposite-Spin Scale   =       1.2000000000000000 [-]
	 SCS Same-Spin Energy      =      -0.1305122737017910 [Eh]
	 SCS Opposite-Spin Energy  =      -1.5120476725321004 [Eh]
	 SCS Correlation Energy    =      -1.6425599462338913 [Eh]
	 SCS Total Energy          =    -383.9730412163302731 [Eh]
	-----------------------------------------------------------

  Dipole Moment: [D]
     X:    10.6520      Y:    -0.9820      Z:     1.4316     Total:    10.7926

*** Psi4 exiting successfully. Buy a developer a beer!
