                               Psi4 1.3.2 release

  ==> Input File <==

--------------------------------------------------------------------------
#psi4
#
memory 32 gb

molecule  {
-1 1
  O       -2.9259140    -0.9099280    -0.5693610
  O       -2.5318610     1.2678500    -0.0507790
  C        2.5515340     0.1562790    -0.6847320
  C        1.3133740    -0.4576390    -0.0973370
  C        0.1996320     0.2215300     0.2212070
  C       -0.8527876    -0.3778530     0.7531268
  C        3.7521530     0.0645780     0.2634350
  C       -2.2854840     0.0250790    -0.0044070
  H        2.8053070    -0.3466590    -1.6276820
  H        2.3518550     1.2059430    -0.9306210
  H        1.3523840    -1.5323490     0.0963350
  H        0.1538580     1.2934970     0.0216010
  H       -0.9504340    -1.4608690     0.8884060
  H       -1.1707130     0.0247460     1.8437960
  H        3.9732670    -0.9779260     0.5120620
  H        3.5426510     0.5954950     1.1964510
  H        4.6498360     0.5017940    -0.1852730
units angstrom
no_reorient  #important for SAPT in psi4, default
symmetry c1  #important for SAPT in psi4, default
}

set PROPERTIES_ORIGIN ["COM"]
properties('MP2/aug-cc-pvtz', properties = ['dipole'])
--------------------------------------------------------------------------

    Molecular point group: c1
  Charge       = -1
  Multiplicity = 1
  Basis Set: AUG-CC-PVTZ
    Blend: AUG-CC-PVTZ
  Basis Set: (AUG-CC-PVTZ AUX)
    Blend: AUG-CC-PVTZ-JKFIT

    Orbital Energies [Eh]
    ---------------------

    Doubly Occupied:

       1A    -20.305981     2A    -20.302589     3A    -11.156793
       4A    -11.121206     5A    -11.117847     6A    -11.089823
       7A    -11.087753     8A    -11.070165     9A     -1.168460
      10A     -1.069705    11A     -0.978420    12A     -0.919822
      13A     -0.802861    14A     -0.710891    15A     -0.624114
      16A     -0.535945    17A     -0.516457    18A     -0.497895
      19A     -0.469529    20A     -0.442642    21A     -0.421959
      22A     -0.411797    23A     -0.399055    24A     -0.382752
      25A     -0.368918    26A     -0.358683    27A     -0.329107
      28A     -0.242531    29A     -0.215606    30A     -0.201179
      31A     -0.164107

  @DF-RHF Final Energy:  -382.29086684270999

   => Energetics <=

    Nuclear Repulsion Energy =            339.8784959170066031
    One-Electron Energy =               -1205.3695469364402015
    Two-Electron Energy =                 483.2001841767236101
    Total Energy =                       -382.2908668427099883
  Basis Set: (AUG-CC-PVTZ AUX)
    Blend: AUG-CC-PVTZ-RI
    Molecular point group: c1

    Geometry (in Angstrom), charge = -1, multiplicity = 1:

       Center              X                  Y                   Z               Mass
    ------------   -----------------  -----------------  -----------------  -----------------
         O           -2.799283853333    -0.915295430349    -0.545707287712    15.994914619570
         O           -2.405230853333     1.262482569651    -0.027125287712    15.994914619570
         C            2.678164146667     0.150911569651    -0.661078287712    12.000000000000
         C            1.440004146667    -0.463006430349    -0.073683287712    12.000000000000
         C            0.326262146667     0.216162569651     0.244860712288    12.000000000000
         C           -0.726157453333    -0.383220430349     0.776780512288    12.000000000000
         C            3.878783146667     0.059210569651     0.287088712288    12.000000000000
         C           -2.158853853333     0.019711569651     0.019246712288    12.000000000000
         H            2.931937146667    -0.352026430349    -1.604028287712     1.007825032230
         H            2.478485146667     1.200575569651    -0.906967287712     1.007825032230
         H            1.479014146667    -1.537716430349     0.119988712288     1.007825032230
         H            0.280488146667     1.288129569651     0.045254712288     1.007825032230
         H           -0.823803853333    -1.466236430349     0.912059712288     1.007825032230
         H           -1.044082853333     0.019378569651     1.867449712288     1.007825032230
         H            4.099897146667    -0.983293430349     0.535715712288     1.007825032230
         H            3.669281146667     0.590127569651     1.220104712288     1.007825032230
         H            4.776466146667     0.496426569651    -0.161619287712     1.007825032230

  Basis Set: AUG-CC-PVTZ
    Blend: AUG-CC-PVTZ
  Basis Set: (AUG-CC-PVTZ AUX)
    Blend: AUG-CC-PVTZ-JKFIT
	 Reference Energy          =    -382.2908668427099883 [Eh]
	 Singles Energy            =      -0.0000000000000000 [Eh]
	 Same-Spin Energy          =      -0.3948151125615224 [Eh]
	 Opposite-Spin Energy      =      -1.2641242597829434 [Eh]
	 Correlation Energy        =      -1.6589393723444656 [Eh]
	 Total Energy              =    -383.9498062150544797 [Eh]

	 ================> DF-SCS-MP2 Energies <==================
	-----------------------------------------------------------
	 SCS Same-Spin Scale       =       0.3333333333333333 [-]
	 SCS Opposite-Spin Scale   =       1.2000000000000000 [-]
	 SCS Same-Spin Energy      =      -0.1316050375205075 [Eh]
	 SCS Opposite-Spin Energy  =      -1.5169491117395320 [Eh]
	 SCS Correlation Energy    =      -1.6485541492600393 [Eh]
	 SCS Total Energy          =    -383.9394209919700529 [Eh]
	-----------------------------------------------------------

  Dipole Moment: [D]
     X:    10.1306      Y:    -0.6435      Z:     1.4359     Total:    10.2521

*** Psi4 exiting successfully. Buy a developer a beer!
