                               Psi4 1.3.2 release

  ==> Input File <==

--------------------------------------------------------------------------
#psi4
#
memory 32 gb

molecule  {
-1 1
  O       -2.9259140    -0.9099280    -0.5693610
  O       -2.5318610     1.2678500    -0.0507790
  C        2.5848935     0.0851000    -0.6835459
  C        1.3133740    -0.4576390    -0.0973370
  C        0.1996320     0.2215300     0.2212070
  C       -1.0388440    -0.3710000     0.8261750
  C        3.7521530     0.0645780     0.2634350
  C       -2.2854840     0.0250790    -0.0044070
  H        2.8053070    -0.3466590    -1.6276820
  H        2.3518550     1.2059430    -0.9306210
  H        1.4059033    -1.5325256     0.0761257
  H        0.1538580     1.2934970     0.0216010
  H       -0.9504340    -1.4608690     0.8884060
  H       -1.1707130     0.0247460     1.8437960
  H        3.9732670    -0.9779260     0.5120620
  H        3.5426510     0.5954950     1.1964510
  H        4.6498360     0.5017940    -0.1852730
units angstrom
no_reorient  #important for SAPT in psi4, default
symmetry c1  #important for SAPT in psi4, default
}

set PROPERTIES_ORIGIN ["COM"]
properties('MP2/aug-cc-pvtz', properties = ['dipole'])
--------------------------------------------------------------------------

    Molecular point group: c1
  Charge       = -1
  Multiplicity = 1
  Basis Set: AUG-CC-PVTZ
    Blend: AUG-CC-PVTZ
  Basis Set: (AUG-CC-PVTZ AUX)
    Blend: AUG-CC-PVTZ-JKFIT

    Orbital Energies [Eh]
    ---------------------

    Doubly Occupied:

       1A    -20.297956     2A    -20.296107     3A    -11.144284
       4A    -11.123560     5A    -11.122346     6A    -11.102808
       7A    -11.096868     8A    -11.070263     9A     -1.165783
      10A     -1.064936    11A     -0.971214    12A     -0.903914
      13A     -0.807937    14A     -0.722481    15A     -0.621466
      16A     -0.535081    17A     -0.515097    18A     -0.502204
      19A     -0.451962    20A     -0.448656    21A     -0.434865
      22A     -0.425115    23A     -0.401759    24A     -0.382006
      25A     -0.357896    26A     -0.342925    27A     -0.324199
      28A     -0.239940    29A     -0.211277    30A     -0.195709
      31A     -0.190204

  @DF-RHF Final Energy:  -382.32526588841665

   => Energetics <=

    Nuclear Repulsion Energy =            338.8092677487180140
    One-Electron Energy =               -1203.3274297033785842
    Two-Electron Energy =                 482.1928960662439749
    Total Energy =                       -382.3252658884166522
  Basis Set: (AUG-CC-PVTZ AUX)
    Blend: AUG-CC-PVTZ-RI
    Molecular point group: c1

    Geometry (in Angstrom), charge = -1, multiplicity = 1:

       Center              X                  Y                   Z               Mass
    ------------   -----------------  -----------------  -----------------  -----------------
         O           -2.783553969147    -0.908466417049    -0.553406228115    15.994914619570
         O           -2.389500969147     1.269311582951    -0.034824228115    15.994914619570
         C            2.727253530853     0.086561582951    -0.667591128115    12.000000000000
         C            1.455734030853    -0.456177417049    -0.081382228115    12.000000000000
         C            0.341992030853     0.222991582951     0.237161771885    12.000000000000
         C           -0.896483969147    -0.369538417049     0.842129771885    12.000000000000
         C            3.894513030853     0.066039582951     0.279389771885    12.000000000000
         C           -2.143123969147     0.026540582951     0.011547771885    12.000000000000
         H            2.947667030853    -0.345197417049    -1.611727228115     1.007825032230
         H            2.494215030853     1.207404582951    -0.914666228115     1.007825032230
         H            1.548263330853    -1.531064017049     0.092080471885     1.007825032230
         H            0.296218030853     1.294958582951     0.037555771885     1.007825032230
         H           -0.808073969147    -1.459407417049     0.904360771885     1.007825032230
         H           -1.028352969147     0.026207582951     1.859750771885     1.007825032230
         H            4.115627030853    -0.976464417049     0.528016771885     1.007825032230
         H            3.685011030853     0.596956582951     1.212405771885     1.007825032230
         H            4.792196030853     0.503255582951    -0.169318228115     1.007825032230

  Basis Set: AUG-CC-PVTZ
    Blend: AUG-CC-PVTZ
  Basis Set: (AUG-CC-PVTZ AUX)
    Blend: AUG-CC-PVTZ-JKFIT
	 Reference Energy          =    -382.3252658884166522 [Eh]
	 Singles Energy            =      -0.0000000000000000 [Eh]
	 Same-Spin Energy          =      -0.3912466159591229 [Eh]
	 Opposite-Spin Energy      =      -1.2602914052849468 [Eh]
	 Correlation Energy        =      -1.6515380212440696 [Eh]
	 Total Energy              =    -383.9768039096607026 [Eh]

	 ================> DF-SCS-MP2 Energies <==================
	-----------------------------------------------------------
	 SCS Same-Spin Scale       =       0.3333333333333333 [-]
	 SCS Opposite-Spin Scale   =       1.2000000000000000 [-]
	 SCS Same-Spin Energy      =      -0.1304155386530410 [Eh]
	 SCS Opposite-Spin Energy  =      -1.5123496863419361 [Eh]
	 SCS Correlation Energy    =      -1.6427652249949771 [Eh]
	 SCS Total Energy          =    -383.9680311134116550 [Eh]
	-----------------------------------------------------------

  Dipole Moment: [D]
     X:    10.7312      Y:    -0.7931      Z:     1.6735     Total:    10.8899

*** Psi4 exiting successfully. Buy a developer a beer!
