                               Psi4 1.3.2 release

  ==> Input File <==

--------------------------------------------------------------------------
#psi4
#
memory 32 gb

molecule  {
-1 1
  O       -2.9259140    -0.9099280    -0.5693610
  O       -2.5318610     1.2678500    -0.0507790
  C        2.5515340     0.1562790    -0.6847320
  C        1.3133740    -0.4576390    -0.0973370
  C        0.1974701     0.2147094     0.2102425
  C       -1.0388440    -0.3710000     0.8261750
  C        3.7521530     0.0645780     0.2634350
  C       -2.2854840     0.0250790    -0.0044070
  H        2.8053070    -0.3466590    -1.6276820
  H        2.3518550     1.2059430    -0.9306210
  H        1.3523840    -1.5323490     0.0963350
  H        0.1538580     1.2934970     0.0216010
  H       -0.9504340    -1.4608690     0.8884060
  H       -1.1786983     0.0195085     1.8447528
  H        3.9732670    -0.9779260     0.5120620
  H        3.5426510     0.5954950     1.1964510
  H        4.6498360     0.5017940    -0.1852730
units angstrom
no_reorient  #important for SAPT in psi4, default
symmetry c1  #important for SAPT in psi4, default
}

set PROPERTIES_ORIGIN ["COM"]
properties('MP2/aug-cc-pvtz', properties = ['dipole'])
--------------------------------------------------------------------------

    Molecular point group: c1
  Charge       = -1
  Multiplicity = 1
  Basis Set: AUG-CC-PVTZ
    Blend: AUG-CC-PVTZ
  Basis Set: (AUG-CC-PVTZ AUX)
    Blend: AUG-CC-PVTZ-JKFIT

    Orbital Energies [Eh]
    ---------------------

    Doubly Occupied:

       1A    -20.297433     2A    -20.295702     3A    -11.143659
       4A    -11.123848     5A    -11.121535     6A    -11.099921
       7A    -11.095235     8A    -11.069451     9A     -1.165338
      10A     -1.064485    11A     -0.969281    12A     -0.900944
      13A     -0.807173    14A     -0.722951    15A     -0.621601
      16A     -0.532891    17A     -0.514290    18A     -0.500610
      19A     -0.453775    20A     -0.443023    21A     -0.432603
      22A     -0.414866    23A     -0.401135    24A     -0.383456
      25A     -0.373363    26A     -0.346902    27A     -0.324227
      28A     -0.238884    29A     -0.210843    30A     -0.195321
      31A     -0.189136

  @DF-RHF Final Energy:  -382.33298364614677

   => Energetics <=

    Nuclear Repulsion Energy =            338.8973550070158467
    One-Electron Energy =               -1203.5529146820288133
    Two-Electron Energy =                 482.3225760288661377
    Total Energy =                       -382.3329836461467721
  Basis Set: (AUG-CC-PVTZ AUX)
    Blend: AUG-CC-PVTZ-RI
    Molecular point group: c1

    Geometry (in Angstrom), charge = -1, multiplicity = 1:

       Center              X                  Y                   Z               Mass
    ------------   -----------------  -----------------  -----------------  -----------------
         O           -2.779235540204    -0.915252181874    -0.552305262306    15.994914619570
         O           -2.385182540204     1.262525818126    -0.033723262306    15.994914619570
         C            2.698212459796     0.150954818126    -0.667676262306    12.000000000000
         C            1.460052459796    -0.462963181874    -0.080281262306    12.000000000000
         C            0.344148559796     0.209385218126     0.227298237694    12.000000000000
         C           -0.892165540204    -0.376324181874     0.843230737694    12.000000000000
         C            3.898831459796     0.059253818126     0.280490737694    12.000000000000
         C           -2.138805540204     0.019754818126     0.012648737694    12.000000000000
         H            2.951985459796    -0.351983181874    -1.610626262306     1.007825032230
         H            2.498533459796     1.200618818126    -0.913565262306     1.007825032230
         H            1.499062459796    -1.537673181874     0.113390737694     1.007825032230
         H            0.300536459796     1.288172818126     0.038656737694     1.007825032230
         H           -0.803755540204    -1.466193181874     0.905461737694     1.007825032230
         H           -1.032019840204     0.014184318126     1.861808537694     1.007825032230
         H            4.119945459796    -0.983250181874     0.529117737694     1.007825032230
         H            3.689329459796     0.590170818126     1.213506737694     1.007825032230
         H            4.796514459796     0.496469818126    -0.168217262306     1.007825032230

  Basis Set: AUG-CC-PVTZ
    Blend: AUG-CC-PVTZ
  Basis Set: (AUG-CC-PVTZ AUX)
    Blend: AUG-CC-PVTZ-JKFIT
	 Reference Energy          =    -382.3329836461467721 [Eh]
	 Singles Energy            =      -0.0000000000000000 [Eh]
	 Same-Spin Energy          =      -0.3909176187398783 [Eh]
	 Opposite-Spin Energy      =      -1.2595118653172035 [Eh]
	 Correlation Energy        =      -1.6504294840570819 [Eh]
	 Total Energy              =    -383.9834131302038713 [Eh]

	 ================> DF-SCS-MP2 Energies <==================
	-----------------------------------------------------------
	 SCS Same-Spin Scale       =       0.3333333333333333 [-]
	 SCS Opposite-Spin Scale   =       1.2000000000000000 [-]
	 SCS Same-Spin Energy      =      -0.1303058729132928 [Eh]
	 SCS Opposite-Spin Energy  =      -1.5114142383806441 [Eh]
	 SCS Correlation Energy    =      -1.6417201112939370 [Eh]
	 SCS Total Energy          =    -383.9747037574406932 [Eh]
	-----------------------------------------------------------

  Dipole Moment: [D]
     X:    10.7220      Y:    -0.7185      Z:     1.6686     Total:    10.8748

*** Psi4 exiting successfully. Buy a developer a beer!
