                               Psi4 1.3.2 release

  ==> Input File <==

--------------------------------------------------------------------------
#psi4
#
memory 32 gb

molecule  {
-1 1
  O       -2.8679225    -0.9388707    -0.5833095
  O       -2.5318610     1.2678500    -0.0507790
  C        2.5515340     0.1562790    -0.6847320
  C        1.3133740    -0.4576390    -0.0973370
  C        0.2110062     0.1080383     0.1566857
  C       -1.0388440    -0.3710000     0.8261750
  C        3.7521530     0.0645780     0.2634350
  C       -2.2854840     0.0250790    -0.0044070
  H        2.8053070    -0.3466590    -1.6276820
  H        2.3518550     1.2059430    -0.9306210
  H        1.3523840    -1.5323490     0.0963350
  H        0.1538580     1.2934970     0.0216010
  H       -0.9504340    -1.4608690     0.8884060
  H       -1.1707130     0.0247460     1.8437960
  H        3.9732670    -0.9779260     0.5120620
  H        3.5426510     0.5954950     1.1964510
  H        4.6498360     0.5017940    -0.1852730
units angstrom
no_reorient  #important for SAPT in psi4, default
symmetry c1  #important for SAPT in psi4, default
}

set PROPERTIES_ORIGIN ["COM"]
properties('MP2/aug-cc-pvtz', properties = ['dipole'])
--------------------------------------------------------------------------

    Molecular point group: c1
  Charge       = -1
  Multiplicity = 1
  Basis Set: AUG-CC-PVTZ
    Blend: AUG-CC-PVTZ
  Basis Set: (AUG-CC-PVTZ AUX)
    Blend: AUG-CC-PVTZ-JKFIT

    Orbital Energies [Eh]
    ---------------------

    Doubly Occupied:

       1A    -20.298570     2A    -20.298446     3A    -11.144680
       4A    -11.124688     5A    -11.122531     6A    -11.094561
       7A    -11.084963     8A    -11.067459     9A     -1.165425
      10A     -1.068258    11A     -0.977044    12A     -0.905701
      13A     -0.811058    14A     -0.729552    15A     -0.605962
      16A     -0.534347    17A     -0.512360    18A     -0.501037
      19A     -0.459776    20A     -0.440815    21A     -0.433897
      22A     -0.416293    23A     -0.400532    24A     -0.387570
      25A     -0.372898    26A     -0.333929    27A     -0.309724
      28A     -0.252082    29A     -0.214150    30A     -0.197396
      31A     -0.192103

  @DF-RHF Final Energy:  -382.31733937168354

   => Energetics <=

    Nuclear Repulsion Energy =            339.9826896346631884
    One-Electron Energy =               -1205.6844427745852499
    Two-Electron Energy =                 483.3844137682385167
    Total Energy =                       -382.3173393716835449
  Basis Set: (AUG-CC-PVTZ AUX)
    Blend: AUG-CC-PVTZ-RI
    Molecular point group: c1

    Geometry (in Angstrom), charge = -1, multiplicity = 1:

       Center              X                  Y                   Z               Mass
    ------------   -----------------  -----------------  -----------------  -----------------
         O           -2.730956118785    -0.928825106359    -0.558587487742    15.994914619570
         O           -2.394894618785     1.277895593641    -0.026056987742    15.994914619570
         C            2.688500381215     0.166324593641    -0.660009987742    12.000000000000
         C            1.450340381215    -0.447593406359    -0.072614987742    12.000000000000
         C            0.347972581215     0.118083893641     0.181407712258    12.000000000000
         C           -0.901877618785    -0.360954406359     0.850897012258    12.000000000000
         C            3.889119381215     0.074623593641     0.288157012258    12.000000000000
         C           -2.148517618785     0.035124593641     0.020315012258    12.000000000000
         H            2.942273381215    -0.336613406359    -1.602959987742     1.007825032230
         H            2.488821381215     1.215988593641    -0.905898987742     1.007825032230
         H            1.489350381215    -1.522303406359     0.121057012258     1.007825032230
         H            0.290824381215     1.303542593641     0.046323012258     1.007825032230
         H           -0.813467618785    -1.450823406359     0.913128012258     1.007825032230
         H           -1.033746618785     0.034791593641     1.868518012258     1.007825032230
         H            4.110233381215    -0.967880406359     0.536784012258     1.007825032230
         H            3.679617381215     0.605540593641     1.221173012258     1.007825032230
         H            4.786802381215     0.511839593641    -0.160550987742     1.007825032230

  Basis Set: AUG-CC-PVTZ
    Blend: AUG-CC-PVTZ
  Basis Set: (AUG-CC-PVTZ AUX)
    Blend: AUG-CC-PVTZ-JKFIT
	 Reference Energy          =    -382.3173393716835449 [Eh]
	 Singles Energy            =      -0.0000000000000000 [Eh]
	 Same-Spin Energy          =      -0.3910179315412987 [Eh]
	 Opposite-Spin Energy      =      -1.2594544168991786 [Eh]
	 Correlation Energy        =      -1.6504723484404773 [Eh]
	 Total Energy              =    -383.9678117201240184 [Eh]

	 ================> DF-SCS-MP2 Energies <==================
	-----------------------------------------------------------
	 SCS Same-Spin Scale       =       0.3333333333333333 [-]
	 SCS Opposite-Spin Scale   =       1.2000000000000000 [-]
	 SCS Same-Spin Energy      =      -0.1303393105137662 [Eh]
	 SCS Opposite-Spin Energy  =      -1.5113453002790143 [Eh]
	 SCS Correlation Energy    =      -1.6416846107927805 [Eh]
	 SCS Total Energy          =    -383.9590239824763103 [Eh]
	-----------------------------------------------------------

  Dipole Moment: [D]
     X:    10.6401      Y:    -0.7579      Z:     1.6924     Total:    10.8005

*** Psi4 exiting successfully. Buy a developer a beer!
