                               Psi4 1.3.2 release

  ==> Input File <==

--------------------------------------------------------------------------
#psi4
#
memory 32 gb

molecule  {
-1 1
  O       -2.9259140    -0.9099280    -0.5693610
  O       -2.5318610     1.2678500    -0.0507790
  C        2.5515340     0.1562790    -0.6847320
  C        1.3133740    -0.4576390    -0.0973370
  C        0.1996320     0.2215300     0.2212070
  C       -1.0388440    -0.3710000     0.8261750
  C        3.7521530     0.0645780     0.2634350
  C       -2.2877607     0.0679600    -0.0124385
  H        2.8053070    -0.3466590    -1.6276820
  H        2.3518550     1.2059430    -0.9306210
  H        1.3523840    -1.5323490     0.0963350
  H        0.1349362     1.2921934     0.0198482
  H       -0.9504340    -1.4608690     0.8884060
  H       -1.1707130     0.0247460     1.8437960
  H        3.9732670    -0.9779260     0.5120620
  H        3.5426510     0.5954950     1.1964510
  H        4.6498360     0.5017940    -0.1852730
units angstrom
no_reorient  #important for SAPT in psi4, default
symmetry c1  #important for SAPT in psi4, default
}

set PROPERTIES_ORIGIN ["COM"]
properties('MP2/aug-cc-pvtz', properties = ['dipole'])
--------------------------------------------------------------------------

    Molecular point group: c1
  Charge       = -1
  Multiplicity = 1
  Basis Set: AUG-CC-PVTZ
    Blend: AUG-CC-PVTZ
  Basis Set: (AUG-CC-PVTZ AUX)
    Blend: AUG-CC-PVTZ-JKFIT

    Orbital Energies [Eh]
    ---------------------

    Doubly Occupied:

       1A    -20.306177     2A    -20.289495     3A    -11.143659
       4A    -11.123221     5A    -11.120789     6A    -11.099279
       7A    -11.094657     8A    -11.067323     9A     -1.178407
      10A     -1.064150    11A     -0.967967    12A     -0.899449
      13A     -0.804378    14A     -0.720461    15A     -0.621132
      16A     -0.532047    17A     -0.514327    18A     -0.499774
      19A     -0.452108    20A     -0.442687    21A     -0.435357
      22A     -0.414822    23A     -0.401241    24A     -0.383330
      25A     -0.374988    26A     -0.349497    27A     -0.328501
      28A     -0.237348    29A     -0.214243    30A     -0.196715
      31A     -0.183537

  @DF-RHF Final Energy:  -382.33174618890610

   => Energetics <=

    Nuclear Repulsion Energy =            338.9468956091074006
    One-Electron Energy =               -1203.6351477054761290
    Two-Electron Energy =                 482.3565059074626333
    Total Energy =                       -382.3317461889060951
  Basis Set: (AUG-CC-PVTZ AUX)
    Blend: AUG-CC-PVTZ-RI
    Molecular point group: c1

    Geometry (in Angstrom), charge = -1, multiplicity = 1:

       Center              X                  Y                   Z               Mass
    ------------   -----------------  -----------------  -----------------  -----------------
         O           -2.779125867017    -0.920562481991    -0.552592411822    15.994914619570
         O           -2.385072867017     1.257215518009    -0.034010411822    15.994914619570
         C            2.698322132983     0.145644518009    -0.667963411822    12.000000000000
         C            1.460162132983    -0.468273481991    -0.080568411822    12.000000000000
         C            0.346420132983     0.210895518009     0.237975588178    12.000000000000
         C           -0.892055867017    -0.381634481991     0.842943588178    12.000000000000
         C            3.898941132983     0.053943518009     0.280203588178    12.000000000000
         C           -2.140972567017     0.057325518009     0.004330088178    12.000000000000
         H            2.952095132983    -0.357293481991    -1.610913411822     1.007825032230
         H            2.498643132983     1.195308518009    -0.913852411822     1.007825032230
         H            1.499172132983    -1.542983481991     0.113103588178     1.007825032230
         H            0.281724332983     1.281558918009     0.036616788178     1.007825032230
         H           -0.803645867017    -1.471503481991     0.905174588178     1.007825032230
         H           -1.023924867017     0.014111518009     1.860564588178     1.007825032230
         H            4.120055132983    -0.988560481991     0.528830588178     1.007825032230
         H            3.689439132983     0.584860518009     1.213219588178     1.007825032230
         H            4.796624132983     0.491159518009    -0.168504411822     1.007825032230

  Basis Set: AUG-CC-PVTZ
    Blend: AUG-CC-PVTZ
  Basis Set: (AUG-CC-PVTZ AUX)
    Blend: AUG-CC-PVTZ-JKFIT
	 Reference Energy          =    -382.3317461889060951 [Eh]
	 Singles Energy            =      -0.0000000000000000 [Eh]
	 Same-Spin Energy          =      -0.3907594560967430 [Eh]
	 Opposite-Spin Energy      =      -1.2590119176562904 [Eh]
	 Correlation Energy        =      -1.6497713737530333 [Eh]
	 Total Energy              =    -383.9815175626591213 [Eh]

	 ================> DF-SCS-MP2 Energies <==================
	-----------------------------------------------------------
	 SCS Same-Spin Scale       =       0.3333333333333333 [-]
	 SCS Opposite-Spin Scale   =       1.2000000000000000 [-]
	 SCS Same-Spin Energy      =      -0.1302531520322476 [Eh]
	 SCS Opposite-Spin Energy  =      -1.5108143011875483 [Eh]
	 SCS Correlation Energy    =      -1.6410674532197960 [Eh]
	 SCS Total Energy          =    -383.9728136421259137 [Eh]
	-----------------------------------------------------------

  Dipole Moment: [D]
     X:    10.6419      Y:    -0.2866      Z:     1.7047     Total:    10.7814

*** Psi4 exiting successfully. Buy a developer a beer!
