                               Psi4 1.3.2 release

  ==> Input File <==

--------------------------------------------------------------------------
#psi4
#
memory 32 gb

molecule  {
-1 1
  O       -2.9259140    -0.9099280    -0.5693610
  O       -2.5318610     1.2678500    -0.0507790
  C        2.5515340     0.1562790    -0.6847320
  C        1.3146614    -0.5444887    -0.0816930
  C        0.1763599     0.2684391     0.2217761
  C       -1.0388440    -0.3710000     0.8261750
  C        3.7521530     0.0645780     0.2634350
  C       -2.2854840     0.0250790    -0.0044070
  H        2.8053070    -0.3466590    -1.6276820
  H        2.3518550     1.2059430    -0.9306210
  H        1.3523840    -1.5323490     0.0963350
  H        0.1538580     1.2934970     0.0216010
  H       -0.9504340    -1.4608690     0.8884060
  H       -1.1707130     0.0247460     1.8437960
  H        3.9732670    -0.9779260     0.5120620
  H        3.5426510     0.5954950     1.1964510
  H        4.6498360     0.5017940    -0.1852730
units angstrom
no_reorient  #important for SAPT in psi4, default
symmetry c1  #important for SAPT in psi4, default
}

set PROPERTIES_ORIGIN ["COM"]
properties('MP2/aug-cc-pvtz', properties = ['dipole'])
--------------------------------------------------------------------------

    Molecular point group: c1
  Charge       = -1
  Multiplicity = 1
  Basis Set: AUG-CC-PVTZ
    Blend: AUG-CC-PVTZ
  Basis Set: (AUG-CC-PVTZ AUX)
    Blend: AUG-CC-PVTZ-JKFIT

    Orbital Energies [Eh]
    ---------------------

    Doubly Occupied:

       1A    -20.297855     2A    -20.296341     3A    -11.143812
       4A    -11.121766     5A    -11.121038     6A    -11.112009
       7A    -11.101138     8A    -11.069144     9A     -1.165938
      10A     -1.065102    11A     -0.957473    12A     -0.895568
      13A     -0.801032    14A     -0.712782    15A     -0.648708
      16A     -0.531268    17A     -0.513453    18A     -0.494485
      19A     -0.458512    20A     -0.443293    21A     -0.432305
      22A     -0.411016    23A     -0.405645    24A     -0.386547
      25A     -0.366921    26A     -0.361254    27A     -0.318754
      28A     -0.228105    29A     -0.211563    30A     -0.196153
      31A     -0.179816

  @DF-RHF Final Energy:  -382.31177868766429

   => Energetics <=

    Nuclear Repulsion Energy =            337.7818073483779813
    One-Electron Energy =               -1201.2895702066932699
    Two-Electron Energy =                 481.1959841706510588
    Total Energy =                       -382.3117786876642867
  Basis Set: (AUG-CC-PVTZ AUX)
    Blend: AUG-CC-PVTZ-RI
    Molecular point group: c1

    Geometry (in Angstrom), charge = -1, multiplicity = 1:

       Center              X                  Y                   Z               Mass
    ------------   -----------------  -----------------  -----------------  -----------------
         O           -2.777202767363    -0.911783575527    -0.555181312023    15.994914619570
         O           -2.383149767363     1.265994424473    -0.036599312023    15.994914619570
         C            2.700245232637     0.154423424473    -0.670552312023    12.000000000000
         C            1.463372632637    -0.546344275527    -0.067513312023    12.000000000000
         C            0.325071132637     0.266583524473     0.235955787977    12.000000000000
         C           -0.890132767363    -0.372855575527     0.840354687977    12.000000000000
         C            3.900864232637     0.062722424473     0.277614687977    12.000000000000
         C           -2.136772767363     0.023223424473     0.009772687977    12.000000000000
         H            2.954018232637    -0.348514575527    -1.613502312023     1.007825032230
         H            2.500566232637     1.204087424473    -0.916441312023     1.007825032230
         H            1.501095232637    -1.534204575527     0.110514687977     1.007825032230
         H            0.302569232637     1.291641424473     0.035780687977     1.007825032230
         H           -0.801722767363    -1.462724575527     0.902585687977     1.007825032230
         H           -1.022001767363     0.022890424473     1.857975687977     1.007825032230
         H            4.121978232637    -0.979781575527     0.526241687977     1.007825032230
         H            3.691362232637     0.593639424473     1.210630687977     1.007825032230
         H            4.798547232637     0.499938424473    -0.171093312023     1.007825032230

  Basis Set: AUG-CC-PVTZ
    Blend: AUG-CC-PVTZ
  Basis Set: (AUG-CC-PVTZ AUX)
    Blend: AUG-CC-PVTZ-JKFIT
	 Reference Energy          =    -382.3117786876642867 [Eh]
	 Singles Energy            =      -0.0000000000000000 [Eh]
	 Same-Spin Energy          =      -0.3916156022216335 [Eh]
	 Opposite-Spin Energy      =      -1.2620811101358340 [Eh]
	 Correlation Energy        =      -1.6536967123574675 [Eh]
	 Total Energy              =    -383.9654754000217736 [Eh]

	 ================> DF-SCS-MP2 Energies <==================
	-----------------------------------------------------------
	 SCS Same-Spin Scale       =       0.3333333333333333 [-]
	 SCS Opposite-Spin Scale   =       1.2000000000000000 [-]
	 SCS Same-Spin Energy      =      -0.1305385340738778 [Eh]
	 SCS Opposite-Spin Energy  =      -1.5144973321630009 [Eh]
	 SCS Correlation Energy    =      -1.6450358662368787 [Eh]
	 SCS Total Energy          =    -383.9568145539011539 [Eh]
	-----------------------------------------------------------

  Dipole Moment: [D]
     X:    10.6050      Y:    -0.7486      Z:     1.6897     Total:    10.7649

*** Psi4 exiting successfully. Buy a developer a beer!
