                               Psi4 1.3.2 release

  ==> Input File <==

--------------------------------------------------------------------------
#psi4
#
memory 32 gb

molecule  {
-1 1
  O       -2.9259140    -0.9099280    -0.5693610
  O       -2.5318610     1.2678500    -0.0507790
  C        2.5515340     0.1562790    -0.6847320
  C        1.3116554    -0.4141679    -0.1047382
  C        0.2107039     0.1978011     0.2211989
  C       -1.0388440    -0.3710000     0.8261750
  C        3.7521530     0.0645780     0.2634350
  C       -2.2854840     0.0250790    -0.0044070
  H        2.8053070    -0.3466590    -1.6276820
  H        2.3518550     1.2059430    -0.9306210
  H        1.3523840    -1.5323490     0.0963350
  H        0.1538580     1.2934970     0.0216010
  H       -0.9504340    -1.4608690     0.8884060
  H       -1.1707130     0.0247460     1.8437960
  H        3.9732670    -0.9779260     0.5120620
  H        3.5426510     0.5954950     1.1964510
  H        4.6498360     0.5017940    -0.1852730
units angstrom
no_reorient  #important for SAPT in psi4, default
symmetry c1  #important for SAPT in psi4, default
}

set PROPERTIES_ORIGIN ["COM"]
properties('MP2/aug-cc-pvtz', properties = ['dipole'])
--------------------------------------------------------------------------

    Molecular point group: c1
  Charge       = -1
  Multiplicity = 1
  Basis Set: AUG-CC-PVTZ
    Blend: AUG-CC-PVTZ
  Basis Set: (AUG-CC-PVTZ AUX)
    Blend: AUG-CC-PVTZ-JKFIT

    Orbital Energies [Eh]
    ---------------------

    Doubly Occupied:

       1A    -20.297790     2A    -20.295758     3A    -11.144228
       4A    -11.124982     5A    -11.121901     6A    -11.095568
       7A    -11.093161     8A    -11.070372     9A     -1.165481
      10A     -1.064637    11A     -0.975268    12A     -0.904235
      13A     -0.810209    14A     -0.728754    15A     -0.610993
      16A     -0.535086    17A     -0.514650    18A     -0.503375
      19A     -0.454193    20A     -0.440647    21A     -0.433893
      22A     -0.417438    23A     -0.401786    24A     -0.388045
      25A     -0.369445    26A     -0.338041    27A     -0.323233
      28A     -0.245053    29A     -0.210934    30A     -0.195304
      31A     -0.192877

  @DF-RHF Final Energy:  -382.32970512830383

   => Energetics <=

    Nuclear Repulsion Energy =            339.3794020348105960
    One-Electron Energy =               -1204.4835422427095182
    Two-Electron Energy =                 482.7744350795950936
    Total Energy =                       -382.3297051283038286
  Basis Set: (AUG-CC-PVTZ AUX)
    Blend: AUG-CC-PVTZ-RI
    Molecular point group: c1

    Geometry (in Angstrom), charge = -1, multiplicity = 1:

       Center              X                  Y                   Z               Mass
    ------------   -----------------  -----------------  -----------------  -----------------
         O           -2.780528922975    -0.918118194205    -0.552674075495    15.994914619570
         O           -2.386475922975     1.259659805795    -0.034092075495    15.994914619570
         C            2.696919077025     0.148088805795    -0.668045075495    12.000000000000
         C            1.457040477025    -0.422358094205    -0.088051275495    12.000000000000
         C            0.356088977025     0.189610905795     0.237885824505    12.000000000000
         C           -0.893458922975    -0.379190194205     0.842861924505    12.000000000000
         C            3.897538077025     0.056387805795     0.280121924505    12.000000000000
         C           -2.140098922975     0.016888805795     0.012279924505    12.000000000000
         H            2.950692077025    -0.354849194205    -1.610995075495     1.007825032230
         H            2.497240077025     1.197752805795    -0.913934075495     1.007825032230
         H            1.497769077025    -1.540539194205     0.113021924505     1.007825032230
         H            0.299243077025     1.285306805795     0.038287924505     1.007825032230
         H           -0.805048922975    -1.469059194205     0.905092924505     1.007825032230
         H           -1.025327922975     0.016555805795     1.860482924505     1.007825032230
         H            4.118652077025    -0.986116194205     0.528748924505     1.007825032230
         H            3.688036077025     0.587304805795     1.213137924505     1.007825032230
         H            4.795221077025     0.493603805795    -0.168586075495     1.007825032230

  Basis Set: AUG-CC-PVTZ
    Blend: AUG-CC-PVTZ
  Basis Set: (AUG-CC-PVTZ AUX)
    Blend: AUG-CC-PVTZ-JKFIT
	 Reference Energy          =    -382.3297051283038286 [Eh]
	 Singles Energy            =      -0.0000000000000000 [Eh]
	 Same-Spin Energy          =      -0.3909182780779175 [Eh]
	 Opposite-Spin Energy      =      -1.2591917859833961 [Eh]
	 Correlation Energy        =      -1.6501100640613136 [Eh]
	 Total Energy              =    -383.9798151923651517 [Eh]

	 ================> DF-SCS-MP2 Energies <==================
	-----------------------------------------------------------
	 SCS Same-Spin Scale       =       0.3333333333333333 [-]
	 SCS Opposite-Spin Scale   =       1.2000000000000000 [-]
	 SCS Same-Spin Energy      =      -0.1303060926926392 [Eh]
	 SCS Opposite-Spin Energy  =      -1.5110301431800752 [Eh]
	 SCS Correlation Energy    =      -1.6413362358727144 [Eh]
	 SCS Total Energy          =    -383.9710413641765285 [Eh]
	-----------------------------------------------------------

  Dipole Moment: [D]
     X:    10.7527      Y:    -0.6822      Z:     1.6495     Total:    10.8998

*** Psi4 exiting successfully. Buy a developer a beer!
