                               Psi4 1.3.2 release

  ==> Input File <==

--------------------------------------------------------------------------
#psi4
#
memory 32 gb

molecule  {
-1 1
  O       -2.9259140    -0.9099280    -0.5693610
  O       -2.5318610     1.2678500    -0.0507790
  C        2.5515340     0.1562790    -0.6847320
  C        1.3168338    -0.4240345    -0.0572608
  C        0.1996320     0.2215300     0.2212070
  C       -1.0388440    -0.3710000     0.8261750
  C        3.7521530     0.0645780     0.2634350
  C       -2.2854840     0.0250790    -0.0044070
  H        2.8355582    -0.3233666    -1.6311846
  H        2.3518550     1.2059430    -0.9306210
  H        1.3523840    -1.5323490     0.0963350
  H        0.1538580     1.2934970     0.0216010
  H       -0.9504340    -1.4608690     0.8884060
  H       -1.1707130     0.0247460     1.8437960
  H        3.9732670    -0.9779260     0.5120620
  H        3.5426510     0.5954950     1.1964510
  H        4.6498360     0.5017940    -0.1852730
units angstrom
no_reorient  #important for SAPT in psi4, default
symmetry c1  #important for SAPT in psi4, default
}

set PROPERTIES_ORIGIN ["COM"]
properties('MP2/aug-cc-pvtz', properties = ['dipole'])
--------------------------------------------------------------------------

    Molecular point group: c1
  Charge       = -1
  Multiplicity = 1
  Basis Set: AUG-CC-PVTZ
    Blend: AUG-CC-PVTZ
  Basis Set: (AUG-CC-PVTZ AUX)
    Blend: AUG-CC-PVTZ-JKFIT

    Orbital Energies [Eh]
    ---------------------

    Doubly Occupied:

       1A    -20.297872     2A    -20.295936     3A    -11.144105
       4A    -11.123074     5A    -11.121814     6A    -11.097490
       7A    -11.095307     8A    -11.069906     9A     -1.165670
      10A     -1.064826    11A     -0.971103    12A     -0.903224
      13A     -0.806931    14A     -0.724758    15A     -0.618168
      16A     -0.534818    17A     -0.514137    18A     -0.502703
      19A     -0.452317    20A     -0.441340    21A     -0.433448
      22A     -0.413816    23A     -0.401779    24A     -0.386130
      25A     -0.370136    26A     -0.345180    27A     -0.324212
      28A     -0.241515    29A     -0.211158    30A     -0.195605
      31A     -0.191786

  @DF-RHF Final Energy:  -382.33177627932849

   => Energetics <=

    Nuclear Repulsion Energy =            339.1100036507851314
    One-Electron Energy =               -1203.9630381487852446
    Two-Electron Energy =                 482.5212582186716759
    Total Energy =                       -382.3317762793284942
  Basis Set: (AUG-CC-PVTZ AUX)
    Blend: AUG-CC-PVTZ-RI
    Molecular point group: c1

    Geometry (in Angstrom), charge = -1, multiplicity = 1:

       Center              X                  Y                   Z               Mass
    ------------   -----------------  -----------------  -----------------  -----------------
         O           -2.780173058895    -0.919797141988    -0.557682873630    15.994914619570
         O           -2.386120058895     1.257980858012    -0.039100873630    15.994914619570
         C            2.697274941105     0.146409858012    -0.673053873630    12.000000000000
         C            1.462574741105    -0.433903641988    -0.045582673630    12.000000000000
         C            0.345372941105     0.211660858012     0.232885126370    12.000000000000
         C           -0.893103058895    -0.380869141988     0.837853126370    12.000000000000
         C            3.897893941105     0.054708858012     0.275113126370    12.000000000000
         C           -2.139743058895     0.015209858012     0.007271126370    12.000000000000
         H            2.981299141105    -0.333235741988    -1.619506473630     1.007825032230
         H            2.497595941105     1.196073858012    -0.918942873630     1.007825032230
         H            1.498124941105    -1.542218141988     0.108013126370     1.007825032230
         H            0.299598941105     1.283627858012     0.033279126370     1.007825032230
         H           -0.804693058895    -1.470738141988     0.900084126370     1.007825032230
         H           -1.024972058895     0.014876858012     1.855474126370     1.007825032230
         H            4.119007941105    -0.987795141988     0.523740126370     1.007825032230
         H            3.688391941105     0.585625858012     1.208129126370     1.007825032230
         H            4.795576941105     0.491924858012    -0.173594873630     1.007825032230

  Basis Set: AUG-CC-PVTZ
    Blend: AUG-CC-PVTZ
  Basis Set: (AUG-CC-PVTZ AUX)
    Blend: AUG-CC-PVTZ-JKFIT
	 Reference Energy          =    -382.3317762793284942 [Eh]
	 Singles Energy            =      -0.0000000000000000 [Eh]
	 Same-Spin Energy          =      -0.3908367184830238 [Eh]
	 Opposite-Spin Energy      =      -1.2592783922032897 [Eh]
	 Correlation Energy        =      -1.6501151106863134 [Eh]
	 Total Energy              =    -383.9818913900148232 [Eh]

	 ================> DF-SCS-MP2 Energies <==================
	-----------------------------------------------------------
	 SCS Same-Spin Scale       =       0.3333333333333333 [-]
	 SCS Opposite-Spin Scale   =       1.2000000000000000 [-]
	 SCS Same-Spin Energy      =      -0.1302789061610079 [Eh]
	 SCS Opposite-Spin Energy  =      -1.5111340706439476 [Eh]
	 SCS Correlation Energy    =      -1.6414129768049555 [Eh]
	 SCS Total Energy          =    -383.9731892561334234 [Eh]
	-----------------------------------------------------------

  Dipole Moment: [D]
     X:    10.6902      Y:    -0.6867      Z:     1.6244     Total:    10.8347

*** Psi4 exiting successfully. Buy a developer a beer!
