                               Psi4 1.3.2 release

  ==> Input File <==

--------------------------------------------------------------------------
#psi4
#
memory 32 gb

molecule  {
-1 1
  O       -2.9163664    -0.9149320    -0.5717944
  O       -2.5318610     1.2678500    -0.0507790
  C        2.5515340     0.1562790    -0.6847320
  C        1.3133740    -0.4576390    -0.0973370
  C        0.2020018     0.2026437     0.2104916
  C       -1.0388440    -0.3710000     0.8261750
  C        3.7521530     0.0645780     0.2634350
  C       -2.2854840     0.0250790    -0.0044070
  H        2.8053070    -0.3466590    -1.6276820
  H        2.3518550     1.2059430    -0.9306210
  H        1.3523840    -1.5323490     0.0963350
  H        0.1538580     1.2934970     0.0216010
  H       -0.9504340    -1.4608690     0.8884060
  H       -1.1707130     0.0247460     1.8437960
  H        3.9732670    -0.9779260     0.5120620
  H        3.5426510     0.5954950     1.1964510
  H        4.6498360     0.5017940    -0.1852730
units angstrom
no_reorient  #important for SAPT in psi4, default
symmetry c1  #important for SAPT in psi4, default
}

set PROPERTIES_ORIGIN ["COM"]
properties('MP2/aug-cc-pvtz', properties = ['dipole'])
--------------------------------------------------------------------------

    Molecular point group: c1
  Charge       = -1
  Multiplicity = 1
  Basis Set: AUG-CC-PVTZ
    Blend: AUG-CC-PVTZ
  Basis Set: (AUG-CC-PVTZ AUX)
    Blend: AUG-CC-PVTZ-JKFIT

    Orbital Energies [Eh]
    ---------------------

    Doubly Occupied:

       1A    -20.297792     2A    -20.296270     3A    -11.144030
       4A    -11.123847     5A    -11.121549     6A    -11.098972
       7A    -11.093659     8A    -11.068995     9A     -1.165451
      10A     -1.065252    11A     -0.970054    12A     -0.901466
      13A     -0.807583    14A     -0.723604    15A     -0.619280
      16A     -0.533297    17A     -0.513739    18A     -0.500887
      19A     -0.453919    20A     -0.442810    21A     -0.432970
      22A     -0.415095    23A     -0.400791    24A     -0.384006
      25A     -0.373350    26A     -0.344328    27A     -0.324074
      28A     -0.240221    29A     -0.211545    30A     -0.195796
      31A     -0.189784

  @DF-RHF Final Energy:  -382.33296213297029

   => Energetics <=

    Nuclear Repulsion Energy =            339.0324222444876909
    One-Electron Energy =               -1203.8219385462664377
    Two-Electron Energy =                 482.4565541688085091
    Total Energy =                       -382.3329621329702945
  Basis Set: (AUG-CC-PVTZ AUX)
    Blend: AUG-CC-PVTZ-RI
    Molecular point group: c1

    Geometry (in Angstrom), charge = -1, multiplicity = 1:

       Center              X                  Y                   Z               Mass
    ------------   -----------------  -----------------  -----------------  -----------------
         O           -2.771590830242    -0.918314310523    -0.554412313207    15.994914619570
         O           -2.387085430242     1.264467689477    -0.033396913207    15.994914619570
         C            2.696309569758     0.152896689477    -0.667349913207    12.000000000000
         C            1.458149569758    -0.461021310523    -0.079954913207    12.000000000000
         C            0.346777369758     0.199261389477     0.227873686793    12.000000000000
         C           -0.894068430242    -0.374382310523     0.843557086793    12.000000000000
         C            3.896928569758     0.061195689477     0.280817086793    12.000000000000
         C           -2.140708430242     0.021696689477     0.012975086793    12.000000000000
         H            2.950082569758    -0.350041310523    -1.610299913207     1.007825032230
         H            2.496630569758     1.202560689477    -0.913238913207     1.007825032230
         H            1.497159569758    -1.535731310523     0.113717086793     1.007825032230
         H            0.298633569758     1.290114689477     0.038983086793     1.007825032230
         H           -0.805658430242    -1.464251310523     0.905788086793     1.007825032230
         H           -1.025937430242     0.021363689477     1.861178086793     1.007825032230
         H            4.118042569758    -0.981308310523     0.529444086793     1.007825032230
         H            3.687426569758     0.592112689477     1.213833086793     1.007825032230
         H            4.794611569758     0.498411689477    -0.167890913207     1.007825032230

  Basis Set: AUG-CC-PVTZ
    Blend: AUG-CC-PVTZ
  Basis Set: (AUG-CC-PVTZ AUX)
    Blend: AUG-CC-PVTZ-JKFIT
	 Reference Energy          =    -382.3329621329702945 [Eh]
	 Singles Energy            =      -0.0000000000000000 [Eh]
	 Same-Spin Energy          =      -0.3908863666518982 [Eh]
	 Opposite-Spin Energy      =      -1.2593868449099506 [Eh]
	 Correlation Energy        =      -1.6502732115618488 [Eh]
	 Total Energy              =    -383.9832353445321473 [Eh]

	 ================> DF-SCS-MP2 Energies <==================
	-----------------------------------------------------------
	 SCS Same-Spin Scale       =       0.3333333333333333 [-]
	 SCS Opposite-Spin Scale   =       1.2000000000000000 [-]
	 SCS Same-Spin Energy      =      -0.1302954555506327 [Eh]
	 SCS Opposite-Spin Energy  =      -1.5112642138919405 [Eh]
	 SCS Correlation Energy    =      -1.6415596694425734 [Eh]
	 SCS Total Energy          =    -383.9745218024128803 [Eh]
	-----------------------------------------------------------

  Dipole Moment: [D]
     X:    10.6992      Y:    -0.7170      Z:     1.6686     Total:    10.8523

*** Psi4 exiting successfully. Buy a developer a beer!
