                               Psi4 1.3.2 release

  ==> Input File <==

--------------------------------------------------------------------------
#psi4
#
memory 32 gb

molecule  {
-1 1
  O       -2.9259140    -0.9099280    -0.5693610
  O       -2.5318610     1.2678500    -0.0507790
  C        2.5274029     0.2028087    -0.6846283
  C        1.3133740    -0.4576390    -0.0973370
  C        0.1996320     0.2215300     0.2212070
  C       -1.0388440    -0.3710000     0.8261750
  C        3.7521530     0.0645780     0.2634350
  C       -2.2854840     0.0250790    -0.0044070
  H        2.8053070    -0.3466590    -1.6276820
  H        2.3518550     1.2059430    -0.9306210
  H        1.3166360    -1.5305944     0.1095163
  H        0.1538580     1.2934970     0.0216010
  H       -0.9504340    -1.4608690     0.8884060
  H       -1.1707130     0.0247460     1.8437960
  H        3.9732670    -0.9779260     0.5120620
  H        3.5426510     0.5954950     1.1964510
  H        4.6498360     0.5017940    -0.1852730
units angstrom
no_reorient  #important for SAPT in psi4, default
symmetry c1  #important for SAPT in psi4, default
}

set PROPERTIES_ORIGIN ["COM"]
properties('MP2/aug-cc-pvtz', properties = ['dipole'])
--------------------------------------------------------------------------

    Molecular point group: c1
  Charge       = -1
  Multiplicity = 1
  Basis Set: AUG-CC-PVTZ
    Blend: AUG-CC-PVTZ
  Basis Set: (AUG-CC-PVTZ AUX)
    Blend: AUG-CC-PVTZ-JKFIT

    Orbital Energies [Eh]
    ---------------------

    Doubly Occupied:

       1A    -20.297523     2A    -20.295663     3A    -11.143732
       4A    -11.124352     5A    -11.121954     6A    -11.098642
       7A    -11.095387     8A    -11.069118     9A     -1.165336
      10A     -1.064507    11A     -0.968008    12A     -0.898674
      13A     -0.806526    14A     -0.724113    15A     -0.623852
      16A     -0.532427    17A     -0.514019    18A     -0.499657
      19A     -0.453635    20A     -0.441049    21A     -0.432057
      22A     -0.410181    23A     -0.402058    24A     -0.386411
      25A     -0.376647    26A     -0.349231    27A     -0.323481
      28A     -0.236990    29A     -0.210870    30A     -0.195354
      31A     -0.188250

  @DF-RHF Final Energy:  -382.32978741689783

   => Energetics <=

    Nuclear Repulsion Energy =            338.8635286871420362
    One-Electron Energy =               -1203.4872272909049116
    Two-Electron Energy =                 482.2939111868651025
    Total Energy =                       -382.3297874168978296
  Basis Set: (AUG-CC-PVTZ AUX)
    Blend: AUG-CC-PVTZ-RI
    Molecular point group: c1

    Geometry (in Angstrom), charge = -1, multiplicity = 1:

       Center              X                  Y                   Z               Mass
    ------------   -----------------  -----------------  -----------------  -----------------
         O           -2.776656293012    -0.920977009012    -0.553588989799    15.994914619570
         O           -2.382603293012     1.256800990988    -0.035006989799    15.994914619570
         C            2.676660606988     0.191759690988    -0.668856289799    12.000000000000
         C            1.462631706988    -0.468688009012    -0.081564989799    12.000000000000
         C            0.348889706988     0.210480990988     0.236979010201    12.000000000000
         C           -0.889586293012    -0.382049009012     0.841947010201    12.000000000000
         C            3.901410706988     0.053528990988     0.279207010201    12.000000000000
         C           -2.136226293012     0.014029990988     0.011365010201    12.000000000000
         H            2.954564706988    -0.357708009012    -1.611909989799     1.007825032230
         H            2.501112706988     1.194893990988    -0.914848989799     1.007825032230
         H            1.465893706988    -1.541643409012     0.125288310201     1.007825032230
         H            0.303115706988     1.282447990988     0.037373010201     1.007825032230
         H           -0.801176293012    -1.471918009012     0.904178010201     1.007825032230
         H           -1.021455293012     0.013696990988     1.859568010201     1.007825032230
         H            4.122524706988    -0.988975009012     0.527834010201     1.007825032230
         H            3.691908706988     0.584445990988     1.212223010201     1.007825032230
         H            4.799093706988     0.490744990988    -0.169500989799     1.007825032230

  Basis Set: AUG-CC-PVTZ
    Blend: AUG-CC-PVTZ
  Basis Set: (AUG-CC-PVTZ AUX)
    Blend: AUG-CC-PVTZ-JKFIT
	 Reference Energy          =    -382.3297874168978296 [Eh]
	 Singles Energy            =      -0.0000000000000000 [Eh]
	 Same-Spin Energy          =      -0.3909228002010753 [Eh]
	 Opposite-Spin Energy      =      -1.2595707333277928 [Eh]
	 Correlation Energy        =      -1.6504935335288682 [Eh]
	 Total Energy              =    -383.9802809504266747 [Eh]

	 ================> DF-SCS-MP2 Energies <==================
	-----------------------------------------------------------
	 SCS Same-Spin Scale       =       0.3333333333333333 [-]
	 SCS Opposite-Spin Scale   =       1.2000000000000000 [-]
	 SCS Same-Spin Energy      =      -0.1303076000670251 [Eh]
	 SCS Opposite-Spin Energy  =      -1.5114848799933513 [Eh]
	 SCS Correlation Energy    =      -1.6417924800603765 [Eh]
	 SCS Total Energy          =    -383.9715798969581897 [Eh]
	-----------------------------------------------------------

  Dipole Moment: [D]
     X:    10.6909      Y:    -0.6709      Z:     1.6677     Total:    10.8410

*** Psi4 exiting successfully. Buy a developer a beer!
