                               Psi4 1.3.2 release

  ==> Input File <==

--------------------------------------------------------------------------
#psi4
#
memory 32 gb

molecule  {
-1 1
  O       -2.9259140    -0.9099280    -0.5693610
  O       -2.5318610     1.2678500    -0.0507790
  C        2.5515340     0.1562790    -0.6847320
  C        1.3133740    -0.4576390    -0.0973370
  C        0.1996320     0.2215300     0.2212070
  C       -1.0330853    -0.3827573     0.8263068
  C        3.7521530     0.0645780     0.2634350
  C       -2.2854840     0.0250790    -0.0044070
  H        2.8053070    -0.3466590    -1.6276820
  H        2.3518550     1.2059430    -0.9306210
  H        1.3523840    -1.5323490     0.0963350
  H        0.1627428     1.2931979     0.0181842
  H       -0.9504340    -1.4608690     0.8884060
  H       -1.1707130     0.0247460     1.8437960
  H        3.9732670    -0.9779260     0.5120620
  H        3.5426510     0.5954950     1.1964510
  H        4.6498360     0.5017940    -0.1852730
units angstrom
no_reorient  #important for SAPT in psi4, default
symmetry c1  #important for SAPT in psi4, default
}

set PROPERTIES_ORIGIN ["COM"]
properties('MP2/aug-cc-pvtz', properties = ['dipole'])
--------------------------------------------------------------------------

    Molecular point group: c1
  Charge       = -1
  Multiplicity = 1
  Basis Set: AUG-CC-PVTZ
    Blend: AUG-CC-PVTZ
  Basis Set: (AUG-CC-PVTZ AUX)
    Blend: AUG-CC-PVTZ-JKFIT

    Orbital Energies [Eh]
    ---------------------

    Doubly Occupied:

       1A    -20.297631     2A    -20.296167     3A    -11.144453
       4A    -11.123580     5A    -11.121223     6A    -11.100024
       7A    -11.095123     8A    -11.069252     9A     -1.165320
      10A     -1.064656    11A     -0.968794    12A     -0.900656
      13A     -0.806419    14A     -0.722226    15A     -0.622282
      16A     -0.532613    17A     -0.514247    18A     -0.499941
      19A     -0.452850    20A     -0.443141    21A     -0.431952
      22A     -0.414623    23A     -0.401397    24A     -0.382660
      25A     -0.374121    26A     -0.350837    27A     -0.323975
      28A     -0.238071    29A     -0.211323    30A     -0.195602
      31A     -0.187842

  @DF-RHF Final Energy:  -382.33290850402767

   => Energetics <=

    Nuclear Repulsion Energy =            338.7598887553924101
    One-Electron Energy =               -1203.2795922014643111
    Two-Electron Energy =                 482.1867949420441732
    Total Energy =                       -382.3329085040276709
  Basis Set: (AUG-CC-PVTZ AUX)
    Blend: AUG-CC-PVTZ-RI
    Molecular point group: c1

    Geometry (in Angstrom), charge = -1, multiplicity = 1:

       Center              X                  Y                   Z               Mass
    ------------   -----------------  -----------------  -----------------  -----------------
         O           -2.780226598552    -0.914772231098    -0.553444015947    15.994914619570
         O           -2.386173598552     1.263005768902    -0.034862015947    15.994914619570
         C            2.697221401448     0.151434768902    -0.668815015947    12.000000000000
         C            1.459061401448    -0.462483231098    -0.081420015947    12.000000000000
         C            0.345319401448     0.216685768902     0.237123984053    12.000000000000
         C           -0.887397898552    -0.387601531098     0.842223784053    12.000000000000
         C            3.897840401448     0.059733768902     0.279351984053    12.000000000000
         C           -2.139796598552     0.020234768902     0.011509984053    12.000000000000
         H            2.950994401448    -0.351503231098    -1.611765015947     1.007825032230
         H            2.497542401448     1.201098768902    -0.914704015947     1.007825032230
         H            1.498071401448    -1.537193231098     0.112251984053     1.007825032230
         H            0.308430201448     1.288353668902     0.034101184053     1.007825032230
         H           -0.804746598552    -1.465713231098     0.904322984053     1.007825032230
         H           -1.025025598552     0.019901768902     1.859712984053     1.007825032230
         H            4.118954401448    -0.982770231098     0.527978984053     1.007825032230
         H            3.688338401448     0.590650768902     1.212367984053     1.007825032230
         H            4.795523401448     0.496949768902    -0.169356015947     1.007825032230

  Basis Set: AUG-CC-PVTZ
    Blend: AUG-CC-PVTZ
  Basis Set: (AUG-CC-PVTZ AUX)
    Blend: AUG-CC-PVTZ-JKFIT
	 Reference Energy          =    -382.3329085040276709 [Eh]
	 Singles Energy            =      -0.0000000000000000 [Eh]
	 Same-Spin Energy          =      -0.3909510103613922 [Eh]
	 Opposite-Spin Energy      =      -1.2595416609029320 [Eh]
	 Correlation Energy        =      -1.6504926712643242 [Eh]
	 Total Energy              =    -383.9834011752919878 [Eh]

	 ================> DF-SCS-MP2 Energies <==================
	-----------------------------------------------------------
	 SCS Same-Spin Scale       =       0.3333333333333333 [-]
	 SCS Opposite-Spin Scale   =       1.2000000000000000 [-]
	 SCS Same-Spin Energy      =      -0.1303170034537974 [Eh]
	 SCS Opposite-Spin Energy  =      -1.5114499930835184 [Eh]
	 SCS Correlation Energy    =      -1.6417669965373158 [Eh]
	 SCS Total Energy          =    -383.9746755005650130 [Eh]
	-----------------------------------------------------------

  Dipole Moment: [D]
     X:    10.6973      Y:    -0.7254      Z:     1.6566     Total:    10.8491

*** Psi4 exiting successfully. Buy a developer a beer!
