                               Psi4 1.3.2 release

  ==> Input File <==

--------------------------------------------------------------------------
#psi4
#
memory 32 gb

molecule  {
-1 1
  O       -2.9259140    -0.9099280    -0.5693610
  O       -2.5318610     1.2678500    -0.0507790
  C        2.5515340     0.1562790    -0.6847320
  C        1.3133740    -0.4576390    -0.0973370
  C        0.1996320     0.2215300     0.2212070
  C       -1.0400767    -0.2409777     0.8013498
  C        3.7521530     0.0645780     0.2634350
  C       -2.2854840     0.0250790    -0.0044070
  H        2.8053070    -0.3466590    -1.6276820
  H        2.3518550     1.2059430    -0.9306210
  H        1.4055276    -1.5327133     0.0751599
  H        0.1538580     1.2934970     0.0216010
  H       -0.9504340    -1.4608690     0.8884060
  H       -1.1707130     0.0247460     1.8437960
  H        3.9732670    -0.9779260     0.5120620
  H        3.5426510     0.5954950     1.1964510
  H        4.6498360     0.5017940    -0.1852730
units angstrom
no_reorient  #important for SAPT in psi4, default
symmetry c1  #important for SAPT in psi4, default
}

set PROPERTIES_ORIGIN ["COM"]
properties('MP2/aug-cc-pvtz', properties = ['dipole'])
--------------------------------------------------------------------------

    Molecular point group: c1
  Charge       = -1
  Multiplicity = 1
  Basis Set: AUG-CC-PVTZ
    Blend: AUG-CC-PVTZ
  Basis Set: (AUG-CC-PVTZ AUX)
    Blend: AUG-CC-PVTZ-JKFIT

    Orbital Energies [Eh]
    ---------------------

    Doubly Occupied:

       1A    -20.300290     2A    -20.294003     3A    -11.142777
       4A    -11.124657     5A    -11.121957     6A    -11.101060
       7A    -11.099397     8A    -11.076025     9A     -1.168062
      10A     -1.066192    11A     -0.971935    12A     -0.907326
      13A     -0.811662    14A     -0.723645    15A     -0.626775
      16A     -0.541290    17A     -0.515206    18A     -0.503550
      19A     -0.463240    20A     -0.443070    21A     -0.436449
      22A     -0.417413    23A     -0.401621    24A     -0.386613
      25A     -0.368425    26A     -0.329665    27A     -0.316847
      28A     -0.240651    29A     -0.207505    30A     -0.195590
      31A     -0.194197

  @DF-RHF Final Energy:  -382.31373697208551

   => Energetics <=

    Nuclear Repulsion Energy =            339.8626770810978428
    One-Electron Energy =               -1205.3586387918244327
    Two-Electron Energy =                 483.1822247386410254
    Total Energy =                       -382.3137369720855077
  Basis Set: (AUG-CC-PVTZ AUX)
    Blend: AUG-CC-PVTZ-RI
    Molecular point group: c1

    Geometry (in Angstrom), charge = -1, multiplicity = 1:

       Center              X                  Y                   Z               Mass
    ------------   -----------------  -----------------  -----------------  -----------------
         O           -2.779879069939    -0.929819866511    -0.550636829101    15.994914619570
         O           -2.385826069939     1.247958133489    -0.032054829101    15.994914619570
         C            2.697568930061     0.136387133489    -0.666007829101    12.000000000000
         C            1.459408930061    -0.477530866511    -0.078612829101    12.000000000000
         C            0.345666930061     0.201638133489     0.239931170899    12.000000000000
         C           -0.894041769939    -0.260869566511     0.820073970899    12.000000000000
         C            3.898187930061     0.044686133489     0.282159170899    12.000000000000
         C           -2.139449069939     0.005187133489     0.014317170899    12.000000000000
         H            2.951341930061    -0.366550866511    -1.608957829101     1.007825032230
         H            2.497889930061     1.186051133489    -0.911896829101     1.007825032230
         H            1.551562530061    -1.552605166511     0.093884070899     1.007825032230
         H            0.299892930061     1.273605133489     0.040325170899     1.007825032230
         H           -0.804399069939    -1.480760866511     0.907130170899     1.007825032230
         H           -1.024678069939     0.004854133489     1.862520170899     1.007825032230
         H            4.119301930061    -0.997817866511     0.530786170899     1.007825032230
         H            3.688685930061     0.575603133489     1.215175170899     1.007825032230
         H            4.795870930061     0.481902133489    -0.166548829101     1.007825032230

  Basis Set: AUG-CC-PVTZ
    Blend: AUG-CC-PVTZ
  Basis Set: (AUG-CC-PVTZ AUX)
    Blend: AUG-CC-PVTZ-JKFIT
	 Reference Energy          =    -382.3137369720855077 [Eh]
	 Singles Energy            =      -0.0000000000000000 [Eh]
	 Same-Spin Energy          =      -0.3919956024596166 [Eh]
	 Opposite-Spin Energy      =      -1.2617309931515610 [Eh]
	 Correlation Energy        =      -1.6537265956111775 [Eh]
	 Total Energy              =    -383.9674635676967114 [Eh]

	 ================> DF-SCS-MP2 Energies <==================
	-----------------------------------------------------------
	 SCS Same-Spin Scale       =       0.3333333333333333 [-]
	 SCS Opposite-Spin Scale   =       1.2000000000000000 [-]
	 SCS Same-Spin Energy      =      -0.1306652008198722 [Eh]
	 SCS Opposite-Spin Energy  =      -1.5140771917818732 [Eh]
	 SCS Correlation Energy    =      -1.6447423926017453 [Eh]
	 SCS Total Energy          =    -383.9584793646872640 [Eh]
	-----------------------------------------------------------

  Dipole Moment: [D]
     X:    10.7481      Y:    -0.5482      Z:     1.6341     Total:    10.8854

*** Psi4 exiting successfully. Buy a developer a beer!
