                               Psi4 1.3.2 release

  ==> Input File <==

--------------------------------------------------------------------------
#psi4
#
memory 32 gb

molecule  {
-1 1
  O       -2.9259140    -0.9099280    -0.5693610
  O       -2.5318610     1.2678500    -0.0507790
  C        2.5515340     0.1562790    -0.6847320
  C        1.3133740    -0.4576390    -0.0973370
  C        0.1996320     0.2215300     0.2212070
  C       -1.0388440    -0.3710000     0.8261750
  C        3.7521530     0.0645780     0.2634350
  C       -2.2741160    -0.1031528     0.0200900
  H        2.8053070    -0.3466590    -1.6276820
  H        2.3518550     1.2059430    -0.9306210
  H        1.3523840    -1.5323490     0.0963350
  H        0.2106840     1.2954474     0.0272219
  H       -0.9504340    -1.4608690     0.8884060
  H       -1.1707130     0.0247460     1.8437960
  H        3.9732670    -0.9779260     0.5120620
  H        3.5426510     0.5954950     1.1964510
  H        4.6498360     0.5017940    -0.1852730
units angstrom
no_reorient  #important for SAPT in psi4, default
symmetry c1  #important for SAPT in psi4, default
}

set PROPERTIES_ORIGIN ["COM"]
properties('MP2/aug-cc-pvtz', properties = ['dipole'])
--------------------------------------------------------------------------

    Molecular point group: c1
  Charge       = -1
  Multiplicity = 1
  Basis Set: AUG-CC-PVTZ
    Blend: AUG-CC-PVTZ
  Basis Set: (AUG-CC-PVTZ AUX)
    Blend: AUG-CC-PVTZ-JKFIT

    Orbital Energies [Eh]
    ---------------------

    Doubly Occupied:

       1A    -20.322272     2A    -20.266812     3A    -11.143079
       4A    -11.125060     5A    -11.123172     6A    -11.102959
       7A    -11.098486     8A    -11.076124     9A     -1.194436
      10A     -1.013466    11A     -0.970854    12A     -0.904127
      13A     -0.815182    14A     -0.728724    15A     -0.626079
      16A     -0.541651    17A     -0.514509    18A     -0.504086
      19A     -0.457305    20A     -0.447373    21A     -0.443335
      22A     -0.417884    23A     -0.402329    24A     -0.385640
      25A     -0.372198    26A     -0.345405    27A     -0.328645
      28A     -0.236625    29A     -0.197438    30A     -0.184657
      31A     -0.176621

  @DF-RHF Final Energy:  -382.30758838295685

   => Energetics <=

    Nuclear Repulsion Energy =            338.7319808154342695
    One-Electron Energy =               -1203.1460685995364202
    Two-Electron Energy =                 482.1064994011452427
    Total Energy =                       -382.3075883829568511
  Basis Set: (AUG-CC-PVTZ AUX)
    Blend: AUG-CC-PVTZ-RI
    Molecular point group: c1

    Geometry (in Angstrom), charge = -1, multiplicity = 1:

       Center              X                  Y                   Z               Mass
    ------------   -----------------  -----------------  -----------------  -----------------
         O           -2.781249309335    -0.902429901750    -0.556110654383    15.994914619570
         O           -2.387196309335     1.275348098250    -0.037528654383    15.994914619570
         C            2.696198690665     0.163777098250    -0.671481654383    12.000000000000
         C            1.458038690665    -0.450140901750    -0.084086654383    12.000000000000
         C            0.344296690665     0.229028098250     0.234457345617    12.000000000000
         C           -0.894179309335    -0.363501901750     0.839425345617    12.000000000000
         C            3.896817690665     0.072076098250     0.276685345617    12.000000000000
         C           -2.129451309335    -0.095654701750     0.033340345617    12.000000000000
         H            2.949971690665    -0.339160901750    -1.614431654383     1.007825032230
         H            2.496519690665     1.213441098250    -0.917370654383     1.007825032230
         H            1.497048690665    -1.524850901750     0.109585345617     1.007825032230
         H            0.355348690665     1.302945498250     0.040472245617     1.007825032230
         H           -0.805769309335    -1.453370901750     0.901656345617     1.007825032230
         H           -1.026048309335     0.032244098250     1.857046345617     1.007825032230
         H            4.117931690665    -0.970427901750     0.525312345617     1.007825032230
         H            3.687315690665     0.602993098250     1.209701345617     1.007825032230
         H            4.794500690665     0.509292098250    -0.172022654383     1.007825032230

  Basis Set: AUG-CC-PVTZ
    Blend: AUG-CC-PVTZ
  Basis Set: (AUG-CC-PVTZ AUX)
    Blend: AUG-CC-PVTZ-JKFIT
	 Reference Energy          =    -382.3075883829568511 [Eh]
	 Singles Energy            =      -0.0000000000000000 [Eh]
	 Same-Spin Energy          =      -0.3917829582909743 [Eh]
	 Opposite-Spin Energy      =      -1.2620373407618199 [Eh]
	 Correlation Energy        =      -1.6538202990527942 [Eh]
	 Total Energy              =    -383.9614086820096190 [Eh]

	 ================> DF-SCS-MP2 Energies <==================
	-----------------------------------------------------------
	 SCS Same-Spin Scale       =       0.3333333333333333 [-]
	 SCS Opposite-Spin Scale   =       1.2000000000000000 [-]
	 SCS Same-Spin Energy      =      -0.1305943194303248 [Eh]
	 SCS Opposite-Spin Energy  =      -1.5144448089141840 [Eh]
	 SCS Correlation Energy    =      -1.6450391283445087 [Eh]
	 SCS Total Energy          =    -383.9526275113013867 [Eh]
	-----------------------------------------------------------

  Dipole Moment: [D]
     X:    10.9351      Y:    -1.9552      Z:     1.5543     Total:    11.2168

*** Psi4 exiting successfully. Buy a developer a beer!
