                               Psi4 1.3.2 release

  ==> Input File <==

--------------------------------------------------------------------------
#psi4
#
memory 32 gb

molecule  {
-1 1
  O       -2.9259140    -0.9099280    -0.5693610
  O       -2.5318610     1.2678500    -0.0507790
  C        2.5515340     0.1562790    -0.6847320
  C        1.3133740    -0.4576390    -0.0973370
  C        0.1996320     0.2215300     0.2212070
  C       -1.0388440    -0.3710000     0.8261750
  C        3.7521530     0.0645780     0.2634350
  C       -2.2854840     0.0250790    -0.0044070
  H        2.8053070    -0.3466590    -1.6276820
  H        2.3518550     1.2059430    -0.9306210
  H        1.3523840    -1.5323490     0.0963350
  H        0.1538580     1.2934970     0.0216010
  H       -0.9504340    -1.4608690     0.8884060
  H       -1.1467324    -0.0472210     1.6587401
  H        3.9732670    -0.9779260     0.5120620
  H        3.5426510     0.5954950     1.1964510
  H        4.6498360     0.5017940    -0.1852730
units angstrom
no_reorient  #important for SAPT in psi4, default
symmetry c1  #important for SAPT in psi4, default
}

set PROPERTIES_ORIGIN ["COM"]
properties('MP2/aug-cc-pvtz', properties = ['dipole'])
--------------------------------------------------------------------------

    Molecular point group: c1
  Charge       = -1
  Multiplicity = 1
  Basis Set: AUG-CC-PVTZ
    Blend: AUG-CC-PVTZ
  Basis Set: (AUG-CC-PVTZ AUX)
    Blend: AUG-CC-PVTZ-JKFIT

    Orbital Energies [Eh]
    ---------------------

    Doubly Occupied:

       1A    -20.296186     2A    -20.296111     3A    -11.142359
       4A    -11.123270     5A    -11.120759     6A    -11.098821
       7A    -11.094660     8A    -11.043738     9A     -1.165001
      10A     -1.064028    11A     -0.968939    12A     -0.906492
      13A     -0.819450    14A     -0.727620    15A     -0.622968
      16A     -0.537068    17A     -0.518267    18A     -0.505213
      19A     -0.465062    20A     -0.447868    21A     -0.436834
      22A     -0.414305    23A     -0.400583    24A     -0.382722
      25A     -0.373795    26A     -0.349573    27A     -0.326845
      28A     -0.238655    29A     -0.210916    30A     -0.194976
      31A     -0.188144

  @DF-RHF Final Energy:  -382.30094039571924

   => Energetics <=

    Nuclear Repulsion Energy =            339.9345858211516429
    One-Electron Energy =               -1205.5085933334876245
    Two-Electron Energy =                 483.2730671166168008
    Total Energy =                       -382.3009403957192376
  Basis Set: (AUG-CC-PVTZ AUX)
    Blend: AUG-CC-PVTZ-RI
    Molecular point group: c1

    Geometry (in Angstrom), charge = -1, multiplicity = 1:

       Center              X                  Y                   Z               Mass
    ------------   -----------------  -----------------  -----------------  -----------------
         O           -2.779749945858    -0.915381277103    -0.551810886492    15.994914619570
         O           -2.385696945858     1.262396722897    -0.033228886492    15.994914619570
         C            2.697698054142     0.150825722897    -0.667181886492    12.000000000000
         C            1.459538054142    -0.463092277103    -0.079786886492    12.000000000000
         C            0.345796054142     0.216076722897     0.238757113508    12.000000000000
         C           -0.892679945858    -0.376453277103     0.843725113508    12.000000000000
         C            3.898317054142     0.059124722897     0.280985113508    12.000000000000
         C           -2.139319945858     0.019625722897     0.013143113508    12.000000000000
         H            2.951471054142    -0.352112277103    -1.610131886492     1.007825032230
         H            2.498019054142     1.200489722897    -0.913070886492     1.007825032230
         H            1.498548054142    -1.537802277103     0.113885113508     1.007825032230
         H            0.300022054142     1.288043722897     0.039151113508     1.007825032230
         H           -0.804269945858    -1.466322277103     0.905956113508     1.007825032230
         H           -1.000568345858    -0.052674277103     1.676290213508     1.007825032230
         H            4.119431054142    -0.983379277103     0.529612113508     1.007825032230
         H            3.688815054142     0.590041722897     1.214001113508     1.007825032230
         H            4.796000054142     0.496340722897    -0.167722886492     1.007825032230

  Basis Set: AUG-CC-PVTZ
    Blend: AUG-CC-PVTZ
  Basis Set: (AUG-CC-PVTZ AUX)
    Blend: AUG-CC-PVTZ-JKFIT
	 Reference Energy          =    -382.3009403957192376 [Eh]
	 Singles Energy            =      -0.0000000000000000 [Eh]
	 Same-Spin Energy          =      -0.3909991539347539 [Eh]
	 Opposite-Spin Energy      =      -1.2590401291838846 [Eh]
	 Correlation Energy        =      -1.6500392831186386 [Eh]
	 Total Energy              =    -383.9509796788378821 [Eh]

	 ================> DF-SCS-MP2 Energies <==================
	-----------------------------------------------------------
	 SCS Same-Spin Scale       =       0.3333333333333333 [-]
	 SCS Opposite-Spin Scale   =       1.2000000000000000 [-]
	 SCS Same-Spin Energy      =      -0.1303330513115846 [Eh]
	 SCS Opposite-Spin Energy  =      -1.5108481550206616 [Eh]
	 SCS Correlation Energy    =      -1.6411812063322462 [Eh]
	 SCS Total Energy          =    -383.9421216020514862 [Eh]
	-----------------------------------------------------------

  Dipole Moment: [D]
     X:    10.6864      Y:    -0.7067      Z:     1.7548     Total:    10.8526

*** Psi4 exiting successfully. Buy a developer a beer!
