                               Psi4 1.3.2 release

  ==> Input File <==

--------------------------------------------------------------------------
#psi4
#
memory 32 gb

molecule  {
-1 1
  O       -2.9259140    -0.9099280    -0.5693610
  O       -2.5318610     1.2678500    -0.0507790
  C        2.5515340     0.1562790    -0.6847320
  C        1.1484680    -0.5394045    -0.0191040
  C        0.1996320     0.2215300     0.2212070
  C       -1.0388440    -0.3710000     0.8261750
  C        3.7521530     0.0645780     0.2634350
  C       -2.2854840     0.0250790    -0.0044070
  H        2.8053070    -0.3466590    -1.6276820
  H        2.3518550     1.2059430    -0.9306210
  H        1.3523840    -1.5323490     0.0963350
  H        0.1538580     1.2934970     0.0216010
  H       -0.9504340    -1.4608690     0.8884060
  H       -1.1707130     0.0247460     1.8437960
  H        3.9732670    -0.9779260     0.5120620
  H        3.5426510     0.5954950     1.1964510
  H        4.6498360     0.5017940    -0.1852730
units angstrom
no_reorient  #important for SAPT in psi4, default
symmetry c1  #important for SAPT in psi4, default
}

set PROPERTIES_ORIGIN ["COM"]
properties('MP2/aug-cc-pvtz', properties = ['dipole'])
--------------------------------------------------------------------------

    Molecular point group: c1
  Charge       = -1
  Multiplicity = 1
  Basis Set: AUG-CC-PVTZ
    Blend: AUG-CC-PVTZ
  Basis Set: (AUG-CC-PVTZ AUX)
    Blend: AUG-CC-PVTZ-JKFIT

    Orbital Energies [Eh]
    ---------------------

    Doubly Occupied:

       1A    -20.296264     2A    -20.294791     3A    -11.141514
       4A    -11.122573     5A    -11.121740     6A    -11.089967
       7A    -11.084544     8A    -11.064576     9A     -1.164229
      10A     -1.063450    11A     -0.968374    12A     -0.906756
      13A     -0.798394    14A     -0.717745    15A     -0.636361
      16A     -0.530254    17A     -0.511520    18A     -0.496705
      19A     -0.470129    20A     -0.443171    21A     -0.432200
      22A     -0.408651    23A     -0.405234    24A     -0.385262
      25A     -0.362651    26A     -0.338548    27A     -0.293806
      28A     -0.259840    29A     -0.209955    30A     -0.194705
      31A     -0.193916

  @DF-RHF Final Energy:  -382.29782480001927

   => Energetics <=

    Nuclear Repulsion Energy =            339.2453755366890960
    One-Electron Energy =               -1204.2707532228494074
    Two-Electron Energy =                 482.7275528861409839
    Total Energy =                       -382.2978248000192707
  Basis Set: (AUG-CC-PVTZ AUX)
    Blend: AUG-CC-PVTZ-RI
    Molecular point group: c1

    Geometry (in Angstrom), charge = -1, multiplicity = 1:

       Center              X                  Y                   Z               Mass
    ------------   -----------------  -----------------  -----------------  -----------------
         O           -2.762033372892    -0.907344360331    -0.561763986042    15.994914619570
         O           -2.367980372892     1.270433639669    -0.043181986042    15.994914619570
         C            2.715414627108     0.158862639669    -0.677134986042    12.000000000000
         C            1.312348627108    -0.536820860331    -0.011506986042    12.000000000000
         C            0.363512627108     0.224113639669     0.228804013958    12.000000000000
         C           -0.874963372892    -0.368416360331     0.833772013958    12.000000000000
         C            3.916033627108     0.067161639669     0.271032013958    12.000000000000
         C           -2.121603372892     0.027662639669     0.003190013958    12.000000000000
         H            2.969187627108    -0.344075360331    -1.620084986042     1.007825032230
         H            2.515735627108     1.208526639669    -0.923023986042     1.007825032230
         H            1.516264627108    -1.529765360331     0.103932013958     1.007825032230
         H            0.317738627108     1.296080639669     0.029198013958     1.007825032230
         H           -0.786553372892    -1.458285360331     0.896003013958     1.007825032230
         H           -1.006832372892     0.027329639669     1.851393013958     1.007825032230
         H            4.137147627108    -0.975342360331     0.519659013958     1.007825032230
         H            3.706531627108     0.598078639669     1.204048013958     1.007825032230
         H            4.813716627108     0.504377639669    -0.177675986042     1.007825032230

  Basis Set: AUG-CC-PVTZ
    Blend: AUG-CC-PVTZ
  Basis Set: (AUG-CC-PVTZ AUX)
    Blend: AUG-CC-PVTZ-JKFIT
	 Reference Energy          =    -382.2978248000192707 [Eh]
	 Singles Energy            =      -0.0000000000000000 [Eh]
	 Same-Spin Energy          =      -0.3898958521942327 [Eh]
	 Opposite-Spin Energy      =      -1.2583233201704760 [Eh]
	 Correlation Energy        =      -1.6482191723647088 [Eh]
	 Total Energy              =    -383.9460439723839613 [Eh]

	 ================> DF-SCS-MP2 Energies <==================
	-----------------------------------------------------------
	 SCS Same-Spin Scale       =       0.3333333333333333 [-]
	 SCS Opposite-Spin Scale   =       1.2000000000000000 [-]
	 SCS Same-Spin Energy      =      -0.1299652840647442 [Eh]
	 SCS Opposite-Spin Energy  =      -1.5099879842045711 [Eh]
	 SCS Correlation Energy    =      -1.6399532682693154 [Eh]
	 SCS Total Energy          =    -383.9377780682885941 [Eh]
	-----------------------------------------------------------

  Dipole Moment: [D]
     X:    10.5998      Y:    -0.8422      Z:     1.7773     Total:    10.7808

*** Psi4 exiting successfully. Buy a developer a beer!
