                               Psi4 1.3.2 release

  ==> Input File <==

--------------------------------------------------------------------------
#psi4
#
memory 32 gb

molecule  {
-1 1
  O       -2.9259140    -0.9099280    -0.5693610
  O       -2.5318610     1.2678500    -0.0507790
  C        2.5515340     0.1562790    -0.6847320
  C        1.3133740    -0.4576390    -0.0973370
  C        0.1996320     0.2215300     0.2212070
  C       -1.0445084    -0.3591976     0.8259971
  C        3.7521530     0.0645780     0.2634350
  C       -2.2854840     0.0250790    -0.0044070
  H        2.8053070    -0.3466590    -1.6276820
  H        2.3518550     1.2059430    -0.9306210
  H        1.3523840    -1.5323490     0.0963350
  H        0.1449767     1.2937145     0.0250330
  H       -0.9504340    -1.4608690     0.8884060
  H       -1.1707130     0.0247460     1.8437960
  H        3.9732670    -0.9779260     0.5120620
  H        3.5426510     0.5954950     1.1964510
  H        4.6498360     0.5017940    -0.1852730
units angstrom
no_reorient  #important for SAPT in psi4, default
symmetry c1  #important for SAPT in psi4, default
}

set PROPERTIES_ORIGIN ["COM"]
properties('MP2/aug-cc-pvtz', properties = ['dipole'])
--------------------------------------------------------------------------

    Molecular point group: c1
  Charge       = -1
  Multiplicity = 1
  Basis Set: AUG-CC-PVTZ
    Blend: AUG-CC-PVTZ
  Basis Set: (AUG-CC-PVTZ AUX)
    Blend: AUG-CC-PVTZ-JKFIT

    Orbital Energies [Eh]
    ---------------------

    Doubly Occupied:

       1A    -20.297687     2A    -20.295453     3A    -11.143373
       4A    -11.123839     5A    -11.121616     6A    -11.100291
       7A    -11.096236     8A    -11.069811     9A     -1.165644
      10A     -1.064637    11A     -0.968926    12A     -0.900793
      13A     -0.807380    14A     -0.722823    15A     -0.622434
      16A     -0.533846    17A     -0.514313    18A     -0.501078
      19A     -0.453177    20A     -0.442952    21A     -0.433669
      22A     -0.415140    23A     -0.401435    24A     -0.383342
      25A     -0.372849    26A     -0.345824    27A     -0.323855
      28A     -0.238260    29A     -0.210655    30A     -0.195328
      31A     -0.190169

  @DF-RHF Final Energy:  -382.33269613368492

   => Energetics <=

    Nuclear Repulsion Energy =            338.9157024648011429
    One-Electron Energy =               -1203.5831297213001108
    Two-Electron Energy =                 482.3347311228140484
    Total Energy =                       -382.3326961336849195
  Basis Set: (AUG-CC-PVTZ AUX)
    Blend: AUG-CC-PVTZ-RI
    Molecular point group: c1

    Geometry (in Angstrom), charge = -1, multiplicity = 1:

       Center              X                  Y                   Z               Mass
    ------------   -----------------  -----------------  -----------------  -----------------
         O           -2.778855804537    -0.917277417767    -0.553472195541    15.994914619570
         O           -2.384802804537     1.260500582233    -0.034890195541    15.994914619570
         C            2.698592195463     0.148929582233    -0.668843195541    12.000000000000
         C            1.460432195463    -0.464988417767    -0.081448195541    12.000000000000
         C            0.346690195463     0.214180582233     0.237095804459    12.000000000000
         C           -0.897450204537    -0.366547017767     0.841885904459    12.000000000000
         C            3.899211195463     0.057228582233     0.279323804459    12.000000000000
         C           -2.138425804537     0.017729582233     0.011481804459    12.000000000000
         H            2.952365195463    -0.354008417767    -1.611793195541     1.007825032230
         H            2.498913195463     1.198593582233    -0.914732195541     1.007825032230
         H            1.499442195463    -1.539698417767     0.112223804459     1.007825032230
         H            0.292034895463     1.286365082233     0.040921804459     1.007825032230
         H           -0.803375804537    -1.468218417767     0.904294804459     1.007825032230
         H           -1.023654804537     0.017396582233     1.859684804459     1.007825032230
         H            4.120325195463    -0.985275417767     0.527950804459     1.007825032230
         H            3.689709195463     0.588145582233     1.212339804459     1.007825032230
         H            4.796894195463     0.494444582233    -0.169384195541     1.007825032230

  Basis Set: AUG-CC-PVTZ
    Blend: AUG-CC-PVTZ
  Basis Set: (AUG-CC-PVTZ AUX)
    Blend: AUG-CC-PVTZ-JKFIT
	 Reference Energy          =    -382.3326961336849195 [Eh]
	 Singles Energy            =      -0.0000000000000000 [Eh]
	 Same-Spin Energy          =      -0.3909478150211602 [Eh]
	 Opposite-Spin Energy      =      -1.2596402102946267 [Eh]
	 Correlation Energy        =      -1.6505880253157867 [Eh]
	 Total Energy              =    -383.9832841590007320 [Eh]

	 ================> DF-SCS-MP2 Energies <==================
	-----------------------------------------------------------
	 SCS Same-Spin Scale       =       0.3333333333333333 [-]
	 SCS Opposite-Spin Scale   =       1.2000000000000000 [-]
	 SCS Same-Spin Energy      =      -0.1303159383403867 [Eh]
	 SCS Opposite-Spin Energy  =      -1.5115682523535521 [Eh]
	 SCS Correlation Energy    =      -1.6418841906939388 [Eh]
	 SCS Total Energy          =    -383.9745803243788487 [Eh]
	-----------------------------------------------------------

  Dipole Moment: [D]
     X:    10.7259      Y:    -0.7028      Z:     1.6690     Total:    10.8777

*** Psi4 exiting successfully. Buy a developer a beer!
