                               Psi4 1.4a3.dev225

  ==> Input File <==

--------------------------------------------------------------------------
#psi4
#
memory 32 gb

molecule  {
-1 1
  O       -3.0493610    -0.8021490    -0.5876160
  O       -2.4328600     1.2902580     0.0530700
  C        2.5553900     0.3550440    -0.5884220
  C        1.3085550    -0.3848960    -0.2000760
  C        0.2108510     0.1869800     0.3208840
  C       -1.0406500    -0.5396790     0.7060670
  C        3.7725750    -0.0944570     0.2252300
  C       -2.2593782     0.0656581     0.0064701
  H        2.7644980     0.1992670    -1.6554110
  H        2.3954460     1.4315290    -0.4528260
  H        1.3245080    -1.4678690    -0.3463610
  H        0.1904760     1.2677450     0.4620520
  H       -0.9472880    -1.6102600     0.4951310
  H       -1.2137680    -0.4258540     1.7866990
  H        3.9502020    -1.1668590     0.0980420
  H        3.6128950     0.0963670     1.2904210
  H        4.6769210     0.4370950    -0.0868020
units angstrom
no_reorient  #important for SAPT in psi4, default
symmetry c1  #important for SAPT in psi4, default
}

set PROPERTIES_ORIGIN ["COM"]
properties('MP2/aug-cc-pvtz', properties = ['dipole'])
--------------------------------------------------------------------------

    Molecular point group: c1
  Charge       = -1
  Multiplicity = 1
  Basis Set: AUG-CC-PVTZ
    Blend: AUG-CC-PVTZ
  Basis Set: (AUG-CC-PVTZ AUX)
    Blend: AUG-CC-PVTZ-JKFIT

    Orbital Energies [Eh]
    ---------------------

    Doubly Occupied:

       1A    -20.305341     2A    -20.286403     3A    -11.144290
       4A    -11.124510     5A    -11.122064     6A    -11.100600
       7A    -11.096817     8A    -11.071460     9A     -1.169290
      10A     -1.049994    11A     -0.970375    12A     -0.903484
      13A     -0.810366    14A     -0.724400    15A     -0.624320
      16A     -0.536381    17A     -0.515367    18A     -0.502487
      19A     -0.455518    20A     -0.444370    21A     -0.435607
      22A     -0.415931    23A     -0.398120    24A     -0.384313
      25A     -0.375095    26A     -0.346637    27A     -0.322318
      28A     -0.239102    29A     -0.209029    30A     -0.191156
      31A     -0.188150

  @DF-RHF Final Energy:  -382.32829257751945

   => Energetics <=

    Nuclear Repulsion Energy =            338.8095521278555111
    One-Electron Energy =               -1203.3490988203823235
    Two-Electron Energy =                 482.2112541150073071
    Total Energy =                       -382.3282925775194485
  Basis Set: (AUG-CC-PVTZ AUX)
    Blend: AUG-CC-PVTZ-RI
    Molecular point group: c1

    Geometry (in Angstrom), charge = -1, multiplicity = 1:

       Center              X                  Y                   Z               Mass
    ------------   -----------------  -----------------  -----------------  -----------------
         O           -2.905768952034    -0.816500020451    -0.576075372927    15.994914619570
         O           -2.289267952034     1.275906979549     0.064610627073    15.994914619570
         C            2.698982047966     0.340692979549    -0.576881372927    12.000000000000
         C            1.452147047966    -0.399247020451    -0.188535372927    12.000000000000
         C            0.354443047966     0.172628979549     0.332424627073    12.000000000000
         C           -0.897057952034    -0.554030020451     0.717607627073    12.000000000000
         C            3.916167047966    -0.108808020451     0.236770627073    12.000000000000
         C           -2.115786152034     0.051307079549     0.018010727073    12.000000000000
         H            2.908090047966     0.184915979549    -1.643870372927     1.007825032230
         H            2.539038047966     1.417177979549    -0.441285372927     1.007825032230
         H            1.468100047966    -1.482220020451    -0.334820372927     1.007825032230
         H            0.334068047966     1.253393979549     0.473592627073     1.007825032230
         H           -0.803695952034    -1.624611020451     0.506671627073     1.007825032230
         H           -1.070175952034    -0.440205020451     1.798239627073     1.007825032230
         H            4.093794047966    -1.181210020451     0.109582627073     1.007825032230
         H            3.756487047966     0.082015979549     1.301961627073     1.007825032230
         H            4.820513047966     0.422743979549    -0.075261372927     1.007825032230

  Basis Set: AUG-CC-PVTZ
    Blend: AUG-CC-PVTZ
  Basis Set: (AUG-CC-PVTZ AUX)
    Blend: AUG-CC-PVTZ-JKFIT
	 Reference Energy          =    -382.3282925775194485 [Eh]
	 Singles Energy            =      -0.0000000000000000 [Eh]
	 Same-Spin Energy          =      -0.3913093807644523 [Eh]
	 Opposite-Spin Energy      =      -1.2603411558960440 [Eh]
	 Correlation Energy        =      -1.6516505366604963 [Eh]
	 Total Energy              =    -383.9799431141799460 [Eh]

	 ================> DF-SCS-MP2 Energies <==================
	-----------------------------------------------------------
	 SCS Same-Spin Scale       =       0.3333333333333333 [-]
	 SCS Opposite-Spin Scale   =       1.2000000000000000 [-]
	 SCS Same-Spin Energy      =      -0.1304364602548174 [Eh]
	 SCS Opposite-Spin Energy  =      -1.5124093870752529 [Eh]
	 SCS Correlation Energy    =      -1.6428458473300702 [Eh]
	 SCS Total Energy          =    -383.9711384248495278 [Eh]
	-----------------------------------------------------------

  Dipole Moment: [D]
     X:    11.0323      Y:    -0.6410      Z:     1.6681     Total:    11.1761

*** Psi4 exiting successfully. Buy a developer a beer!
