                               Psi4 1.3.2 release

  ==> Input File <==

--------------------------------------------------------------------------
#psi4
#
memory 32 gb

molecule  {
-1 1
  O       -2.9398181    -0.8950028    -0.5778684
  O       -2.5492372     1.2637208    -0.0638413
  C        2.5515340     0.1562790    -0.6847320
  C        1.3133740    -0.4576390    -0.0973370
  C        0.1996320     0.2215300     0.2212070
  C       -1.0388440    -0.3710000     0.8261750
  C        3.7521530     0.0645780     0.2634350
  C       -2.2854840     0.0250790    -0.0044070
  H        2.8053070    -0.3466590    -1.6276820
  H        2.3518550     1.2059430    -0.9306210
  H        1.3523840    -1.5323490     0.0963350
  H        0.1538580     1.2934970     0.0216010
  H       -0.9504340    -1.4608690     0.8884060
  H       -1.1707130     0.0247460     1.8437960
  H        3.9732670    -0.9779260     0.5120620
  H        3.5426510     0.5954950     1.1964510
  H        4.6498360     0.5017940    -0.1852730
units angstrom
no_reorient  #important for SAPT in psi4, default
symmetry c1  #important for SAPT in psi4, default
}

set PROPERTIES_ORIGIN ["COM"]
properties('MP2/aug-cc-pvtz', properties = ['dipole'])
--------------------------------------------------------------------------

    Molecular point group: c1
  Charge       = -1
  Multiplicity = 1
  Basis Set: AUG-CC-PVTZ
    Blend: AUG-CC-PVTZ
  Basis Set: (AUG-CC-PVTZ AUX)
    Blend: AUG-CC-PVTZ-JKFIT

    Orbital Energies [Eh]
    ---------------------

    Doubly Occupied:

       1A    -20.295537     2A    -20.293695     3A    -11.142800
       4A    -11.124280     5A    -11.122104     6A    -11.101268
       7A    -11.096818     8A    -11.071947     9A     -1.165068
      10A     -1.060673    11A     -0.969761    12A     -0.901920
      13A     -0.808237    14A     -0.723484    15A     -0.623340
      16A     -0.533444    17A     -0.514988    18A     -0.501067
      19A     -0.453735    20A     -0.443757    21A     -0.432891
      22A     -0.415391    23A     -0.400705    24A     -0.383503
      25A     -0.373202    26A     -0.348961    27A     -0.323818
      28A     -0.238989    29A     -0.207453    30A     -0.192807
      31A     -0.190759

  @DF-RHF Final Energy:  -382.33237829522915

   => Energetics <=

    Nuclear Repulsion Energy =            338.6496065806097135
    One-Electron Energy =               -1203.0511708183200881
    Two-Electron Energy =                 482.0691859424811696
    Total Energy =                       -382.3323782952291481
  Basis Set: (AUG-CC-PVTZ AUX)
    Blend: AUG-CC-PVTZ-RI
    Molecular point group: c1

    Geometry (in Angstrom), charge = -1, multiplicity = 1:

       Center              X                  Y                   Z               Mass
    ------------   -----------------  -----------------  -----------------  -----------------
         O           -2.789014979911    -0.902624931608    -0.558916365524    15.994914619570
         O           -2.398434079911     1.256098668392    -0.044889265524    15.994914619570
         C            2.702337120089     0.148656868392    -0.665779965524    12.000000000000
         C            1.464177120089    -0.465261131608    -0.078384965524    12.000000000000
         C            0.350435120089     0.213907868392     0.240159034476    12.000000000000
         C           -0.888040879911    -0.378622131608     0.845127034476    12.000000000000
         C            3.902956120089     0.056955868392     0.282387034476    12.000000000000
         C           -2.134680879911     0.017456868392     0.014545034476    12.000000000000
         H            2.956110120089    -0.354281131608    -1.608729965524     1.007825032230
         H            2.502658120089     1.198320868392    -0.911668965524     1.007825032230
         H            1.503187120089    -1.539971131608     0.115287034476     1.007825032230
         H            0.304661120089     1.285874868392     0.040553034476     1.007825032230
         H           -0.799630879911    -1.468491131608     0.907358034476     1.007825032230
         H           -1.019909879911     0.017123868392     1.862748034476     1.007825032230
         H            4.124070120089    -0.985548131608     0.531014034476     1.007825032230
         H            3.693454120089     0.587872868392     1.215403034476     1.007825032230
         H            4.800639120089     0.494171868392    -0.166320965524     1.007825032230

  Basis Set: AUG-CC-PVTZ
    Blend: AUG-CC-PVTZ
  Basis Set: (AUG-CC-PVTZ AUX)
    Blend: AUG-CC-PVTZ-JKFIT
	 Reference Energy          =    -382.3323782952291481 [Eh]
	 Singles Energy            =      -0.0000000000000000 [Eh]
	 Same-Spin Energy          =      -0.3908764139019052 [Eh]
	 Opposite-Spin Energy      =      -1.2595083896268693 [Eh]
	 Correlation Energy        =      -1.6503848035287745 [Eh]
	 Total Energy              =    -383.9827630987579141 [Eh]

	 ================> DF-SCS-MP2 Energies <==================
	-----------------------------------------------------------
	 SCS Same-Spin Scale       =       0.3333333333333333 [-]
	 SCS Opposite-Spin Scale   =       1.2000000000000000 [-]
	 SCS Same-Spin Energy      =      -0.1302921379673017 [Eh]
	 SCS Opposite-Spin Energy  =      -1.5114100675522431 [Eh]
	 SCS Correlation Energy    =      -1.6417022055195447 [Eh]
	 SCS Total Energy          =    -383.9740805007486983 [Eh]
	-----------------------------------------------------------

  Dipole Moment: [D]
     X:    10.8336      Y:    -0.7454      Z:     1.7180     Total:    10.9943

*** Psi4 exiting successfully. Buy a developer a beer!
