                               Psi4 1.3.2 release

  ==> Input File <==

--------------------------------------------------------------------------
#psi4
#
memory 32 gb

molecule  {
-1 1
  O       -2.9259140    -0.9099280    -0.5693610
  O       -2.5318610     1.2678500    -0.0507790
  C        2.5515340     0.1562790    -0.6847320
  C        1.3142297    -0.5878409    -0.0734550
  C        0.1641668     0.2916050     0.2223368
  C       -1.0388440    -0.3710000     0.8261750
  C        3.7521530     0.0645780     0.2634350
  C       -2.2854840     0.0250790    -0.0044070
  H        2.8053070    -0.3466590    -1.6276820
  H        2.3518550     1.2059430    -0.9306210
  H        1.3523840    -1.5323490     0.0963350
  H        0.1538580     1.2934970     0.0216010
  H       -0.9504340    -1.4608690     0.8884060
  H       -1.1707130     0.0247460     1.8437960
  H        3.9732670    -0.9779260     0.5120620
  H        3.5426510     0.5954950     1.1964510
  H        4.6498360     0.5017940    -0.1852730
units angstrom
no_reorient  #important for SAPT in psi4, default
symmetry c1  #important for SAPT in psi4, default
}

set PROPERTIES_ORIGIN ["COM"]
properties('MP2/aug-cc-pvtz', properties = ['dipole'])
--------------------------------------------------------------------------

    Molecular point group: c1
  Charge       = -1
  Multiplicity = 1
  Basis Set: AUG-CC-PVTZ
    Blend: AUG-CC-PVTZ
  Basis Set: (AUG-CC-PVTZ AUX)
    Blend: AUG-CC-PVTZ-JKFIT

    Orbital Energies [Eh]
    ---------------------

    Doubly Occupied:

       1A    -20.298194     2A    -20.296844     3A    -11.144048
       4A    -11.122172     5A    -11.119950     6A    -11.118691
       7A    -11.103997     8A    -11.069638     9A     -1.166415
      10A     -1.065569    11A     -0.952498    12A     -0.893973
      13A     -0.798940    14A     -0.709657    15A     -0.663131
      16A     -0.531408    17A     -0.512473    18A     -0.491899
      19A     -0.464230    20A     -0.441867    21A     -0.432631
      22A     -0.412177    23A     -0.407024    24A     -0.389319
      25A     -0.367612    26A     -0.357758    27A     -0.314063
      28A     -0.224683    29A     -0.212074    30A     -0.196692
      31A     -0.174709

  @DF-RHF Final Energy:  -382.28662723482267

   => Energetics <=

    Nuclear Repulsion Energy =            337.2789068850087233
    One-Electron Energy =               -1200.2223912875642782
    Two-Electron Energy =                 480.6568571677328805
    Total Energy =                       -382.2866272348226744
  Basis Set: (AUG-CC-PVTZ AUX)
    Blend: AUG-CC-PVTZ-RI
    Molecular point group: c1

    Geometry (in Angstrom), charge = -1, multiplicity = 1:

       Center              X                  Y                   Z               Mass
    ------------   -----------------  -----------------  -----------------  -----------------
         O           -2.775862795146    -0.909641040107    -0.556115189277    15.994914619570
         O           -2.381809795146     1.268136959893    -0.037533189277    15.994914619570
         C            2.701585204854     0.156565959893    -0.671486189277    12.000000000000
         C            1.464280904854    -0.587553940107    -0.060209189277    12.000000000000
         C            0.314218004854     0.291891959893     0.235582610723    12.000000000000
         C           -0.888792795146    -0.370713040107     0.839420810723    12.000000000000
         C            3.902204204854     0.064864959893     0.276680810723    12.000000000000
         C           -2.135432795146     0.025365959893     0.008838810723    12.000000000000
         H            2.955358204854    -0.346372040107    -1.614436189277     1.007825032230
         H            2.501906204854     1.206229959893    -0.917375189277     1.007825032230
         H            1.502435204854    -1.532062040107     0.109580810723     1.007825032230
         H            0.303909204854     1.293783959893     0.034846810723     1.007825032230
         H           -0.800382795146    -1.460582040107     0.901651810723     1.007825032230
         H           -1.020661795146     0.025032959893     1.857041810723     1.007825032230
         H            4.123318204854    -0.977639040107     0.525307810723     1.007825032230
         H            3.692702204854     0.595781959893     1.209696810723     1.007825032230
         H            4.799887204854     0.502080959893    -0.172027189277     1.007825032230

  Basis Set: AUG-CC-PVTZ
    Blend: AUG-CC-PVTZ
  Basis Set: (AUG-CC-PVTZ AUX)
    Blend: AUG-CC-PVTZ-JKFIT
	 Reference Energy          =    -382.2866272348226744 [Eh]
	 Singles Energy            =      -0.0000000000000000 [Eh]
	 Same-Spin Energy          =      -0.3922662638617603 [Eh]
	 Opposite-Spin Energy      =      -1.2643224730161444 [Eh]
	 Correlation Energy        =      -1.6565887368779046 [Eh]
	 Total Energy              =    -383.9432159717005675 [Eh]

	 ================> DF-SCS-MP2 Energies <==================
	-----------------------------------------------------------
	 SCS Same-Spin Scale       =       0.3333333333333333 [-]
	 SCS Opposite-Spin Scale   =       1.2000000000000000 [-]
	 SCS Same-Spin Energy      =      -0.1307554212872534 [Eh]
	 SCS Opposite-Spin Energy  =      -1.5171869676193732 [Eh]
	 SCS Correlation Energy    =      -1.6479423889066267 [Eh]
	 SCS Total Energy          =    -383.9345696237293168 [Eh]
	-----------------------------------------------------------

  Dipole Moment: [D]
     X:    10.5443      Y:    -0.7545      Z:     1.7018     Total:    10.7073

*** Psi4 exiting successfully. Buy a developer a beer!
