                               Psi4 1.3.2 release

  ==> Input File <==

--------------------------------------------------------------------------
#psi4
#
memory 32 gb

molecule  {
-1 1
  O       -2.9259140    -0.9099280    -0.5693610
  O       -2.5318610     1.2678500    -0.0507790
  C        2.5515340     0.1562790    -0.6847320
  C        1.3002351    -0.4514563    -0.1191551
  C        0.1996320     0.2215300     0.2212070
  C       -1.0388440    -0.3710000     0.8261750
  C        3.7672136     0.0770676     0.2451951
  C       -2.2854840     0.0250790    -0.0044070
  H        2.8053070    -0.3466590    -1.6276820
  H        2.3518550     1.2059430    -0.9306210
  H        1.3523840    -1.5323490     0.0963350
  H        0.1538580     1.2934970     0.0216010
  H       -0.9504340    -1.4608690     0.8884060
  H       -1.1707130     0.0247460     1.8437960
  H        3.9732670    -0.9779260     0.5120620
  H        3.5426510     0.5954950     1.1964510
  H        4.6498360     0.5017940    -0.1852730
units angstrom
no_reorient  #important for SAPT in psi4, default
symmetry c1  #important for SAPT in psi4, default
}

set PROPERTIES_ORIGIN ["COM"]
properties('MP2/aug-cc-pvtz', properties = ['dipole'])
--------------------------------------------------------------------------

    Molecular point group: c1
  Charge       = -1
  Multiplicity = 1
  Basis Set: AUG-CC-PVTZ
    Blend: AUG-CC-PVTZ
  Basis Set: (AUG-CC-PVTZ AUX)
    Blend: AUG-CC-PVTZ-JKFIT

    Orbital Energies [Eh]
    ---------------------

    Doubly Occupied:

       1A    -20.297666     2A    -20.295781     3A    -11.143947
       4A    -11.124421     5A    -11.121510     6A    -11.099161
       7A    -11.095873     8A    -11.069734     9A     -1.165475
      10A     -1.064635    11A     -0.969178    12A     -0.901869
      13A     -0.807953    14A     -0.723628    15A     -0.620123
      16A     -0.533231    17A     -0.511970    18A     -0.503710
      19A     -0.453420    20A     -0.445302    21A     -0.432800
      22A     -0.412996    23A     -0.401958    24A     -0.382215
      25A     -0.371534    26A     -0.347363    27A     -0.324068
      28A     -0.240129    29A     -0.210990    30A     -0.195442
      31A     -0.189740

  @DF-RHF Final Energy:  -382.33212988077645

   => Energetics <=

    Nuclear Repulsion Energy =            338.8225022289235540
    One-Electron Energy =               -1203.3936150294896379
    Two-Electron Energy =                 482.2389829197896347
    Total Energy =                       -382.3321298807764492
  Basis Set: (AUG-CC-PVTZ AUX)
    Blend: AUG-CC-PVTZ-RI
    Molecular point group: c1

    Geometry (in Angstrom), charge = -1, multiplicity = 1:

       Center              X                  Y                   Z               Mass
    ------------   -----------------  -----------------  -----------------  -----------------
         O           -2.779740147110    -0.918004637057    -0.549208804684    15.994914619570
         O           -2.385687147110     1.259773362943    -0.030626804684    15.994914619570
         C            2.697707852890     0.148202362943    -0.664579804684    12.000000000000
         C            1.446408952890    -0.459532937057    -0.099002904684    12.000000000000
         C            0.345805852890     0.213453362943     0.241359195316    12.000000000000
         C           -0.892670147110    -0.379076637057     0.846327195316    12.000000000000
         C            3.913387452890     0.068990962943     0.265347295316    12.000000000000
         C           -2.139310147110     0.017002362943     0.015745195316    12.000000000000
         H            2.951480852890    -0.354735637057    -1.607529804684     1.007825032230
         H            2.498028852890     1.197866362943    -0.910468804684     1.007825032230
         H            1.498557852890    -1.540425637057     0.116487195316     1.007825032230
         H            0.300031852890     1.285420362943     0.041753195316     1.007825032230
         H           -0.804260147110    -1.468945637057     0.908558195316     1.007825032230
         H           -1.024539147110     0.016669362943     1.863948195316     1.007825032230
         H            4.119440852890    -0.986002637057     0.532214195316     1.007825032230
         H            3.688824852890     0.587418362943     1.216603195316     1.007825032230
         H            4.796009852890     0.493717362943    -0.165120804684     1.007825032230

  Basis Set: AUG-CC-PVTZ
    Blend: AUG-CC-PVTZ
  Basis Set: (AUG-CC-PVTZ AUX)
    Blend: AUG-CC-PVTZ-JKFIT
	 Reference Energy          =    -382.3321298807764492 [Eh]
	 Singles Energy            =      -0.0000000000000000 [Eh]
	 Same-Spin Energy          =      -0.3908885079053327 [Eh]
	 Opposite-Spin Energy      =      -1.2594382412493998 [Eh]
	 Correlation Energy        =      -1.6503267491547327 [Eh]
	 Total Energy              =    -383.9824566299311641 [Eh]

	 ================> DF-SCS-MP2 Energies <==================
	-----------------------------------------------------------
	 SCS Same-Spin Scale       =       0.3333333333333333 [-]
	 SCS Opposite-Spin Scale   =       1.2000000000000000 [-]
	 SCS Same-Spin Energy      =      -0.1302961693017776 [Eh]
	 SCS Opposite-Spin Energy  =      -1.5113258894992798 [Eh]
	 SCS Correlation Energy    =      -1.6416220588010573 [Eh]
	 SCS Total Energy          =    -383.9737519395774825 [Eh]
	-----------------------------------------------------------

  Dipole Moment: [D]
     X:    10.7321      Y:    -0.6839      Z:     1.6667     Total:    10.8823

*** Psi4 exiting successfully. Buy a developer a beer!
