                               Psi4 1.3.2 release

  ==> Input File <==

--------------------------------------------------------------------------
#psi4
#
memory 32 gb

molecule  {
-1 1
  O       -2.9259140    -0.9099280    -0.5693610
  O       -2.5318610     1.2678500    -0.0507790
  C        2.5515340     0.1562790    -0.6847320
  C        1.3143761    -0.5010837    -0.0896545
  C        0.1881828     0.2450784     0.2213994
  C       -1.0388440    -0.3710000     0.8261750
  C        3.7521530     0.0645780     0.2634350
  C       -2.2854840     0.0250790    -0.0044070
  H        2.8053070    -0.3466590    -1.6276820
  H        2.3518550     1.2059430    -0.9306210
  H        1.3523840    -1.5323490     0.0963350
  H        0.1538580     1.2934970     0.0216010
  H       -0.9504340    -1.4608690     0.8884060
  H       -1.1707130     0.0247460     1.8437960
  H        3.9732670    -0.9779260     0.5120620
  H        3.5426510     0.5954950     1.1964510
  H        4.6498360     0.5017940    -0.1852730
units angstrom
no_reorient  #important for SAPT in psi4, default
symmetry c1  #important for SAPT in psi4, default
}

set PROPERTIES_ORIGIN ["COM"]
properties('MP2/aug-cc-pvtz', properties = ['dipole'])
--------------------------------------------------------------------------

    Molecular point group: c1
  Charge       = -1
  Multiplicity = 1
  Basis Set: AUG-CC-PVTZ
    Blend: AUG-CC-PVTZ
  Basis Set: (AUG-CC-PVTZ AUX)
    Blend: AUG-CC-PVTZ-JKFIT

    Orbital Energies [Eh]
    ---------------------

    Doubly Occupied:

       1A    -20.297673     2A    -20.295991     3A    -11.143761
       4A    -11.122497     5A    -11.121292     6A    -11.105764
       7A    -11.098326     8A    -11.069098     9A     -1.165622
      10A     -1.064790    11A     -0.962926    12A     -0.897818
      13A     -0.803771    14A     -0.717128    15A     -0.634989
      16A     -0.531889    17A     -0.513998    18A     -0.497427
      19A     -0.454190    20A     -0.444157    21A     -0.432353
      22A     -0.412633    23A     -0.402852    24A     -0.382456
      25A     -0.372473    26A     -0.356778    27A     -0.322008
      28A     -0.232542    29A     -0.211200    30A     -0.195740
      31A     -0.184636

  @DF-RHF Final Energy:  -382.32712693846469

   => Energetics <=

    Nuclear Repulsion Energy =            338.3030281188725894
    One-Electron Energy =               -1202.3627554858146596
    Two-Electron Energy =                 481.7326004284773830
    Total Energy =                       -382.3271269384646871
  Basis Set: (AUG-CC-PVTZ AUX)
    Blend: AUG-CC-PVTZ-RI
    Molecular point group: c1

    Geometry (in Angstrom), charge = -1, multiplicity = 1:

       Center              X                  Y                   Z               Mass
    ------------   -----------------  -----------------  -----------------  -----------------
         O           -2.778427346245    -0.913911039339    -0.554296311362    15.994914619570
         O           -2.384374346245     1.263866960661    -0.035714311362    15.994914619570
         C            2.699020653755     0.152295960661    -0.669667311362    12.000000000000
         C            1.461862753755    -0.505066739339    -0.074589811362    12.000000000000
         C            0.335669453755     0.241095360661     0.236464088638    12.000000000000
         C           -0.891357346245    -0.374983039339     0.841239688638    12.000000000000
         C            3.899639653755     0.060594960661     0.278499688638    12.000000000000
         C           -2.137997346245     0.021095960661     0.010657688638    12.000000000000
         H            2.952793653755    -0.350642039339    -1.612617311362     1.007825032230
         H            2.499341653755     1.201959960661    -0.915556311362     1.007825032230
         H            1.499870653755    -1.536332039339     0.111399688638     1.007825032230
         H            0.301344653755     1.289513960661     0.036665688638     1.007825032230
         H           -0.802947346245    -1.464852039339     0.903470688638     1.007825032230
         H           -1.023226346245     0.020762960661     1.858860688638     1.007825032230
         H            4.120753653755    -0.981909039339     0.527126688638     1.007825032230
         H            3.690137653755     0.591511960661     1.211515688638     1.007825032230
         H            4.797322653755     0.497810960661    -0.170208311362     1.007825032230

  Basis Set: AUG-CC-PVTZ
    Blend: AUG-CC-PVTZ
  Basis Set: (AUG-CC-PVTZ AUX)
    Blend: AUG-CC-PVTZ-JKFIT
	 Reference Energy          =    -382.3271269384646871 [Eh]
	 Singles Energy            =      -0.0000000000000000 [Eh]
	 Same-Spin Energy          =      -0.3911743523597350 [Eh]
	 Opposite-Spin Energy      =      -1.2605149212043028 [Eh]
	 Correlation Energy        =      -1.6516892735640378 [Eh]
	 Total Energy              =    -383.9788162120287325 [Eh]

	 ================> DF-SCS-MP2 Energies <==================
	-----------------------------------------------------------
	 SCS Same-Spin Scale       =       0.3333333333333333 [-]
	 SCS Opposite-Spin Scale   =       1.2000000000000000 [-]
	 SCS Same-Spin Energy      =      -0.1303914507865783 [Eh]
	 SCS Opposite-Spin Energy  =      -1.5126179054451632 [Eh]
	 SCS Correlation Energy    =      -1.6430093562317416 [Eh]
	 SCS Total Energy          =    -383.9701362946964309 [Eh]
	-----------------------------------------------------------

  Dipole Moment: [D]
     X:    10.6620      Y:    -0.7361      Z:     1.6767     Total:    10.8181

*** Psi4 exiting successfully. Buy a developer a beer!
