                               Psi4 1.3.2 release

  ==> Input File <==

--------------------------------------------------------------------------
#psi4
#
memory 32 gb

molecule  {
-1 1
  O       -2.9259140    -0.9099280    -0.5693610
  O       -2.5318610     1.2678500    -0.0507790
  C        2.5396552     0.1796409    -0.6847696
  C        1.3133740    -0.4576390    -0.0973370
  C        0.1996320     0.2215300     0.2212070
  C       -1.0388440    -0.3710000     0.8261750
  C        3.7521530     0.0645780     0.2634350
  C       -2.2854840     0.0250790    -0.0044070
  H        2.8053070    -0.3466590    -1.6276820
  H        2.3518550     1.2059430    -0.9306210
  H        1.3345132    -1.5316353     0.1029562
  H        0.1538580     1.2934970     0.0216010
  H       -0.9504340    -1.4608690     0.8884060
  H       -1.1707130     0.0247460     1.8437960
  H        3.9732670    -0.9779260     0.5120620
  H        3.5426510     0.5954950     1.1964510
  H        4.6498360     0.5017940    -0.1852730
units angstrom
no_reorient  #important for SAPT in psi4, default
symmetry c1  #important for SAPT in psi4, default
}

set PROPERTIES_ORIGIN ["COM"]
properties('MP2/aug-cc-pvtz', properties = ['dipole'])
--------------------------------------------------------------------------

    Molecular point group: c1
  Charge       = -1
  Multiplicity = 1
  Basis Set: AUG-CC-PVTZ
    Blend: AUG-CC-PVTZ
  Basis Set: (AUG-CC-PVTZ AUX)
    Blend: AUG-CC-PVTZ-JKFIT

    Orbital Energies [Eh]
    ---------------------

    Doubly Occupied:

       1A    -20.297579     2A    -20.295722     3A    -11.143806
       4A    -11.123983     5A    -11.121574     6A    -11.099363
       7A    -11.095486     8A    -11.069300     9A     -1.165394
      10A     -1.064562    11A     -0.968358    12A     -0.899681
      13A     -0.806675    14A     -0.723135    15A     -0.623019
      16A     -0.532734    17A     -0.514077    18A     -0.500088
      19A     -0.453278    20A     -0.441924    21A     -0.432415
      22A     -0.411453    23A     -0.402178    24A     -0.384494
      25A     -0.376209    26A     -0.348919    27A     -0.323730
      28A     -0.237578    29A     -0.210922    30A     -0.195397
      31A     -0.188632

  @DF-RHF Final Energy:  -382.33230706737169

   => Energetics <=

    Nuclear Repulsion Energy =            338.8494261995660395
    One-Electron Energy =               -1203.4601341050270094
    Two-Electron Energy =                 482.2784008380892260
    Total Energy =                       -382.3323070673716870
  Basis Set: (AUG-CC-PVTZ AUX)
    Blend: AUG-CC-PVTZ-RI
    Molecular point group: c1

    Geometry (in Angstrom), charge = -1, multiplicity = 1:

       Center              X                  Y                   Z               Mass
    ------------   -----------------  -----------------  -----------------  -----------------
         O           -2.778116087087    -0.918508744225    -0.553515515412    15.994914619570
         O           -2.384063087087     1.259269255775    -0.034933515412    15.994914619570
         C            2.687453112913     0.171060155775    -0.668924115412    12.000000000000
         C            1.461171912913    -0.466219744225    -0.081491515412    12.000000000000
         C            0.347429912913     0.212949255775     0.237052484588    12.000000000000
         C           -0.891046087087    -0.379580744225     0.842020484588    12.000000000000
         C            3.899950912913     0.055997255775     0.279280484588    12.000000000000
         C           -2.137686087087     0.016498255775     0.011438484588    12.000000000000
         H            2.953104912913    -0.355239744225    -1.611836515412     1.007825032230
         H            2.499652912913     1.197362255775    -0.914775515412     1.007825032230
         H            1.482311112913    -1.540216044225     0.118801684588     1.007825032230
         H            0.301655912913     1.284916255775     0.037446484588     1.007825032230
         H           -0.802636087087    -1.469449744225     0.904251484588     1.007825032230
         H           -1.022915087087     0.016165255775     1.859641484588     1.007825032230
         H            4.121064912913    -0.986506744225     0.527907484588     1.007825032230
         H            3.690448912913     0.586914255775     1.212296484588     1.007825032230
         H            4.797633912913     0.493213255775    -0.169427515412     1.007825032230

  Basis Set: AUG-CC-PVTZ
    Blend: AUG-CC-PVTZ
  Basis Set: (AUG-CC-PVTZ AUX)
    Blend: AUG-CC-PVTZ-JKFIT
	 Reference Energy          =    -382.3323070673716870 [Eh]
	 Singles Energy            =      -0.0000000000000000 [Eh]
	 Same-Spin Energy          =      -0.3909136199326713 [Eh]
	 Opposite-Spin Energy      =      -1.2595230105666091 [Eh]
	 Correlation Energy        =      -1.6504366304992804 [Eh]
	 Total Energy              =    -383.9827436978709443 [Eh]

	 ================> DF-SCS-MP2 Energies <==================
	-----------------------------------------------------------
	 SCS Same-Spin Scale       =       0.3333333333333333 [-]
	 SCS Opposite-Spin Scale   =       1.2000000000000000 [-]
	 SCS Same-Spin Energy      =      -0.1303045399775571 [Eh]
	 SCS Opposite-Spin Energy  =      -1.5114276126799309 [Eh]
	 SCS Correlation Energy    =      -1.6417321526574880 [Eh]
	 SCS Total Energy          =    -383.9740392200291694 [Eh]
	-----------------------------------------------------------

  Dipole Moment: [D]
     X:    10.7024      Y:    -0.6920      Z:     1.6643     Total:    10.8532

*** Psi4 exiting successfully. Buy a developer a beer!
