                               Psi4 1.4a3.dev225

  ==> Input File <==

--------------------------------------------------------------------------
#psi4
#
memory 32 gb

molecule  {
-1 1
  O       -3.0493610    -0.8021490    -0.5876160
  O       -2.4328600     1.2902580     0.0530700
  C        2.5553900     0.3550440    -0.5884220
  C        1.2919413    -0.3947555    -0.1949014
  C        0.2108510     0.1869800     0.3208840
  C       -1.0406500    -0.5396790     0.7060670
  C        3.7725750    -0.0944570     0.2252300
  C       -2.2894080     0.0326700    -0.0161130
  H        2.7644980     0.1992670    -1.6554110
  H        2.3954460     1.4315290    -0.4528260
  H        1.3245080    -1.4678690    -0.3463610
  H        0.1904760     1.2677450     0.4620520
  H       -0.9472880    -1.6102600     0.4951310
  H       -1.2137680    -0.4258540     1.7866990
  H        3.9502020    -1.1668590     0.0980420
  H        3.6128950     0.0963670     1.2904210
  H        4.6769210     0.4370950    -0.0868020
units angstrom
no_reorient  #important for SAPT in psi4, default
symmetry c1  #important for SAPT in psi4, default
}

set PROPERTIES_ORIGIN ["COM"]
properties('MP2/aug-cc-pvtz', properties = ['dipole'])
--------------------------------------------------------------------------

    Molecular point group: c1
  Charge       = -1
  Multiplicity = 1
  Basis Set: AUG-CC-PVTZ
    Blend: AUG-CC-PVTZ
  Basis Set: (AUG-CC-PVTZ AUX)
    Blend: AUG-CC-PVTZ-JKFIT

    Orbital Energies [Eh]
    ---------------------

    Doubly Occupied:

       1A    -20.297673     2A    -20.295965     3A    -11.144119
       4A    -11.123324     5A    -11.121303     6A    -11.097000
       7A    -11.093695     8A    -11.068647     9A     -1.165776
      10A     -1.065269    11A     -0.967157    12A     -0.901559
      13A     -0.805315    14A     -0.721686    15A     -0.623446
      16A     -0.532102    17A     -0.512381    18A     -0.500736
      19A     -0.453519    20A     -0.443613    21A     -0.433065
      22A     -0.413812    23A     -0.401820    24A     -0.383036
      25A     -0.374327    26A     -0.344293    27A     -0.322962
      28A     -0.240670    29A     -0.211673    30A     -0.196133
      31A     -0.188815

  @DF-RHF Final Energy:  -382.33395842003591

   => Energetics <=

    Nuclear Repulsion Energy =            338.7013508530102968
    One-Electron Energy =               -1203.1808368908411921
    Two-Electron Energy =                 482.1455276177949258
    Total Energy =                       -382.3339584200359127
  Basis Set: (AUG-CC-PVTZ AUX)
    Blend: AUG-CC-PVTZ-RI
    Molecular point group: c1

    Geometry (in Angstrom), charge = -1, multiplicity = 1:

       Center              X                  Y                   Z               Mass
    ------------   -----------------  -----------------  -----------------  -----------------
         O           -2.900818299815    -0.811952257825    -0.574227667905    15.994914619570
         O           -2.284317299815     1.280454742175     0.066458332095    15.994914619570
         C            2.703932700185     0.345240742175    -0.575033667905    12.000000000000
         C            1.440484000185    -0.404558757825    -0.181513067905    12.000000000000
         C            0.359393700185     0.177176742175     0.334272332095    12.000000000000
         C           -0.892107299815    -0.549482257825     0.719455332095    12.000000000000
         C            3.921117700185    -0.104260257825     0.238618332095    12.000000000000
         C           -2.140865299815     0.022866742175    -0.002724667905    12.000000000000
         H            2.913040700185     0.189463742175    -1.642022667905     1.007825032230
         H            2.543988700185     1.421725742175    -0.439437667905     1.007825032230
         H            1.473050700185    -1.477672257825    -0.332972667905     1.007825032230
         H            0.339018700185     1.257941742175     0.475440332095     1.007825032230
         H           -0.798745299815    -1.620063257825     0.508519332095     1.007825032230
         H           -1.065225299815    -0.435657257825     1.800087332095     1.007825032230
         H            4.098744700185    -1.176662257825     0.111430332095     1.007825032230
         H            3.761437700185     0.086563742175     1.303809332095     1.007825032230
         H            4.825463700185     0.427291742175    -0.073413667905     1.007825032230

  Basis Set: AUG-CC-PVTZ
    Blend: AUG-CC-PVTZ
  Basis Set: (AUG-CC-PVTZ AUX)
    Blend: AUG-CC-PVTZ-JKFIT
	 Reference Energy          =    -382.3339584200359127 [Eh]
	 Singles Energy            =      -0.0000000000000000 [Eh]
	 Same-Spin Energy          =      -0.3906230919652215 [Eh]
	 Opposite-Spin Energy      =      -1.2589849747831880 [Eh]
	 Correlation Energy        =      -1.6496080667484097 [Eh]
	 Total Energy              =    -383.9835664867842979 [Eh]

	 ================> DF-SCS-MP2 Energies <==================
	-----------------------------------------------------------
	 SCS Same-Spin Scale       =       0.3333333333333333 [-]
	 SCS Opposite-Spin Scale   =       1.2000000000000000 [-]
	 SCS Same-Spin Energy      =      -0.1302076973217405 [Eh]
	 SCS Opposite-Spin Energy  =      -1.5107819697398257 [Eh]
	 SCS Correlation Energy    =      -1.6409896670615662 [Eh]
	 SCS Total Energy          =    -383.9749480870974594 [Eh]
	-----------------------------------------------------------

  Dipole Moment: [D]
     X:    10.7247      Y:    -1.0322      Z:     1.4748     Total:    10.8747

*** Psi4 exiting successfully. Buy a developer a beer!
