                               Psi4 1.3.2 release

  ==> Input File <==

--------------------------------------------------------------------------
#psi4
#
memory 32 gb

molecule  {
-1 1
  O       -2.9259140    -0.9099280    -0.5693610
  O       -2.5318610     1.2678500    -0.0507790
  C        2.5515340     0.1562790    -0.6847320
  C        1.3133740    -0.4576390    -0.0973370
  C        0.1952140     0.2078442     0.1993249
  C       -1.0388440    -0.3710000     0.8261750
  C        3.7521530     0.0645780     0.2634350
  C       -2.2854840     0.0250790    -0.0044070
  H        2.8053070    -0.3466590    -1.6276820
  H        2.3518550     1.2059430    -0.9306210
  H        1.3523840    -1.5323490     0.0963350
  H        0.1538580     1.2934970     0.0216010
  H       -0.9504340    -1.4608690     0.8884060
  H       -1.1866730     0.0142412     1.8456320
  H        3.9732670    -0.9779260     0.5120620
  H        3.5426510     0.5954950     1.1964510
  H        4.6498360     0.5017940    -0.1852730
units angstrom
no_reorient  #important for SAPT in psi4, default
symmetry c1  #important for SAPT in psi4, default
}

set PROPERTIES_ORIGIN ["COM"]
properties('MP2/aug-cc-pvtz', properties = ['dipole'])
--------------------------------------------------------------------------

    Molecular point group: c1
  Charge       = -1
  Multiplicity = 1
  Basis Set: AUG-CC-PVTZ
    Blend: AUG-CC-PVTZ
  Basis Set: (AUG-CC-PVTZ AUX)
    Blend: AUG-CC-PVTZ-JKFIT

    Orbital Energies [Eh]
    ---------------------

    Doubly Occupied:

       1A    -20.297213     2A    -20.295604     3A    -11.143416
       4A    -11.123995     5A    -11.121662     6A    -11.099743
       7A    -11.094843     8A    -11.069400     9A     -1.165204
      10A     -1.064333    11A     -0.969706    12A     -0.901177
      13A     -0.807459    14A     -0.723384    15A     -0.620864
      16A     -0.532596    17A     -0.514333    18A     -0.500672
      19A     -0.454690    20A     -0.442929    21A     -0.432353
      22A     -0.414848    23A     -0.400856    24A     -0.383902
      25A     -0.373290    26A     -0.345321    27A     -0.324469
      28A     -0.239604    29A     -0.210691    30A     -0.195184
      31A     -0.189219

  @DF-RHF Final Energy:  -382.33271752371331

   => Energetics <=

    Nuclear Repulsion Energy =            338.9549181466148298
    One-Electron Energy =               -1203.6693528034918472
    Two-Electron Energy =                 482.3817171331637610
    Total Energy =                       -382.3327175237133133
  Basis Set: (AUG-CC-PVTZ AUX)
    Blend: AUG-CC-PVTZ-RI
    Molecular point group: c1

    Geometry (in Angstrom), charge = -1, multiplicity = 1:

       Center              X                  Y                   Z               Mass
    ------------   -----------------  -----------------  -----------------  -----------------
         O           -2.778924995155    -0.914476569638    -0.551154326279    15.994914619570
         O           -2.384871995155     1.263301430362    -0.032572326279    15.994914619570
         C            2.698523004845     0.151730430362    -0.666525326279    12.000000000000
         C            1.460363004845    -0.462187569638    -0.079130326279    12.000000000000
         C            0.342203004845     0.203295630362     0.217531573721    12.000000000000
         C           -0.891854995155    -0.375548569638     0.844381673721    12.000000000000
         C            3.899142004845     0.060029430362     0.281641673721    12.000000000000
         C           -2.138494995155     0.020530430362     0.013799673721    12.000000000000
         H            2.952296004845    -0.351207569638    -1.609475326279     1.007825032230
         H            2.498844004845     1.201394430362    -0.912414326279     1.007825032230
         H            1.499373004845    -1.536897569638     0.114541673721     1.007825032230
         H            0.300847004845     1.288948430362     0.039807673721     1.007825032230
         H           -0.803444995155    -1.465417569638     0.906612673721     1.007825032230
         H           -1.039683995155     0.009692630362     1.863838673721     1.007825032230
         H            4.120256004845    -0.982474569638     0.530268673721     1.007825032230
         H            3.689640004845     0.590946430362     1.214657673721     1.007825032230
         H            4.796825004845     0.497245430362    -0.167066326279     1.007825032230

  Basis Set: AUG-CC-PVTZ
    Blend: AUG-CC-PVTZ
  Basis Set: (AUG-CC-PVTZ AUX)
    Blend: AUG-CC-PVTZ-JKFIT
	 Reference Energy          =    -382.3327175237133133 [Eh]
	 Singles Energy            =      -0.0000000000000000 [Eh]
	 Same-Spin Energy          =      -0.3909052199135163 [Eh]
	 Opposite-Spin Energy      =      -1.2594748179190689 [Eh]
	 Correlation Energy        =      -1.6503800378325852 [Eh]
	 Total Energy              =    -383.9830975615458897 [Eh]

	 ================> DF-SCS-MP2 Energies <==================
	-----------------------------------------------------------
	 SCS Same-Spin Scale       =       0.3333333333333333 [-]
	 SCS Opposite-Spin Scale   =       1.2000000000000000 [-]
	 SCS Same-Spin Energy      =      -0.1303017399711721 [Eh]
	 SCS Opposite-Spin Energy  =      -1.5113697815028826 [Eh]
	 SCS Correlation Energy    =      -1.6416715214740547 [Eh]
	 SCS Total Energy          =    -383.9743890451873654 [Eh]
	-----------------------------------------------------------

  Dipole Moment: [D]
     X:    10.7324      Y:    -0.7229      Z:     1.6737     Total:    10.8862

*** Psi4 exiting successfully. Buy a developer a beer!
