                               Psi4 1.4a3.dev225

  ==> Input File <==

--------------------------------------------------------------------------
#psi4
#
memory 32 gb

molecule  {
-1 1
  O       -3.0493610    -0.8021490    -0.5876160
  O       -2.4328600     1.2902580     0.0530700
  C        2.5553900     0.3550440    -0.5884220
  C        1.3085550    -0.3848960    -0.2000760
  C        0.2108510     0.1869800     0.3208840
  C       -1.0406500    -0.5396790     0.7060670
  C        3.7725750    -0.0944570     0.2252300
  C       -2.2894080     0.0326700    -0.0161130
  H        2.7644980     0.1992670    -1.6554110
  H        2.3954460     1.4315290    -0.4528260
  H        1.3247999    -1.4876869    -0.3490379
  H        0.1904760     1.2677450     0.4620520
  H       -0.9472880    -1.6102600     0.4951310
  H       -1.2137680    -0.4258540     1.7866990
  H        3.9502020    -1.1668590     0.0980420
  H        3.6128950     0.0963670     1.2904210
  H        4.6769210     0.4370950    -0.0868020
units angstrom
no_reorient  #important for SAPT in psi4, default
symmetry c1  #important for SAPT in psi4, default
}

set PROPERTIES_ORIGIN ["COM"]
properties('MP2/aug-cc-pvtz', properties = ['dipole'])
--------------------------------------------------------------------------

    Molecular point group: c1
  Charge       = -1
  Multiplicity = 1
  Basis Set: AUG-CC-PVTZ
    Blend: AUG-CC-PVTZ
  Basis Set: (AUG-CC-PVTZ AUX)
    Blend: AUG-CC-PVTZ-JKFIT

    Orbital Energies [Eh]
    ---------------------

    Doubly Occupied:

       1A    -20.297932     2A    -20.296174     3A    -11.144481
       4A    -11.123465     5A    -11.121072     6A    -11.099243
       7A    -11.097129     8A    -11.069346     9A     -1.166017
      10A     -1.065501    11A     -0.968358    12A     -0.900551
      13A     -0.806125    14A     -0.721995    15A     -0.619789
      16A     -0.532598    17A     -0.513102    18A     -0.501606
      19A     -0.452455    20A     -0.441822    21A     -0.433256
      22A     -0.414754    23A     -0.401644    24A     -0.382929
      25A     -0.374820    26A     -0.344599    27A     -0.324189
      28A     -0.238967    29A     -0.211873    30A     -0.196311
      31A     -0.188057

  @DF-RHF Final Energy:  -382.33308956345508

   => Energetics <=

    Nuclear Repulsion Energy =            338.5907093180944116
    One-Electron Energy =               -1202.9472759603675058
    Two-Electron Energy =                 482.0234770788179617
    Total Energy =                       -382.3330895634550757
  Basis Set: (AUG-CC-PVTZ AUX)
    Blend: AUG-CC-PVTZ-RI
    Molecular point group: c1

    Geometry (in Angstrom), charge = -1, multiplicity = 1:

       Center              X                  Y                   Z               Mass
    ------------   -----------------  -----------------  -----------------  -----------------
         O           -2.902584248290    -0.812822068571    -0.573654583694    15.994914619570
         O           -2.286083248290     1.279584931429     0.067031416306    15.994914619570
         C            2.702166751710     0.344370931429    -0.574460583694    12.000000000000
         C            1.455331751710    -0.395569068571    -0.186114583694    12.000000000000
         C            0.357627751710     0.176306931429     0.334845416306    12.000000000000
         C           -0.893873248290    -0.550352068571     0.720028416306    12.000000000000
         C            3.919351751710    -0.105130068571     0.239191416306    12.000000000000
         C           -2.142631248290     0.021996931429    -0.002151583694    12.000000000000
         H            2.911274751710     0.188593931429    -1.641449583694     1.007825032230
         H            2.542222751710     1.420855931429    -0.438864583694     1.007825032230
         H            1.471576651710    -1.498359968571    -0.335076483694     1.007825032230
         H            0.337252751710     1.257071931429     0.476013416306     1.007825032230
         H           -0.800511248290    -1.620933068571     0.509092416306     1.007825032230
         H           -1.066991248290    -0.436527068571     1.800660416306     1.007825032230
         H            4.096978751710    -1.177532068571     0.112003416306     1.007825032230
         H            3.759671751710     0.085693931429     1.304382416306     1.007825032230
         H            4.823697751710     0.426421931429    -0.072840583694     1.007825032230

  Basis Set: AUG-CC-PVTZ
    Blend: AUG-CC-PVTZ
  Basis Set: (AUG-CC-PVTZ AUX)
    Blend: AUG-CC-PVTZ-JKFIT
	 Reference Energy          =    -382.3330895634550757 [Eh]
	 Singles Energy            =      -0.0000000000000000 [Eh]
	 Same-Spin Energy          =      -0.3909355945317831 [Eh]
	 Opposite-Spin Energy      =      -1.2595382613095016 [Eh]
	 Correlation Energy        =      -1.6504738558412848 [Eh]
	 Total Energy              =    -383.9835634192963880 [Eh]

	 ================> DF-SCS-MP2 Energies <==================
	-----------------------------------------------------------
	 SCS Same-Spin Scale       =       0.3333333333333333 [-]
	 SCS Opposite-Spin Scale   =       1.2000000000000000 [-]
	 SCS Same-Spin Energy      =      -0.1303118648439277 [Eh]
	 SCS Opposite-Spin Energy  =      -1.5114459135714020 [Eh]
	 SCS Correlation Energy    =      -1.6417577784153297 [Eh]
	 SCS Total Energy          =    -383.9748473418704293 [Eh]
	-----------------------------------------------------------

  Dipole Moment: [D]
     X:    10.7242      Y:    -1.0055      Z:     1.4708     Total:    10.8712

*** Psi4 exiting successfully. Buy a developer a beer!
