                               Psi4 1.3.2 release

  ==> Input File <==

--------------------------------------------------------------------------
#psi4
#
memory 32 gb

molecule  {
-1 1
  O       -2.9259140    -0.9099280    -0.5693610
  O       -2.5318610     1.2678500    -0.0507790
  C        2.5626474     0.1325564    -0.6855153
  C        1.3133740    -0.4576390    -0.0973370
  C        0.1996320     0.2215300     0.2212070
  C       -1.0376001    -0.4146731     0.8323861
  C        3.7521530     0.0645780     0.2634350
  C       -2.2854840     0.0250790    -0.0044070
  H        2.8053070    -0.3466590    -1.6276820
  H        2.3518550     1.2059430    -0.9306210
  H        1.3523840    -1.5323490     0.0963350
  H        0.1538580     1.2934970     0.0216010
  H       -0.9504340    -1.4608690     0.8884060
  H       -1.1707130     0.0247460     1.8437960
  H        3.9732670    -0.9779260     0.5120620
  H        3.5426510     0.5954950     1.1964510
  H        4.6498360     0.5017940    -0.1852730
units angstrom
no_reorient  #important for SAPT in psi4, default
symmetry c1  #important for SAPT in psi4, default
}

set PROPERTIES_ORIGIN ["COM"]
properties('MP2/aug-cc-pvtz', properties = ['dipole'])
--------------------------------------------------------------------------

    Molecular point group: c1
  Charge       = -1
  Multiplicity = 1
  Basis Set: AUG-CC-PVTZ
    Blend: AUG-CC-PVTZ
  Basis Set: (AUG-CC-PVTZ AUX)
    Blend: AUG-CC-PVTZ-JKFIT

    Orbital Energies [Eh]
    ---------------------

    Doubly Occupied:

       1A    -20.297099     2A    -20.297036     3A    -11.145074
       4A    -11.123231     5A    -11.121262     6A    -11.101204
       7A    -11.094563     8A    -11.068704     9A     -1.165171
      10A     -1.064703    11A     -0.968538    12A     -0.899852
      13A     -0.805863    14A     -0.722165    15A     -0.621199
      16A     -0.532518    17A     -0.514984    18A     -0.499580
      19A     -0.451545    20A     -0.444288    21A     -0.431133
      22A     -0.417666    23A     -0.401702    24A     -0.382182
      25A     -0.372128    26A     -0.352573    27A     -0.321902
      28A     -0.237773    29A     -0.212108    30A     -0.195834
      31A     -0.187154

  @DF-RHF Final Energy:  -382.33032047381158

   => Energetics <=

    Nuclear Repulsion Energy =            338.4802168027637777
    One-Electron Energy =               -1202.7196050367490443
    Two-Electron Energy =                 481.9090677601736274
    Total Energy =                       -382.3303204738115824
  Basis Set: (AUG-CC-PVTZ AUX)
    Blend: AUG-CC-PVTZ-RI
    Molecular point group: c1

    Geometry (in Angstrom), charge = -1, multiplicity = 1:

       Center              X                  Y                   Z               Mass
    ------------   -----------------  -----------------  -----------------  -----------------
         O           -2.780847761811    -0.908869543524    -0.554036580831    15.994914619570
         O           -2.386794761811     1.268908456476    -0.035454580831    15.994914619570
         C            2.707713638189     0.133614856476    -0.670190880831    12.000000000000
         C            1.458440238189    -0.456580543524    -0.082012580831    12.000000000000
         C            0.344698238189     0.222588456476     0.236531419169    12.000000000000
         C           -0.892533861811    -0.413614643524     0.847710519169    12.000000000000
         C            3.897219238189     0.065636456476     0.278759419169    12.000000000000
         C           -2.140417761811     0.026137456476     0.010917419169    12.000000000000
         H            2.950373238189    -0.345600543524    -1.612357580831     1.007825032230
         H            2.496921238189     1.207001456476    -0.915296580831     1.007825032230
         H            1.497450238189    -1.531290543524     0.111659419169     1.007825032230
         H            0.298924238189     1.294555456476     0.036925419169     1.007825032230
         H           -0.805367761811    -1.459810543524     0.903730419169     1.007825032230
         H           -1.025646761811     0.025804456476     1.859120419169     1.007825032230
         H            4.118333238189    -0.976867543524     0.527386419169     1.007825032230
         H            3.687717238189     0.596553456476     1.211775419169     1.007825032230
         H            4.794902238189     0.502852456476    -0.169948580831     1.007825032230

  Basis Set: AUG-CC-PVTZ
    Blend: AUG-CC-PVTZ
  Basis Set: (AUG-CC-PVTZ AUX)
    Blend: AUG-CC-PVTZ-JKFIT
	 Reference Energy          =    -382.3303204738115824 [Eh]
	 Singles Energy            =      -0.0000000000000000 [Eh]
	 Same-Spin Energy          =      -0.3908925430858027 [Eh]
	 Opposite-Spin Energy      =      -1.2595463762142562 [Eh]
	 Correlation Energy        =      -1.6504389193000590 [Eh]
	 Total Energy              =    -383.9807593931116685 [Eh]

	 ================> DF-SCS-MP2 Energies <==================
	-----------------------------------------------------------
	 SCS Same-Spin Scale       =       0.3333333333333333 [-]
	 SCS Opposite-Spin Scale   =       1.2000000000000000 [-]
	 SCS Same-Spin Energy      =      -0.1302975143619342 [Eh]
	 SCS Opposite-Spin Energy  =      -1.5114556514571074 [Eh]
	 SCS Correlation Energy    =      -1.6417531658190416 [Eh]
	 SCS Total Energy          =    -383.9720736396306506 [Eh]
	-----------------------------------------------------------

  Dipole Moment: [D]
     X:    10.6915      Y:    -0.7729      Z:     1.6548     Total:    10.8464

*** Psi4 exiting successfully. Buy a developer a beer!
