                               Psi4 1.3.2 release

  ==> Input File <==

--------------------------------------------------------------------------
#psi4
#
memory 32 gb

molecule  {
-1 1
  O       -2.9259140    -0.9099280    -0.5693610
  O       -2.5318610     1.2678500    -0.0507790
  C        2.5515340     0.1562790    -0.6847320
  C        1.3133740    -0.4576390    -0.0973370
  C        0.1996320     0.2215300     0.2212070
  C       -1.2039411    -0.4499882     0.9068213
  C        3.7521530     0.0645780     0.2634350
  C       -2.2854840     0.0250790    -0.0044070
  H        2.8053070    -0.3466590    -1.6276820
  H        2.3518550     1.2059430    -0.9306210
  H        1.3523840    -1.5323490     0.0963350
  H        0.1538580     1.2934970     0.0216010
  H       -0.9504340    -1.4608690     0.8884060
  H       -1.1707130     0.0247460     1.8437960
  H        3.9732670    -0.9779260     0.5120620
  H        3.5426510     0.5954950     1.1964510
  H        4.6498360     0.5017940    -0.1852730
units angstrom
no_reorient  #important for SAPT in psi4, default
symmetry c1  #important for SAPT in psi4, default
}

set PROPERTIES_ORIGIN ["COM"]
properties('MP2/aug-cc-pvtz', properties = ['dipole'])
--------------------------------------------------------------------------

    Molecular point group: c1
  Charge       = -1
  Multiplicity = 1
  Basis Set: AUG-CC-PVTZ
    Blend: AUG-CC-PVTZ
  Basis Set: (AUG-CC-PVTZ AUX)
    Blend: AUG-CC-PVTZ-JKFIT

    Orbital Energies [Eh]
    ---------------------

    Doubly Occupied:

       1A    -20.295308     2A    -20.293443     3A    -11.140279
       4A    -11.123890     5A    -11.121779     6A    -11.105516
       7A    -11.096609     8A    -11.073958     9A     -1.166018
      10A     -1.063811    11A     -0.965128    12A     -0.885692
      13A     -0.810292    14A     -0.727853    15A     -0.619236
      16A     -0.541627    17A     -0.512917    18A     -0.499727
      19A     -0.456117    20A     -0.440166    21A     -0.435876
      22A     -0.415125    23A     -0.405453    24A     -0.385139
      25A     -0.376265    26A     -0.349829    27A     -0.289645
      28A     -0.232630    29A     -0.211563    30A     -0.198123
      31A     -0.194123

  @DF-RHF Final Energy:  -382.30597923104222

   => Energetics <=

    Nuclear Repulsion Energy =            337.4183472951602312
    One-Electron Energy =               -1200.5823804632732390
    Two-Electron Energy =                 480.8580539370708493
    Total Energy =                       -382.3059792310422154
  Basis Set: (AUG-CC-PVTZ AUX)
    Blend: AUG-CC-PVTZ-RI
    Molecular point group: c1

    Geometry (in Angstrom), charge = -1, multiplicity = 1:

       Center              X                  Y                   Z               Mass
    ------------   -----------------  -----------------  -----------------  -----------------
         O           -2.762013089902    -0.907639137661    -0.562020129105    15.994914619570
         O           -2.367960089902     1.270138862339    -0.043438129105    15.994914619570
         C            2.715434910098     0.158567862339    -0.677391129105    12.000000000000
         C            1.477274910098    -0.455350137661    -0.089996129105    12.000000000000
         C            0.363532910098     0.223818862339     0.228547870895    12.000000000000
         C           -1.040040189902    -0.447699337661     0.914162170895    12.000000000000
         C            3.916053910098     0.066866862339     0.270775870895    12.000000000000
         C           -2.121583089902     0.027367862339     0.002933870895    12.000000000000
         H            2.969207910098    -0.344370137661    -1.620341129105     1.007825032230
         H            2.515755910098     1.208231862339    -0.923280129105     1.007825032230
         H            1.516284910098    -1.530060137661     0.103675870895     1.007825032230
         H            0.317758910098     1.295785862339     0.028941870895     1.007825032230
         H           -0.786533089902    -1.458580137661     0.895746870895     1.007825032230
         H           -1.006812089902     0.027034862339     1.851136870895     1.007825032230
         H            4.137167910098    -0.975637137661     0.519402870895     1.007825032230
         H            3.706551910098     0.597783862339     1.203791870895     1.007825032230
         H            4.813736910098     0.504082862339    -0.177932129105     1.007825032230

  Basis Set: AUG-CC-PVTZ
    Blend: AUG-CC-PVTZ
  Basis Set: (AUG-CC-PVTZ AUX)
    Blend: AUG-CC-PVTZ-JKFIT
	 Reference Energy          =    -382.3059792310422154 [Eh]
	 Singles Energy            =      -0.0000000000000000 [Eh]
	 Same-Spin Energy          =      -0.3907357016417805 [Eh]
	 Opposite-Spin Energy      =      -1.2608168447836032 [Eh]
	 Correlation Energy        =      -1.6515525464253837 [Eh]
	 Total Energy              =    -383.9575317774675796 [Eh]

	 ================> DF-SCS-MP2 Energies <==================
	-----------------------------------------------------------
	 SCS Same-Spin Scale       =       0.3333333333333333 [-]
	 SCS Opposite-Spin Scale   =       1.2000000000000000 [-]
	 SCS Same-Spin Energy      =      -0.1302452338805935 [Eh]
	 SCS Opposite-Spin Energy  =      -1.5129802137403239 [Eh]
	 SCS Correlation Energy    =      -1.6432254476209174 [Eh]
	 SCS Total Energy          =    -383.9492046786631363 [Eh]
	-----------------------------------------------------------

  Dipole Moment: [D]
     X:    10.8342      Y:    -0.8156      Z:     1.8044     Total:    11.0137

*** Psi4 exiting successfully. Buy a developer a beer!
