                               Psi4 1.3.2 release

  ==> Input File <==

--------------------------------------------------------------------------
#psi4
#
memory 32 gb

molecule  {
-1 1
  O       -2.9259140    -0.9099280    -0.5693610
  O       -2.5318610     1.2678500    -0.0507790
  C        2.5515340     0.1562790    -0.6847320
  C        1.3133740    -0.4576390    -0.0973370
  C        0.1996320     0.2215300     0.2212070
  C       -1.0714009    -0.2995401     0.8244170
  C        3.7521530     0.0645780     0.2634350
  C       -2.2854840     0.0250790    -0.0044070
  H        2.8053070    -0.3466590    -1.6276820
  H        2.3518550     1.2059430    -0.9306210
  H        1.3523840    -1.5323490     0.0963350
  H        0.1006461     1.2935771     0.0424116
  H       -0.9504340    -1.4608690     0.8884060
  H       -1.1707130     0.0247460     1.8437960
  H        3.9732670    -0.9779260     0.5120620
  H        3.5426510     0.5954950     1.1964510
  H        4.6498360     0.5017940    -0.1852730
units angstrom
no_reorient  #important for SAPT in psi4, default
symmetry c1  #important for SAPT in psi4, default
}

set PROPERTIES_ORIGIN ["COM"]
properties('MP2/aug-cc-pvtz', properties = ['dipole'])
--------------------------------------------------------------------------

    Molecular point group: c1
  Charge       = -1
  Multiplicity = 1
  Basis Set: AUG-CC-PVTZ
    Blend: AUG-CC-PVTZ
  Basis Set: (AUG-CC-PVTZ AUX)
    Blend: AUG-CC-PVTZ-JKFIT

    Orbital Energies [Eh]
    ---------------------

    Doubly Occupied:

       1A    -20.298120     2A    -20.294209     3A    -11.141184
       4A    -11.124475     5A    -11.122580     6A    -11.101376
       7A    -11.098961     8A    -11.072097     9A     -1.166956
      10A     -1.065062    11A     -0.969362    12A     -0.901418
      13A     -0.810140    14A     -0.724551    15A     -0.623595
      16A     -0.538025    17A     -0.515316    18A     -0.503500
      19A     -0.456284    20A     -0.442070    21A     -0.436948
      22A     -0.416535    23A     -0.401824    24A     -0.384874
      25A     -0.371079    26A     -0.332402    27A     -0.320704
      28A     -0.238734    29A     -0.208932    30A     -0.195548
      31A     -0.194977

  @DF-RHF Final Energy:  -382.32511185054079

   => Energetics <=

    Nuclear Repulsion Energy =            339.3143304447719402
    One-Electron Energy =               -1204.3352128818949041
    Two-Electron Energy =                 482.6957705865821708
    Total Energy =                       -382.3251118505407931
  Basis Set: (AUG-CC-PVTZ AUX)
    Blend: AUG-CC-PVTZ-RI
    Molecular point group: c1

    Geometry (in Angstrom), charge = -1, multiplicity = 1:

       Center              X                  Y                   Z               Mass
    ------------   -----------------  -----------------  -----------------  -----------------
         O           -2.775606320534    -0.923608126360    -0.553459400489    15.994914619570
         O           -2.381553320534     1.254169873640    -0.034877400489    15.994914619570
         C            2.701841679466     0.142598873640    -0.668830400489    12.000000000000
         C            1.463681679466    -0.471319126360    -0.081435400489    12.000000000000
         C            0.349939679466     0.207849873640     0.237108599511    12.000000000000
         C           -0.921093220534    -0.313220226360     0.840318599511    12.000000000000
         C            3.902460679466     0.050897873640     0.279336599511    12.000000000000
         C           -2.135176320534     0.011398873640     0.011494599511    12.000000000000
         H            2.955614679466    -0.360339126360    -1.611780400489     1.007825032230
         H            2.502162679466     1.192262873640    -0.914719400489     1.007825032230
         H            1.502691679466    -1.546029126360     0.112236599511     1.007825032230
         H            0.250953779466     1.279896973640     0.058313199511     1.007825032230
         H           -0.800126320534    -1.474549126360     0.904307599511     1.007825032230
         H           -1.020405320534     0.011065873640     1.859697599511     1.007825032230
         H            4.123574679466    -0.991606126360     0.527963599511     1.007825032230
         H            3.692958679466     0.581814873640     1.212352599511     1.007825032230
         H            4.800143679466     0.488113873640    -0.169371400489     1.007825032230

  Basis Set: AUG-CC-PVTZ
    Blend: AUG-CC-PVTZ
  Basis Set: (AUG-CC-PVTZ AUX)
    Blend: AUG-CC-PVTZ-JKFIT
	 Reference Energy          =    -382.3251118505407931 [Eh]
	 Singles Energy            =      -0.0000000000000000 [Eh]
	 Same-Spin Energy          =      -0.3911924418198373 [Eh]
	 Opposite-Spin Energy      =      -1.2604013426326315 [Eh]
	 Correlation Energy        =      -1.6515937844524688 [Eh]
	 Total Energy              =    -383.9767056349932659 [Eh]

	 ================> DF-SCS-MP2 Energies <==================
	-----------------------------------------------------------
	 SCS Same-Spin Scale       =       0.3333333333333333 [-]
	 SCS Opposite-Spin Scale   =       1.2000000000000000 [-]
	 SCS Same-Spin Energy      =      -0.1303974806066124 [Eh]
	 SCS Opposite-Spin Energy  =      -1.5124816111591577 [Eh]
	 SCS Correlation Energy    =      -1.6428790917657701 [Eh]
	 SCS Total Energy          =    -383.9679909423065851 [Eh]
	-----------------------------------------------------------

  Dipole Moment: [D]
     X:    10.7782      Y:    -0.6254      Z:     1.6848     Total:    10.9270

*** Psi4 exiting successfully. Buy a developer a beer!
