                               Psi4 1.3.2 release

  ==> Input File <==

--------------------------------------------------------------------------
#psi4
#
memory 32 gb

molecule  {
-1 1
  O       -2.9259140    -0.9099280    -0.5693610
  O       -2.5318610     1.2678500    -0.0507790
  C        2.5515340     0.1562790    -0.6847320
  C        1.3133740    -0.4576390    -0.0973370
  C        0.2016996     0.2283055     0.2322176
  C       -1.0388440    -0.3710000     0.8261750
  C        3.7521530     0.0645780     0.2634350
  C       -2.2854840     0.0250790    -0.0044070
  H        2.8053070    -0.3466590    -1.6276820
  H        2.3518550     1.2059430    -0.9306210
  H        1.3523840    -1.5323490     0.0963350
  H        0.1538580     1.2934970     0.0216010
  H       -0.9504340    -1.4608690     0.8884060
  H       -1.1627176     0.0299534     1.8427617
  H        3.9732670    -0.9779260     0.5120620
  H        3.5426510     0.5954950     1.1964510
  H        4.6498360     0.5017940    -0.1852730
units angstrom
no_reorient  #important for SAPT in psi4, default
symmetry c1  #important for SAPT in psi4, default
}

set PROPERTIES_ORIGIN ["COM"]
properties('MP2/aug-cc-pvtz', properties = ['dipole'])
--------------------------------------------------------------------------

    Molecular point group: c1
  Charge       = -1
  Multiplicity = 1
  Basis Set: AUG-CC-PVTZ
    Blend: AUG-CC-PVTZ
  Basis Set: (AUG-CC-PVTZ AUX)
    Blend: AUG-CC-PVTZ-JKFIT

    Orbital Energies [Eh]
    ---------------------

    Doubly Occupied:

       1A    -20.297865     2A    -20.295885     3A    -11.144135
       4A    -11.123580     5A    -11.121318     6A    -11.100417
       7A    -11.096178     8A    -11.069567     9A     -1.165595
      10A     -1.064777    11A     -0.968436    12A     -0.900497
      13A     -0.806603    14A     -0.722079    15A     -0.623067
      16A     -0.533517    17A     -0.514233    18A     -0.500399
      19A     -0.452117    20A     -0.443092    21A     -0.433065
      22A     -0.414879    23A     -0.401678    24A     -0.382551
      25A     -0.373499    26A     -0.349929    27A     -0.323626
      28A     -0.237451    29A     -0.211129    30A     -0.195585
      31A     -0.188864

  @DF-RHF Final Energy:  -382.33281070017540

   => Energetics <=

    Nuclear Repulsion Energy =            338.7753061646844799
    One-Electron Energy =               -1203.3050113486858663
    Two-Electron Energy =                 482.1968944838259858
    Total Energy =                       -382.3328107001754006
  Basis Set: (AUG-CC-PVTZ AUX)
    Blend: AUG-CC-PVTZ-RI
    Molecular point group: c1

    Geometry (in Angstrom), charge = -1, multiplicity = 1:

       Center              X                  Y                   Z               Mass
    ------------   -----------------  -----------------  -----------------  -----------------
         O           -2.779826904073    -0.916788352409    -0.554619908781    15.994914619570
         O           -2.385773904073     1.260989647591    -0.036037908781    15.994914619570
         C            2.697621095927     0.149418647591    -0.669990908781    12.000000000000
         C            1.459461095927    -0.464499352409    -0.082595908781    12.000000000000
         C            0.347786695927     0.221445147591     0.246958691219    12.000000000000
         C           -0.892756904073    -0.377860352409     0.840916091219    12.000000000000
         C            3.898240095927     0.057717647591     0.278176091219    12.000000000000
         C           -2.139396904073     0.018218647591     0.010334091219    12.000000000000
         H            2.951394095927    -0.353519352409    -1.612940908781     1.007825032230
         H            2.497942095927     1.199082647591    -0.915879908781     1.007825032230
         H            1.498471095927    -1.539209352409     0.111076091219     1.007825032230
         H            0.299945095927     1.286636647591     0.036342091219     1.007825032230
         H           -0.804346904073    -1.467729352409     0.903147091219     1.007825032230
         H           -1.016630504073     0.023093047591     1.857502791219     1.007825032230
         H            4.119354095927    -0.984786352409     0.526803091219     1.007825032230
         H            3.688738095927     0.588634647591     1.211192091219     1.007825032230
         H            4.795923095927     0.494933647591    -0.170531908781     1.007825032230

  Basis Set: AUG-CC-PVTZ
    Blend: AUG-CC-PVTZ
  Basis Set: (AUG-CC-PVTZ AUX)
    Blend: AUG-CC-PVTZ-JKFIT
	 Reference Energy          =    -382.3328107001754006 [Eh]
	 Singles Energy            =      -0.0000000000000000 [Eh]
	 Same-Spin Energy          =      -0.3909790641962900 [Eh]
	 Opposite-Spin Energy      =      -1.2596667506078350 [Eh]
	 Correlation Energy        =      -1.6506458148041250 [Eh]
	 Total Energy              =    -383.9834565149795367 [Eh]

	 ================> DF-SCS-MP2 Energies <==================
	-----------------------------------------------------------
	 SCS Same-Spin Scale       =       0.3333333333333333 [-]
	 SCS Opposite-Spin Scale   =       1.2000000000000000 [-]
	 SCS Same-Spin Energy      =      -0.1303263547320966 [Eh]
	 SCS Opposite-Spin Energy  =      -1.5116001007294020 [Eh]
	 SCS Correlation Energy    =      -1.6419264554614985 [Eh]
	 SCS Total Energy          =    -383.9747371556368876 [Eh]
	-----------------------------------------------------------

  Dipole Moment: [D]
     X:    10.7027      Y:    -0.7112      Z:     1.6576     Total:    10.8536

*** Psi4 exiting successfully. Buy a developer a beer!
