                               Psi4 1.4a3.dev225

  ==> Input File <==

--------------------------------------------------------------------------
#psi4
#
memory 32 gb

molecule  {
-1 1
  O       -3.0493610    -0.8021490    -0.5876160
  O       -2.4328600     1.2902580     0.0530700
  C        2.5553900     0.3550440    -0.5884220
  C        1.3085550    -0.3848960    -0.2000760
  C        0.2108510     0.1869800     0.3208840
  C       -1.0406500    -0.5396790     0.7060670
  C        3.7725750    -0.0944570     0.2252300
  C       -2.2894080     0.0326700    -0.0161130
  H        2.7644980     0.1992670    -1.6554110
  H        2.3954460     1.4315290    -0.4528260
  H        1.3245080    -1.4678690    -0.3463610
  H        0.1904760     1.2677450     0.4620520
  H       -0.9472880    -1.6102600     0.4951310
  H       -1.2216348    -0.4206816     1.8358046
  H        3.9502020    -1.1668590     0.0980420
  H        3.6128950     0.0963670     1.2904210
  H        4.6769210     0.4370950    -0.0868020
units angstrom
no_reorient  #important for SAPT in psi4, default
symmetry c1  #important for SAPT in psi4, default
}

set PROPERTIES_ORIGIN ["COM"]
properties('MP2/aug-cc-pvtz', properties = ['dipole'])
--------------------------------------------------------------------------

    Molecular point group: c1
  Charge       = -1
  Multiplicity = 1
  Basis Set: AUG-CC-PVTZ
    Blend: AUG-CC-PVTZ
  Basis Set: (AUG-CC-PVTZ AUX)
    Blend: AUG-CC-PVTZ-JKFIT

    Orbital Energies [Eh]
    ---------------------

    Doubly Occupied:

       1A    -20.298321     2A    -20.296209     3A    -11.144982
       4A    -11.123635     5A    -11.121062     6A    -11.099272
       7A    -11.095338     8A    -11.075600     9A     -1.166214
      10A     -1.065711    11A     -0.968841    12A     -0.899975
      13A     -0.804458    14A     -0.721056    15A     -0.622567
      16A     -0.532700    17A     -0.512936    18A     -0.500605
      19A     -0.452551    20A     -0.441463    21A     -0.429387
      22A     -0.414889    23A     -0.401901    24A     -0.382854
      25A     -0.375794    26A     -0.345099    27A     -0.322446
      28A     -0.238815    29A     -0.212008    30A     -0.196456
      31A     -0.188275

  @DF-RHF Final Energy:  -382.33158267382368

   => Energetics <=

    Nuclear Repulsion Energy =            338.4441078160730854
    One-Electron Energy =               -1202.6485387339539557
    Two-Electron Energy =                 481.8728482440572520
    Total Energy =                       -382.3315826738236751
  Basis Set: (AUG-CC-PVTZ AUX)
    Blend: AUG-CC-PVTZ-RI
    Molecular point group: c1

    Geometry (in Angstrom), charge = -1, multiplicity = 1:

       Center              X                  Y                   Z               Mass
    ------------   -----------------  -----------------  -----------------  -----------------
         O           -2.902511521211    -0.813044833414    -0.574116175612    15.994914619570
         O           -2.286010521211     1.279362166586     0.066569824388    15.994914619570
         C            2.702239478789     0.344148166586    -0.574922175612    12.000000000000
         C            1.455404478789    -0.395791833414    -0.186576175612    12.000000000000
         C            0.357700478789     0.176084166586     0.334383824388    12.000000000000
         C           -0.893800521211    -0.550574833414     0.719566824388    12.000000000000
         C            3.919424478789    -0.105352833414     0.238729824388    12.000000000000
         C           -2.142558521211     0.021774166586    -0.002613175612    12.000000000000
         H            2.911347478789     0.188371166586    -1.641911175612     1.007825032230
         H            2.542295478789     1.420633166586    -0.439326175612     1.007825032230
         H            1.471357478789    -1.478764833414    -0.332861175612     1.007825032230
         H            0.337325478789     1.256849166586     0.475551824388     1.007825032230
         H           -0.800438521211    -1.621155833414     0.508630824388     1.007825032230
         H           -1.074785321211    -0.431577433414     1.849304424388     1.007825032230
         H            4.097051478789    -1.177754833414     0.111541824388     1.007825032230
         H            3.759744478789     0.085471166586     1.303920824388     1.007825032230
         H            4.823770478789     0.426199166586    -0.073302175612     1.007825032230

  Basis Set: AUG-CC-PVTZ
    Blend: AUG-CC-PVTZ
  Basis Set: (AUG-CC-PVTZ AUX)
    Blend: AUG-CC-PVTZ-JKFIT
	 Reference Energy          =    -382.3315826738236751 [Eh]
	 Singles Energy            =      -0.0000000000000000 [Eh]
	 Same-Spin Energy          =      -0.3909025282580261 [Eh]
	 Opposite-Spin Energy      =      -1.2597125489785101 [Eh]
	 Correlation Energy        =      -1.6506150772365362 [Eh]
	 Total Energy              =    -383.9821977510601982 [Eh]

	 ================> DF-SCS-MP2 Energies <==================
	-----------------------------------------------------------
	 SCS Same-Spin Scale       =       0.3333333333333333 [-]
	 SCS Opposite-Spin Scale   =       1.2000000000000000 [-]
	 SCS Same-Spin Energy      =      -0.1303008427526754 [Eh]
	 SCS Opposite-Spin Energy  =      -1.5116550587742121 [Eh]
	 SCS Correlation Energy    =      -1.6419559015268874 [Eh]
	 SCS Total Energy          =    -383.9735385753505739 [Eh]
	-----------------------------------------------------------

  Dipole Moment: [D]
     X:    10.7402      Y:    -1.0143      Z:     1.4295     Total:    10.8822

*** Psi4 exiting successfully. Buy a developer a beer!
