                               Psi4 1.3.2 release

  ==> Input File <==

--------------------------------------------------------------------------
#psi4
#
memory 32 gb

molecule  {
-1 1
  O       -2.9259140    -0.9099280    -0.5693610
  O       -2.5318610     1.2678500    -0.0507790
  C        2.5515340     0.1562790    -0.6847320
  C        1.3139646    -0.4793655    -0.0935308
  C        0.1939544     0.2333272     0.2212802
  C       -1.0388440    -0.3710000     0.8261750
  C        3.7521530     0.0645780     0.2634350
  C       -2.2854840     0.0250790    -0.0044070
  H        2.8053070    -0.3466590    -1.6276820
  H        2.3518550     1.2059430    -0.9306210
  H        1.3523840    -1.5323490     0.0963350
  H        0.1538580     1.2934970     0.0216010
  H       -0.9504340    -1.4608690     0.8884060
  H       -1.1707130     0.0247460     1.8437960
  H        3.9732670    -0.9779260     0.5120620
  H        3.5426510     0.5954950     1.1964510
  H        4.6498360     0.5017940    -0.1852730
units angstrom
no_reorient  #important for SAPT in psi4, default
symmetry c1  #important for SAPT in psi4, default
}

set PROPERTIES_ORIGIN ["COM"]
properties('MP2/aug-cc-pvtz', properties = ['dipole'])
--------------------------------------------------------------------------

    Molecular point group: c1
  Charge       = -1
  Multiplicity = 1
  Basis Set: AUG-CC-PVTZ
    Blend: AUG-CC-PVTZ
  Basis Set: (AUG-CC-PVTZ AUX)
    Blend: AUG-CC-PVTZ-JKFIT

    Orbital Energies [Eh]
    ---------------------

    Doubly Occupied:

       1A    -20.297642     2A    -20.295874     3A    -11.143807
       4A    -11.123092     5A    -11.121319     6A    -11.102860
       7A    -11.096976     8A    -11.069245     9A     -1.165525
      10A     -1.064692    11A     -0.965831    12A     -0.899187
      13A     -0.805295    14A     -0.719704    15A     -0.628511
      16A     -0.532464    17A     -0.514145    18A     -0.498971
      19A     -0.453116    20A     -0.443906    21A     -0.432537
      22A     -0.413707    23A     -0.401927    24A     -0.381503
      25A     -0.374212    26A     -0.353037    27A     -0.323157
      28A     -0.235198    29A     -0.211075    30A     -0.195581
      31A     -0.186889

  @DF-RHF Final Energy:  -382.33123640577242

   => Energetics <=

    Nuclear Repulsion Energy =            338.5689378344335410
    One-Electron Energy =               -1202.8983755664860382
    Two-Electron Energy =                 481.9982013262800820
    Total Energy =                       -382.3312364057724153
  Basis Set: (AUG-CC-PVTZ AUX)
    Blend: AUG-CC-PVTZ-RI
    Molecular point group: c1

    Geometry (in Angstrom), charge = -1, multiplicity = 1:

       Center              X                  Y                   Z               Mass
    ------------   -----------------  -----------------  -----------------  -----------------
         O           -2.778996257046    -0.914968917728    -0.553872236605    15.994914619570
         O           -2.384943257046     1.262809082272    -0.035290236605    15.994914619570
         C            2.698451742954     0.151238082272    -0.669243236605    12.000000000000
         C            1.460882342954    -0.484406417728    -0.078042036605    12.000000000000
         C            0.340872142954     0.228286282272     0.236768963395    12.000000000000
         C           -0.891926257046    -0.376040917728     0.841663763395    12.000000000000
         C            3.899070742954     0.059537082272     0.278923763395    12.000000000000
         C           -2.138566257046     0.020038082272     0.011081763395    12.000000000000
         H            2.952224742954    -0.351699917728    -1.612193236605     1.007825032230
         H            2.498772742954     1.200902082272    -0.915132236605     1.007825032230
         H            1.499301742954    -1.537389917728     0.111823763395     1.007825032230
         H            0.300775742954     1.288456082272     0.037089763395     1.007825032230
         H           -0.803516257046    -1.465909917728     0.903894763395     1.007825032230
         H           -1.023795257046     0.019705082272     1.859284763395     1.007825032230
         H            4.120184742954    -0.982966917728     0.527550763395     1.007825032230
         H            3.689568742954     0.590454082272     1.211939763395     1.007825032230
         H            4.796753742954     0.496753082272    -0.169784236605     1.007825032230

  Basis Set: AUG-CC-PVTZ
    Blend: AUG-CC-PVTZ
  Basis Set: (AUG-CC-PVTZ AUX)
    Blend: AUG-CC-PVTZ-JKFIT
	 Reference Energy          =    -382.3312364057724153 [Eh]
	 Singles Energy            =      -0.0000000000000000 [Eh]
	 Same-Spin Energy          =      -0.3910321632024031 [Eh]
	 Opposite-Spin Energy      =      -1.2599712245356478 [Eh]
	 Correlation Energy        =      -1.6510033877380508 [Eh]
	 Total Energy              =    -383.9822397935104732 [Eh]

	 ================> DF-SCS-MP2 Energies <==================
	-----------------------------------------------------------
	 SCS Same-Spin Scale       =       0.3333333333333333 [-]
	 SCS Opposite-Spin Scale   =       1.2000000000000000 [-]
	 SCS Same-Spin Energy      =      -0.1303440544008010 [Eh]
	 SCS Opposite-Spin Energy  =      -1.5119654694427773 [Eh]
	 SCS Correlation Energy    =      -1.6423095238435783 [Eh]
	 SCS Total Energy          =    -383.9735459296159661 [Eh]
	-----------------------------------------------------------

  Dipole Moment: [D]
     X:    10.6881      Y:    -0.7266      Z:     1.6700     Total:    10.8422

*** Psi4 exiting successfully. Buy a developer a beer!
