                               Psi4 1.3.2 release

  ==> Input File <==

--------------------------------------------------------------------------
#psi4
#
memory 32 gb

molecule  {
-1 1
  O       -2.9259140    -0.9099280    -0.5693610
  O       -2.5318610     1.2678500    -0.0507790
  C        2.5515340     0.1562790    -0.6847320
  C        1.3133740    -0.4576390    -0.0973370
  C        0.1996320     0.2215300     0.2212070
  C       -1.0388440    -0.3710000     0.8261750
  C        3.7521530     0.0645780     0.2634350
  C       -2.2900405     0.1538493    -0.0282857
  H        2.8053070    -0.3466590    -1.6276820
  H        2.3518550     1.2059430    -0.9306210
  H        1.3523840    -1.5323490     0.0963350
  H        0.0971575     1.2886084     0.0165272
  H       -0.9504340    -1.4608690     0.8884060
  H       -1.1707130     0.0247460     1.8437960
  H        3.9732670    -0.9779260     0.5120620
  H        3.5426510     0.5954950     1.1964510
  H        4.6498360     0.5017940    -0.1852730
units angstrom
no_reorient  #important for SAPT in psi4, default
symmetry c1  #important for SAPT in psi4, default
}

set PROPERTIES_ORIGIN ["COM"]
properties('MP2/aug-cc-pvtz', properties = ['dipole'])
--------------------------------------------------------------------------

    Molecular point group: c1
  Charge       = -1
  Multiplicity = 1
  Basis Set: AUG-CC-PVTZ
    Blend: AUG-CC-PVTZ
  Basis Set: (AUG-CC-PVTZ AUX)
    Blend: AUG-CC-PVTZ-JKFIT

    Orbital Energies [Eh]
    ---------------------

    Doubly Occupied:

       1A    -20.327735     2A    -20.273814     3A    -11.141967
       4A    -11.122129     5A    -11.119393     6A    -11.097578
       7A    -11.092358     8A    -11.062701     9A     -1.236773
      10A     -1.038624    11A     -0.965983    12A     -0.896799
      13A     -0.799695    14A     -0.716382    15A     -0.618716
      16A     -0.534656    17A     -0.514125    18A     -0.501014
      19A     -0.455166    20A     -0.450600    21A     -0.436219
      22A     -0.415526    23A     -0.405917    24A     -0.389743
      25A     -0.376509    26A     -0.356153    27A     -0.338254
      28A     -0.236561    29A     -0.210537    30A     -0.191172
      31A     -0.168326

  @DF-RHF Final Energy:  -382.30941701229591

   => Energetics <=

    Nuclear Repulsion Energy =            339.3201089146585332
    One-Electron Energy =               -1204.2768011320367805
    Two-Electron Energy =                 482.6472752050823942
    Total Energy =                       -382.3094170122959099
  Basis Set: (AUG-CC-PVTZ AUX)
    Blend: AUG-CC-PVTZ-RI
    Molecular point group: c1

    Geometry (in Angstrom), charge = -1, multiplicity = 1:

       Center              X                  Y                   Z               Mass
    ------------   -----------------  -----------------  -----------------  -----------------
         O           -2.778547132078    -0.929646651769    -0.550880816640    15.994914619570
         O           -2.384494132078     1.248131348231    -0.032298816640    15.994914619570
         C            2.698900867922     0.136560348231    -0.666251816640    12.000000000000
         C            1.460740867922    -0.477357651769    -0.078856816640    12.000000000000
         C            0.346998867922     0.201811348231     0.239687183360    12.000000000000
         C           -0.891477132078    -0.390718651769     0.844655183360    12.000000000000
         C            3.899519867922     0.044859348231     0.281915183360    12.000000000000
         C           -2.142673632078     0.134130648231    -0.009805516640    12.000000000000
         H            2.952673867922    -0.366377651769    -1.609201816640     1.007825032230
         H            2.499221867922     1.186224348231    -0.912140816640     1.007825032230
         H            1.499750867922    -1.552067651769     0.114815183360     1.007825032230
         H            0.244524367922     1.268889748231     0.035007383360     1.007825032230
         H           -0.803067132078    -1.480587651769     0.906886183360     1.007825032230
         H           -1.023346132078     0.005027348231     1.862276183360     1.007825032230
         H            4.120633867922    -0.997644651769     0.530542183360     1.007825032230
         H            3.690017867922     0.575776348231     1.214931183360     1.007825032230
         H            4.797202867922     0.482075348231    -0.166792816640     1.007825032230

  Basis Set: AUG-CC-PVTZ
    Blend: AUG-CC-PVTZ
  Basis Set: (AUG-CC-PVTZ AUX)
    Blend: AUG-CC-PVTZ-JKFIT
	 Reference Energy          =    -382.3094170122959099 [Eh]
	 Singles Energy            =      -0.0000000000000000 [Eh]
	 Same-Spin Energy          =      -0.3904951149216399 [Eh]
	 Opposite-Spin Energy      =      -1.2581672549919873 [Eh]
	 Correlation Energy        =      -1.6486623699136271 [Eh]
	 Total Energy              =    -383.9580793822095188 [Eh]

	 ================> DF-SCS-MP2 Energies <==================
	-----------------------------------------------------------
	 SCS Same-Spin Scale       =       0.3333333333333333 [-]
	 SCS Opposite-Spin Scale   =       1.2000000000000000 [-]
	 SCS Same-Spin Energy      =      -0.1301650383072133 [Eh]
	 SCS Opposite-Spin Energy  =      -1.5098007059903849 [Eh]
	 SCS Correlation Energy    =      -1.6399657442975981 [Eh]
	 SCS Total Energy          =    -383.9493827565935362 [Eh]
	-----------------------------------------------------------

  Dipole Moment: [D]
     X:    10.5034      Y:     0.6042      Z:     1.7970     Total:    10.6731

*** Psi4 exiting successfully. Buy a developer a beer!
