                               Psi4 1.4a3.dev225

  ==> Input File <==

--------------------------------------------------------------------------
#psi4
#
memory 32 gb

molecule  {
-1 1
  O       -3.0493610    -0.8021490    -0.5876160
  O       -2.4328600     1.2902580     0.0530700
  C        2.5553900     0.3550440    -0.5884220
  C        1.3085550    -0.3848960    -0.2000760
  C        0.2108510     0.1869800     0.3208840
  C       -1.0872120    -0.5427469     0.7240271
  C        3.7725750    -0.0944570     0.2252300
  C       -2.2894080     0.0326700    -0.0161130
  H        2.7644980     0.1992670    -1.6554110
  H        2.3954460     1.4315290    -0.4528260
  H        1.3245080    -1.4678690    -0.3463610
  H        0.1904760     1.2677450     0.4620520
  H       -0.9472880    -1.6102600     0.4951310
  H       -1.2137680    -0.4258540     1.7866990
  H        3.9502020    -1.1668590     0.0980420
  H        3.6128950     0.0963670     1.2904210
  H        4.6769210     0.4370950    -0.0868020
units angstrom
no_reorient  #important for SAPT in psi4, default
symmetry c1  #important for SAPT in psi4, default
}

set PROPERTIES_ORIGIN ["COM"]
properties('MP2/aug-cc-pvtz', properties = ['dipole'])
--------------------------------------------------------------------------

    Molecular point group: c1
  Charge       = -1
  Multiplicity = 1
  Basis Set: AUG-CC-PVTZ
    Blend: AUG-CC-PVTZ
  Basis Set: (AUG-CC-PVTZ AUX)
    Blend: AUG-CC-PVTZ-JKFIT

    Orbital Energies [Eh]
    ---------------------

    Doubly Occupied:

       1A    -20.296578     2A    -20.295411     3A    -11.142042
       4A    -11.123715     5A    -11.121216     6A    -11.100617
       7A    -11.095780     8A    -11.070071     9A     -1.166134
      10A     -1.064985    11A     -0.967592    12A     -0.896398
      13A     -0.807852    14A     -0.724095    15A     -0.621674
      16A     -0.534491    17A     -0.513065    18A     -0.501764
      19A     -0.450020    20A     -0.443917    21A     -0.435924
      22A     -0.414720    23A     -0.402407    24A     -0.383854
      25A     -0.375699    26A     -0.340759    27A     -0.320258
      28A     -0.237292    29A     -0.211217    30A     -0.196085
      31A     -0.191957

  @DF-RHF Final Energy:  -382.33182453679649

   => Energetics <=

    Nuclear Repulsion Energy =            338.4789737105948007
    One-Electron Energy =               -1202.7264208659644282
    Two-Electron Energy =                 481.9156226185731384
    Total Energy =                       -382.3318245367964892
  Basis Set: (AUG-CC-PVTZ AUX)
    Blend: AUG-CC-PVTZ-RI
    Molecular point group: c1

    Geometry (in Angstrom), charge = -1, multiplicity = 1:

       Center              X                  Y                   Z               Mass
    ------------   -----------------  -----------------  -----------------  -----------------
         O           -2.897639644314    -0.812673105309    -0.575584696515    15.994914619570
         O           -2.281138644314     1.279733894691     0.065101303485    15.994914619570
         C            2.707111355686     0.344519894691    -0.576390696515    12.000000000000
         C            1.460276355686    -0.395420105309    -0.188044696515    12.000000000000
         C            0.362572355686     0.176455894691     0.332915303485    12.000000000000
         C           -0.935490644314    -0.553271005309     0.736058403485    12.000000000000
         C            3.924296355686    -0.104981105309     0.237261303485    12.000000000000
         C           -2.137686644314     0.022145894691    -0.004081696515    12.000000000000
         H            2.916219355686     0.188742894691    -1.643379696515     1.007825032230
         H            2.547167355686     1.421004894691    -0.440794696515     1.007825032230
         H            1.476229355686    -1.478393105309    -0.334329696515     1.007825032230
         H            0.342197355686     1.257220894691     0.474083303485     1.007825032230
         H           -0.795566644314    -1.620784105309     0.507162303485     1.007825032230
         H           -1.062046644314    -0.436378105309     1.798730303485     1.007825032230
         H            4.101923355686    -1.177383105309     0.110073303485     1.007825032230
         H            3.764616355686     0.085842894691     1.302452303485     1.007825032230
         H            4.828642355686     0.426570894691    -0.074770696515     1.007825032230

  Basis Set: AUG-CC-PVTZ
    Blend: AUG-CC-PVTZ
  Basis Set: (AUG-CC-PVTZ AUX)
    Blend: AUG-CC-PVTZ-JKFIT
	 Reference Energy          =    -382.3318245367964892 [Eh]
	 Singles Energy            =      -0.0000000000000000 [Eh]
	 Same-Spin Energy          =      -0.3905685371681294 [Eh]
	 Opposite-Spin Energy      =      -1.2593074117942773 [Eh]
	 Correlation Energy        =      -1.6498759489624066 [Eh]
	 Total Energy              =    -383.9817004857588927 [Eh]

	 ================> DF-SCS-MP2 Energies <==================
	-----------------------------------------------------------
	 SCS Same-Spin Scale       =       0.3333333333333333 [-]
	 SCS Opposite-Spin Scale   =       1.2000000000000000 [-]
	 SCS Same-Spin Energy      =      -0.1301895123893765 [Eh]
	 SCS Opposite-Spin Energy  =      -1.5111688941531327 [Eh]
	 SCS Correlation Energy    =      -1.6413584065425091 [Eh]
	 SCS Total Energy          =    -383.9731829433389976 [Eh]
	-----------------------------------------------------------

  Dipole Moment: [D]
     X:    10.7894      Y:    -1.0364      Z:     1.5163     Total:    10.9446

*** Psi4 exiting successfully. Buy a developer a beer!
