                               Psi4 1.3.2 release

  ==> Input File <==

--------------------------------------------------------------------------
#psi4
#
memory 32 gb

molecule  {
-1 1
  O       -2.9259140    -0.9099280    -0.5693610
  O       -2.5318610     1.2678500    -0.0507790
  C        2.5515340     0.1562790    -0.6847320
  C        1.3133740    -0.4576390    -0.0973370
  C        0.1996320     0.2215300     0.2212070
  C       -0.9458158    -0.3744265     0.7896509
  C        3.7521530     0.0645780     0.2634350
  C       -2.2854840     0.0250790    -0.0044070
  H        2.8053070    -0.3466590    -1.6276820
  H        2.3518550     1.2059430    -0.9306210
  H        1.3523840    -1.5323490     0.0963350
  H        0.1538580     1.2934970     0.0216010
  H       -0.9504340    -1.4608690     0.8884060
  H       -1.1707130     0.0247460     1.8437960
  H        3.9732670    -0.9779260     0.5120620
  H        3.5426510     0.5954950     1.1964510
  H        4.6498360     0.5017940    -0.1852730
units angstrom
no_reorient  #important for SAPT in psi4, default
symmetry c1  #important for SAPT in psi4, default
}

set PROPERTIES_ORIGIN ["COM"]
properties('MP2/aug-cc-pvtz', properties = ['dipole'])
--------------------------------------------------------------------------

    Molecular point group: c1
  Charge       = -1
  Multiplicity = 1
  Basis Set: AUG-CC-PVTZ
    Blend: AUG-CC-PVTZ
  Basis Set: (AUG-CC-PVTZ AUX)
    Blend: AUG-CC-PVTZ-JKFIT

    Orbital Energies [Eh]
    ---------------------

    Doubly Occupied:

       1A    -20.301046     2A    -20.298558     3A    -11.149631
       4A    -11.122683     5A    -11.119918     6A    -11.095113
       7A    -11.092710     8A    -11.069093     9A     -1.166232
      10A     -1.066520    11A     -0.971904    12A     -0.910017
      13A     -0.804664    14A     -0.717201    15A     -0.623411
      16A     -0.532555    17A     -0.515124    18A     -0.499139
      19A     -0.460829    20A     -0.442454    21A     -0.426390
      22A     -0.413925    23A     -0.399692    24A     -0.382415
      25A     -0.371744    26A     -0.354680    27A     -0.329154
      28A     -0.240567    29A     -0.212957    30A     -0.197749
      31A     -0.177764

  @DF-RHF Final Energy:  -382.32292676474248

   => Energetics <=

    Nuclear Repulsion Energy =            339.3060278650339114
    One-Electron Energy =               -1204.3262338692366029
    Two-Electron Energy =                 482.6972792394602152
    Total Energy =                       -382.3229267647424763
  Basis Set: (AUG-CC-PVTZ AUX)
    Blend: AUG-CC-PVTZ-RI
    Molecular point group: c1

    Geometry (in Angstrom), charge = -1, multiplicity = 1:

       Center              X                  Y                   Z               Mass
    ------------   -----------------  -----------------  -----------------  -----------------
         O           -2.789410017433    -0.915659112530    -0.549583886096    15.994914619570
         O           -2.395357017433     1.262118887470    -0.031001886096    15.994914619570
         C            2.688037982567     0.150547887470    -0.664954886096    12.000000000000
         C            1.449877982567    -0.463370112530    -0.077559886096    12.000000000000
         C            0.336135982567     0.215798887470     0.240984113904    12.000000000000
         C           -0.809311817433    -0.380157612530     0.809428013904    12.000000000000
         C            3.888656982567     0.058846887470     0.283212113904    12.000000000000
         C           -2.148980017433     0.019347887470     0.015370113904    12.000000000000
         H            2.941810982567    -0.352390112530    -1.607904886096     1.007825032230
         H            2.488358982567     1.200211887470    -0.910843886096     1.007825032230
         H            1.488887982567    -1.538080112530     0.116112113904     1.007825032230
         H            0.290361982567     1.287765887470     0.041378113904     1.007825032230
         H           -0.813930017433    -1.466600112530     0.908183113904     1.007825032230
         H           -1.034209017433     0.019014887470     1.863573113904     1.007825032230
         H            4.109770982567    -0.983657112530     0.531839113904     1.007825032230
         H            3.679154982567     0.589763887470     1.216228113904     1.007825032230
         H            4.786339982567     0.496062887470    -0.165495886096     1.007825032230

  Basis Set: AUG-CC-PVTZ
    Blend: AUG-CC-PVTZ
  Basis Set: (AUG-CC-PVTZ AUX)
    Blend: AUG-CC-PVTZ-JKFIT
	 Reference Energy          =    -382.3229267647424763 [Eh]
	 Singles Energy            =      -0.0000000000000000 [Eh]
	 Same-Spin Energy          =      -0.3923203300929679 [Eh]
	 Opposite-Spin Energy      =      -1.2609556315903281 [Eh]
	 Correlation Energy        =      -1.6532759616832959 [Eh]
	 Total Energy              =    -383.9762027264257540 [Eh]

	 ================> DF-SCS-MP2 Energies <==================
	-----------------------------------------------------------
	 SCS Same-Spin Scale       =       0.3333333333333333 [-]
	 SCS Opposite-Spin Scale   =       1.2000000000000000 [-]
	 SCS Same-Spin Energy      =      -0.1307734433643226 [Eh]
	 SCS Opposite-Spin Energy  =      -1.5131467579083937 [Eh]
	 SCS Correlation Energy    =      -1.6439202012727163 [Eh]
	 SCS Total Energy          =    -383.9668469660151686 [Eh]
	-----------------------------------------------------------

  Dipole Moment: [D]
     X:    10.4823      Y:    -0.6854      Z:     1.5572     Total:    10.6195

*** Psi4 exiting successfully. Buy a developer a beer!
