                               Psi4 1.4a3.dev225

  ==> Input File <==

--------------------------------------------------------------------------
#psi4
#
memory 32 gb

molecule  {
-1 1
  O       -3.0493610    -0.8021490    -0.5876160
  O       -2.4328600     1.2902580     0.0530700
  C        2.5553900     0.3550440    -0.5884220
  C        1.3085550    -0.3848960    -0.2000760
  C        0.2108510     0.1869800     0.3208840
  C       -1.0406500    -0.5396790     0.7060670
  C        3.7725750    -0.0944570     0.2252300
  C       -2.2894080     0.0326700    -0.0161130
  H        2.7644980     0.1992670    -1.6554110
  H        2.3954460     1.4315290    -0.4528260
  H        1.3245080    -1.4678690    -0.3463610
  H        0.1904760     1.2677450     0.4620520
  H       -0.9472880    -1.6102600     0.4951310
  H       -1.2059012    -0.4310264     1.7375934
  H        3.9502020    -1.1668590     0.0980420
  H        3.6128950     0.0963670     1.2904210
  H        4.6769210     0.4370950    -0.0868020
units angstrom
no_reorient  #important for SAPT in psi4, default
symmetry c1  #important for SAPT in psi4, default
}

set PROPERTIES_ORIGIN ["COM"]
properties('MP2/aug-cc-pvtz', properties = ['dipole'])
--------------------------------------------------------------------------

    Molecular point group: c1
  Charge       = -1
  Multiplicity = 1
  Basis Set: AUG-CC-PVTZ
    Blend: AUG-CC-PVTZ
  Basis Set: (AUG-CC-PVTZ AUX)
    Blend: AUG-CC-PVTZ-JKFIT

    Orbital Energies [Eh]
    ---------------------

    Doubly Occupied:

       1A    -20.297554     2A    -20.296107     3A    -11.143988
       4A    -11.123248     5A    -11.120507     6A    -11.098319
       7A    -11.094408     8A    -11.062869     9A     -1.165812
      10A     -1.065274    11A     -0.968442    12A     -0.901363
      13A     -0.808839    14A     -0.722975    15A     -0.622327
      16A     -0.532765    17A     -0.513521    18A     -0.502622
      19A     -0.454712    20A     -0.444593    21A     -0.435376
      22A     -0.414425    23A     -0.401361    24A     -0.382757
      25A     -0.375497    26A     -0.344812    27A     -0.325634
      28A     -0.238849    29A     -0.211721    30A     -0.196135
      31A     -0.187665

  @DF-RHF Final Energy:  -382.33284470345586

   => Energetics <=

    Nuclear Repulsion Energy =            338.9316893838965825
    One-Electron Energy =               -1203.6201124267563500
    Two-Electron Energy =                 482.3555783394039054
    Total Energy =                       -382.3328447034558621
  Basis Set: (AUG-CC-PVTZ AUX)
    Blend: AUG-CC-PVTZ-RI
    Molecular point group: c1

    Geometry (in Angstrom), charge = -1, multiplicity = 1:

       Center              X                  Y                   Z               Mass
    ------------   -----------------  -----------------  -----------------  -----------------
         O           -2.902651771346    -0.812952619325    -0.573240715830    15.994914619570
         O           -2.286150771346     1.279454380675     0.067445284170    15.994914619570
         C            2.702099228654     0.344240380675    -0.574046715830    12.000000000000
         C            1.455264228654    -0.395699619325    -0.185700715830    12.000000000000
         C            0.357560228654     0.176176380675     0.335259284170    12.000000000000
         C           -0.893940771346    -0.550482619325     0.720442284170    12.000000000000
         C            3.919284228654    -0.105260619325     0.239605284170    12.000000000000
         C           -2.142698771346     0.021866380675    -0.001737715830    12.000000000000
         H            2.911207228654     0.188463380675    -1.641035715830     1.007825032230
         H            2.542155228654     1.420725380675    -0.438450715830     1.007825032230
         H            1.471217228654    -1.478672619325    -0.331985715830     1.007825032230
         H            0.337185228654     1.256941380675     0.476427284170     1.007825032230
         H           -0.800578771346    -1.621063619325     0.509506284170     1.007825032230
         H           -1.059191971346    -0.441830019325     1.751968684170     1.007825032230
         H            4.096911228654    -1.177662619325     0.112417284170     1.007825032230
         H            3.759604228654     0.085563380675     1.304796284170     1.007825032230
         H            4.823630228654     0.426291380675    -0.072426715830     1.007825032230

  Basis Set: AUG-CC-PVTZ
    Blend: AUG-CC-PVTZ
  Basis Set: (AUG-CC-PVTZ AUX)
    Blend: AUG-CC-PVTZ-JKFIT
	 Reference Energy          =    -382.3328447034558621 [Eh]
	 Singles Energy            =      -0.0000000000000000 [Eh]
	 Same-Spin Energy          =      -0.3909063877134631 [Eh]
	 Opposite-Spin Energy      =      -1.2591427458349513 [Eh]
	 Correlation Energy        =      -1.6500491335484144 [Eh]
	 Total Energy              =    -383.9828938370042692 [Eh]

	 ================> DF-SCS-MP2 Energies <==================
	-----------------------------------------------------------
	 SCS Same-Spin Scale       =       0.3333333333333333 [-]
	 SCS Opposite-Spin Scale   =       1.2000000000000000 [-]
	 SCS Same-Spin Energy      =      -0.1303021292378210 [Eh]
	 SCS Opposite-Spin Energy  =      -1.5109712950019416 [Eh]
	 SCS Correlation Energy    =      -1.6412734242397626 [Eh]
	 SCS Total Energy          =    -383.9741181276956468 [Eh]
	-----------------------------------------------------------

  Dipole Moment: [D]
     X:    10.7124      Y:    -1.0235      Z:     1.5017     Total:    10.8654

*** Psi4 exiting successfully. Buy a developer a beer!
