                               Psi4 1.3.2 release

  ==> Input File <==

--------------------------------------------------------------------------
#psi4
#
memory 32 gb

molecule  {
-1 1
  O       -2.9259140    -0.9099280    -0.5693610
  O       -2.5318610     1.2678500    -0.0507790
  C        2.5515340     0.1562790    -0.6847320
  C        1.3133740    -0.4576390    -0.0973370
  C        0.1996320     0.2215300     0.2212070
  C       -1.0388440    -0.3710000     0.8261750
  C        3.7521530     0.0645780     0.2634350
  C       -2.2854840     0.0250790    -0.0044070
  H        2.8053070    -0.3466590    -1.6276820
  H        2.3518550     1.2059430    -0.9306210
  H        1.3488140    -1.4339970     0.0786111
  H        0.1538580     1.2934970     0.0216010
  H       -0.9504340    -1.4608690     0.8884060
  H       -1.1707130     0.0247460     1.8437960
  H        3.9732670    -0.9779260     0.5120620
  H        3.5426510     0.5954950     1.1964510
  H        4.6498360     0.5017940    -0.1852730
units angstrom
no_reorient  #important for SAPT in psi4, default
symmetry c1  #important for SAPT in psi4, default
}

set PROPERTIES_ORIGIN ["COM"]
properties('MP2/aug-cc-pvtz', properties = ['dipole'])
--------------------------------------------------------------------------

    Molecular point group: c1
  Charge       = -1
  Multiplicity = 1
  Basis Set: AUG-CC-PVTZ
    Blend: AUG-CC-PVTZ
  Basis Set: (AUG-CC-PVTZ AUX)
    Blend: AUG-CC-PVTZ-JKFIT

    Orbital Energies [Eh]
    ---------------------

    Doubly Occupied:

       1A    -20.297575     2A    -20.295663     3A    -11.143818
       4A    -11.123508     5A    -11.120031     6A    -11.098949
       7A    -11.082880     8A    -11.069390     9A     -1.165363
      10A     -1.064528    11A     -0.970742    12A     -0.900793
      13A     -0.809018    14A     -0.722446    15A     -0.637440
      16A     -0.533166    17A     -0.514355    18A     -0.500294
      19A     -0.458647    20A     -0.444981    21A     -0.432671
      22A     -0.414374    23A     -0.401183    24A     -0.383107
      25A     -0.376290    26A     -0.349550    27A     -0.323931
      28A     -0.237566    29A     -0.210889    30A     -0.195352
      31A     -0.188613

  @DF-RHF Final Energy:  -382.32722932989714

   => Energetics <=

    Nuclear Repulsion Energy =            339.3255685476723329
    One-Electron Energy =               -1204.3713698454653240
    Two-Electron Energy =                 482.7185719678958549
    Total Energy =                       -382.3272293298971363
  Basis Set: (AUG-CC-PVTZ AUX)
    Blend: AUG-CC-PVTZ-RI
    Molecular point group: c1

    Geometry (in Angstrom), charge = -1, multiplicity = 1:

       Center              X                  Y                   Z               Mass
    ------------   -----------------  -----------------  -----------------  -----------------
         O           -2.779504358366    -0.916899509593    -0.553302492707    15.994914619570
         O           -2.385451358366     1.260878490407    -0.034720492707    15.994914619570
         C            2.697943641634     0.149307490407    -0.668673492707    12.000000000000
         C            1.459783641634    -0.464610509593    -0.081278492707    12.000000000000
         C            0.346041641634     0.214558490407     0.237265507293    12.000000000000
         C           -0.892434358366    -0.377971509593     0.842233507293    12.000000000000
         C            3.898562641634     0.057606490407     0.279493507293    12.000000000000
         C           -2.139074358366     0.018107490407     0.011651507293    12.000000000000
         H            2.951716641634    -0.353630509593    -1.611623492707     1.007825032230
         H            2.498264641634     1.198971490407    -0.914562492707     1.007825032230
         H            1.495223641634    -1.440968509593     0.094669607293     1.007825032230
         H            0.300267641634     1.286525490407     0.037659507293     1.007825032230
         H           -0.804024358366    -1.467840509593     0.904464507293     1.007825032230
         H           -1.024303358366     0.017774490407     1.859854507293     1.007825032230
         H            4.119676641634    -0.984897509593     0.528120507293     1.007825032230
         H            3.689060641634     0.588523490407     1.212509507293     1.007825032230
         H            4.796245641634     0.494822490407    -0.169214492707     1.007825032230

  Basis Set: AUG-CC-PVTZ
    Blend: AUG-CC-PVTZ
  Basis Set: (AUG-CC-PVTZ AUX)
    Blend: AUG-CC-PVTZ-JKFIT
	 Reference Energy          =    -382.3272293298971363 [Eh]
	 Singles Energy            =      -0.0000000000000000 [Eh]
	 Same-Spin Energy          =      -0.3908170345353559 [Eh]
	 Opposite-Spin Energy      =      -1.2591221388538827 [Eh]
	 Correlation Energy        =      -1.6499391733892386 [Eh]
	 Total Energy              =    -383.9771685032863502 [Eh]

	 ================> DF-SCS-MP2 Energies <==================
	-----------------------------------------------------------
	 SCS Same-Spin Scale       =       0.3333333333333333 [-]
	 SCS Opposite-Spin Scale   =       1.2000000000000000 [-]
	 SCS Same-Spin Energy      =      -0.1302723448451186 [Eh]
	 SCS Opposite-Spin Energy  =      -1.5109465666246591 [Eh]
	 SCS Correlation Energy    =      -1.6412189114697777 [Eh]
	 SCS Total Energy          =    -383.9684482413669002 [Eh]
	-----------------------------------------------------------

  Dipole Moment: [D]
     X:    10.7139      Y:    -0.7707      Z:     1.6758     Total:    10.8715

*** Psi4 exiting successfully. Buy a developer a beer!
