                               Psi4 1.3.2 release

  ==> Input File <==

--------------------------------------------------------------------------
#psi4
#
memory 32 gb

molecule  {
-1 1
  O       -2.9259140    -0.9099280    -0.5693610
  O       -2.5318610     1.2678500    -0.0507790
  C        2.5515340     0.1562790    -0.6847320
  C        1.3133740    -0.4576390    -0.0973370
  C        0.1996320     0.2215300     0.2212070
  C       -1.0670136    -0.3487156     0.7880666
  C        3.7521530     0.0645780     0.2634350
  C       -2.2865434    -0.0246120     0.0674469
  H        2.8053070    -0.3466590    -1.6276820
  H        2.3518550     1.2059430    -0.9306210
  H        1.3523840    -1.5323490     0.0963350
  H        0.1538580     1.2934970     0.0216010
  H       -0.9504340    -1.4608690     0.8884060
  H       -1.1707130     0.0247460     1.8437960
  H        3.9732670    -0.9779260     0.5120620
  H        3.5426510     0.5954950     1.1964510
  H        4.6498360     0.5017940    -0.1852730
units angstrom
no_reorient  #important for SAPT in psi4, default
symmetry c1  #important for SAPT in psi4, default
}

set PROPERTIES_ORIGIN ["COM"]
properties('MP2/aug-cc-pvtz', properties = ['dipole'])
--------------------------------------------------------------------------

    Molecular point group: c1
  Charge       = -1
  Multiplicity = 1
  Basis Set: AUG-CC-PVTZ
    Blend: AUG-CC-PVTZ
  Basis Set: (AUG-CC-PVTZ AUX)
    Blend: AUG-CC-PVTZ-JKFIT

    Orbital Energies [Eh]
    ---------------------

    Doubly Occupied:

       1A    -20.302894     2A    -20.285420     3A    -11.142189
       4A    -11.125657     5A    -11.124199     6A    -11.104705
       7A    -11.100740     8A    -11.077410     9A     -1.156726
      10A     -1.043543    11A     -0.972007    12A     -0.905839
      13A     -0.817846    14A     -0.730574    15A     -0.627961
      16A     -0.546083    17A     -0.515666    18A     -0.503318
      19A     -0.456190    20A     -0.444801    21A     -0.431393
      22A     -0.417732    23A     -0.401642    24A     -0.386059
      25A     -0.370468    26A     -0.336631    27A     -0.312064
      28A     -0.238706    29A     -0.202524    30A     -0.199755
      31A     -0.186110

  @DF-RHF Final Energy:  -382.31624425752022

   => Energetics <=

    Nuclear Repulsion Energy =            339.1243359066342578
    One-Electron Energy =               -1203.9474578170706991
    Two-Electron Energy =                 482.5068776529161596
    Total Energy =                       -382.3162442575202249
  Basis Set: (AUG-CC-PVTZ AUX)
    Blend: AUG-CC-PVTZ-RI
    Molecular point group: c1

    Geometry (in Angstrom), charge = -1, multiplicity = 1:

       Center              X                  Y                   Z               Mass
    ------------   -----------------  -----------------  -----------------  -----------------
         O           -2.776433871164    -0.913113910406    -0.557042167554    15.994914619570
         O           -2.382380871164     1.264664089594    -0.038460167554    15.994914619570
         C            2.701014128836     0.153093089594    -0.672413167554    12.000000000000
         C            1.462854128836    -0.460824910406    -0.085018167554    12.000000000000
         C            0.349112128836     0.218344089594     0.233525832446    12.000000000000
         C           -0.917533471164    -0.351901510406     0.800385432446    12.000000000000
         C            3.901633128836     0.061392089594     0.275753832446    12.000000000000
         C           -2.137063271164    -0.027797910406     0.079765732446    12.000000000000
         H            2.954787128836    -0.349844910406    -1.615363167554     1.007825032230
         H            2.501335128836     1.202757089594    -0.918302167554     1.007825032230
         H            1.501864128836    -1.535534910406     0.108653832446     1.007825032230
         H            0.303338128836     1.290311089594     0.033919832446     1.007825032230
         H           -0.800953871164    -1.464054910406     0.900724832446     1.007825032230
         H           -1.021232871164     0.021560089594     1.856114832446     1.007825032230
         H            4.122747128836    -0.981111910406     0.524380832446     1.007825032230
         H            3.692131128836     0.592309089594     1.208769832446     1.007825032230
         H            4.799316128836     0.498608089594    -0.172954167554     1.007825032230

  Basis Set: AUG-CC-PVTZ
    Blend: AUG-CC-PVTZ
  Basis Set: (AUG-CC-PVTZ AUX)
    Blend: AUG-CC-PVTZ-JKFIT
	 Reference Energy          =    -382.3162442575202249 [Eh]
	 Singles Energy            =      -0.0000000000000000 [Eh]
	 Same-Spin Energy          =      -0.3922469129061926 [Eh]
	 Opposite-Spin Energy      =      -1.2627987590632019 [Eh]
	 Correlation Energy        =      -1.6550456719693944 [Eh]
	 Total Energy              =    -383.9712899294896147 [Eh]

	 ================> DF-SCS-MP2 Energies <==================
	-----------------------------------------------------------
	 SCS Same-Spin Scale       =       0.3333333333333333 [-]
	 SCS Opposite-Spin Scale   =       1.2000000000000000 [-]
	 SCS Same-Spin Energy      =      -0.1307489709687308 [Eh]
	 SCS Opposite-Spin Energy  =      -1.5153585108758423 [Eh]
	 SCS Correlation Energy    =      -1.6461074818445731 [Eh]
	 SCS Total Energy          =    -383.9623517393648058 [Eh]
	-----------------------------------------------------------

  Dipole Moment: [D]
     X:    11.0845      Y:    -1.0939      Z:     1.7066     Total:    11.2684

*** Psi4 exiting successfully. Buy a developer a beer!
