                               Psi4 1.3.2 release

  ==> Input File <==

--------------------------------------------------------------------------
#psi4
#
memory 32 gb

molecule  {
-1 1
  O       -2.9259140    -0.9099280    -0.5693610
  O       -2.5318610     1.2678500    -0.0507790
  C        2.5515340     0.1562790    -0.6847320
  C        1.3133740    -0.4576390    -0.0973370
  C        0.1996320     0.2215300     0.2212070
  C       -1.0388440    -0.3710000     0.8261750
  C        3.7521530     0.0645780     0.2634350
  C       -2.2854840     0.0250790    -0.0044070
  H        2.8053070    -0.3466590    -1.6276820
  H        2.3518550     1.2059430    -0.9306210
  H        1.3452440    -1.3356450     0.0608872
  H        0.1538580     1.2934970     0.0216010
  H       -0.9504340    -1.4608690     0.8884060
  H       -1.1707130     0.0247460     1.8437960
  H        3.9732670    -0.9779260     0.5120620
  H        3.5426510     0.5954950     1.1964510
  H        4.6498360     0.5017940    -0.1852730
units angstrom
no_reorient  #important for SAPT in psi4, default
symmetry c1  #important for SAPT in psi4, default
}

set PROPERTIES_ORIGIN ["COM"]
properties('MP2/aug-cc-pvtz', properties = ['dipole'])
--------------------------------------------------------------------------

    Molecular point group: c1
  Charge       = -1
  Multiplicity = 1
  Basis Set: AUG-CC-PVTZ
    Blend: AUG-CC-PVTZ
  Basis Set: (AUG-CC-PVTZ AUX)
    Blend: AUG-CC-PVTZ-JKFIT

    Orbital Energies [Eh]
    ---------------------

    Doubly Occupied:

       1A    -20.297570     2A    -20.295620     3A    -11.143825
       4A    -11.123338     5A    -11.118934     6A    -11.098272
       7A    -11.069999     8A    -11.069376     9A     -1.165338
      10A     -1.064502    11A     -0.974069    12A     -0.901265
      13A     -0.812572    14A     -0.723058    15A     -0.655257
      16A     -0.533188    17A     -0.514600    18A     -0.500305
      19A     -0.465294    20A     -0.445504    21A     -0.432594
      22A     -0.413977    23A     -0.401104    24A     -0.383897
      25A     -0.377769    26A     -0.350150    27A     -0.323947
      28A     -0.237225    29A     -0.210865    30A     -0.195322
      31A     -0.188414

  @DF-RHF Final Energy:  -382.29929040983188

   => Energetics <=

    Nuclear Repulsion Energy =            339.8833620944905078
    One-Electron Energy =               -1205.3910027289682603
    Two-Electron Energy =                 483.2083502246458693
    Total Energy =                       -382.2992904098318832
  Basis Set: (AUG-CC-PVTZ AUX)
    Blend: AUG-CC-PVTZ-RI
    Molecular point group: c1

    Geometry (in Angstrom), charge = -1, multiplicity = 1:

       Center              X                  Y                   Z               Mass
    ------------   -----------------  -----------------  -----------------  -----------------
         O           -2.779472535199    -0.917776224473    -0.553144500934    15.994914619570
         O           -2.385419535199     1.260001775527    -0.034562500934    15.994914619570
         C            2.697975464801     0.148430775527    -0.668515500934    12.000000000000
         C            1.459815464801    -0.465487224473    -0.081120500934    12.000000000000
         C            0.346073464801     0.213681775527     0.237423499066    12.000000000000
         C           -0.892402535199    -0.378848224473     0.842391499066    12.000000000000
         C            3.898594464801     0.056729775527     0.279651499066    12.000000000000
         C           -2.139042535199     0.017230775527     0.011809499066    12.000000000000
         H            2.951748464801    -0.354507224473    -1.611465500934     1.007825032230
         H            2.498296464801     1.198094775527    -0.914404500934     1.007825032230
         H            1.491685464801    -1.343493224473     0.077103699066     1.007825032230
         H            0.300299464801     1.285648775527     0.037817499066     1.007825032230
         H           -0.803992535199    -1.468717224473     0.904622499066     1.007825032230
         H           -1.024271535199     0.016897775527     1.860012499066     1.007825032230
         H            4.119708464801    -0.985774224473     0.528278499066     1.007825032230
         H            3.689092464801     0.587646775527     1.212667499066     1.007825032230
         H            4.796277464801     0.493945775527    -0.169056500934     1.007825032230

  Basis Set: AUG-CC-PVTZ
    Blend: AUG-CC-PVTZ
  Basis Set: (AUG-CC-PVTZ AUX)
    Blend: AUG-CC-PVTZ-JKFIT
	 Reference Energy          =    -382.2992904098318832 [Eh]
	 Singles Energy            =      -0.0000000000000000 [Eh]
	 Same-Spin Energy          =      -0.3907789187651330 [Eh]
	 Opposite-Spin Energy      =      -1.2590969641538323 [Eh]
	 Correlation Energy        =      -1.6498758829189653 [Eh]
	 Total Energy              =    -383.9491662927508742 [Eh]

	 ================> DF-SCS-MP2 Energies <==================
	-----------------------------------------------------------
	 SCS Same-Spin Scale       =       0.3333333333333333 [-]
	 SCS Opposite-Spin Scale   =       1.2000000000000000 [-]
	 SCS Same-Spin Energy      =      -0.1302596395883777 [Eh]
	 SCS Opposite-Spin Energy  =      -1.5109163569845987 [Eh]
	 SCS Correlation Energy    =      -1.6411759965729764 [Eh]
	 SCS Total Energy          =    -383.9404664064048802 [Eh]
	-----------------------------------------------------------

  Dipole Moment: [D]
     X:    10.7109      Y:    -0.8084      Z:     1.6861     Total:    10.8729

*** Psi4 exiting successfully. Buy a developer a beer!
