                               Psi4 1.3.2 release

  ==> Input File <==

--------------------------------------------------------------------------
#psi4
#
memory 32 gb

molecule  {
-1 1
  O       -2.9259140    -0.9099280    -0.5693610
  O       -2.5318610     1.2678500    -0.0507790
  C        2.5515340     0.1562790    -0.6847320
  C        1.3133740    -0.4576390    -0.0973370
  C        0.1996320     0.2215300     0.2212070
  C       -1.0091655    -0.3925625     0.8635464
  C        3.7521530     0.0645780     0.2634350
  C       -2.2813969     0.0750093    -0.0759860
  H        2.8053070    -0.3466590    -1.6276820
  H        2.3518550     1.2059430    -0.9306210
  H        1.3523840    -1.5323490     0.0963350
  H        0.1538580     1.2934970     0.0216010
  H       -0.9504340    -1.4608690     0.8884060
  H       -1.1707130     0.0247460     1.8437960
  H        3.9732670    -0.9779260     0.5120620
  H        3.5426510     0.5954950     1.1964510
  H        4.6498360     0.5017940    -0.1852730
units angstrom
no_reorient  #important for SAPT in psi4, default
symmetry c1  #important for SAPT in psi4, default
}

set PROPERTIES_ORIGIN ["COM"]
properties('MP2/aug-cc-pvtz', properties = ['dipole'])
--------------------------------------------------------------------------

    Molecular point group: c1
  Charge       = -1
  Multiplicity = 1
  Basis Set: AUG-CC-PVTZ
    Blend: AUG-CC-PVTZ
  Basis Set: (AUG-CC-PVTZ AUX)
    Blend: AUG-CC-PVTZ-JKFIT

    Orbital Energies [Eh]
    ---------------------

    Doubly Occupied:

       1A    -20.309425     2A    -20.294975     3A    -11.148362
       4A    -11.121304     5A    -11.118127     6A    -11.096144
       7A    -11.089568     8A    -11.060571     9A     -1.184471
      10A     -1.076953    11A     -0.965105    12A     -0.895703
      13A     -0.797786    14A     -0.715161    15A     -0.617792
      16A     -0.524286    17A     -0.512260    18A     -0.498380
      19A     -0.449088    20A     -0.441982    21A     -0.435425
      22A     -0.411988    23A     -0.403897    24A     -0.382550
      25A     -0.378063    26A     -0.354517    27A     -0.334765
      28A     -0.236571    29A     -0.221120    30A     -0.203330
      31A     -0.170572

  @DF-RHF Final Energy:  -382.32743873909038

   => Energetics <=

    Nuclear Repulsion Energy =            338.5098318133857447
    One-Electron Energy =               -1202.7740546362970235
    Two-Electron Energy =                 481.9367840838208963
    Total Energy =                       -382.3274387390903826
  Basis Set: (AUG-CC-PVTZ AUX)
    Blend: AUG-CC-PVTZ-RI
    Molecular point group: c1

    Geometry (in Angstrom), charge = -1, multiplicity = 1:

       Center              X                  Y                   Z               Mass
    ------------   -----------------  -----------------  -----------------  -----------------
         O           -2.783119997983    -0.919033698954    -0.549829754993    15.994914619570
         O           -2.389066997983     1.258744301046    -0.031247754993    15.994914619570
         C            2.694328002017     0.147173301046    -0.665200754993    12.000000000000
         C            1.456168002017    -0.466744698954    -0.077805754993    12.000000000000
         C            0.342426002017     0.212424301046     0.240738245007    12.000000000000
         C           -0.866371497983    -0.401668198954     0.883077645007    12.000000000000
         C            3.894947002017     0.055472301046     0.282966245007    12.000000000000
         C           -2.138602897983     0.065903601046    -0.056454754993    12.000000000000
         H            2.948101002017    -0.355764698954    -1.608150754993     1.007825032230
         H            2.494649002017     1.196837301046    -0.911089754993     1.007825032230
         H            1.495178002017    -1.541454698954     0.115866245007     1.007825032230
         H            0.296652002017     1.284391301046     0.041132245007     1.007825032230
         H           -0.807639997983    -1.469974698954     0.907937245007     1.007825032230
         H           -1.027918997983     0.015640301046     1.863327245007     1.007825032230
         H            4.116061002017    -0.987031698954     0.531593245007     1.007825032230
         H            3.685445002017     0.586389301046     1.215982245007     1.007825032230
         H            4.792630002017     0.492688301046    -0.165741754993     1.007825032230

  Basis Set: AUG-CC-PVTZ
    Blend: AUG-CC-PVTZ
  Basis Set: (AUG-CC-PVTZ AUX)
    Blend: AUG-CC-PVTZ-JKFIT
	 Reference Energy          =    -382.3274387390903826 [Eh]
	 Singles Energy            =      -0.0000000000000000 [Eh]
	 Same-Spin Energy          =      -0.3909374866928335 [Eh]
	 Opposite-Spin Energy      =      -1.2589255258368148 [Eh]
	 Correlation Energy        =      -1.6498630125296483 [Eh]
	 Total Energy              =    -383.9773017516200184 [Eh]

	 ================> DF-SCS-MP2 Energies <==================
	-----------------------------------------------------------
	 SCS Same-Spin Scale       =       0.3333333333333333 [-]
	 SCS Opposite-Spin Scale   =       1.2000000000000000 [-]
	 SCS Same-Spin Energy      =      -0.1303124955642778 [Eh]
	 SCS Opposite-Spin Energy  =      -1.5107106310041778 [Eh]
	 SCS Correlation Energy    =      -1.6410231265684556 [Eh]
	 SCS Total Energy          =    -383.9684618656588100 [Eh]
	-----------------------------------------------------------

  Dipole Moment: [D]
     X:    10.2182      Y:    -0.2714      Z:     1.5675     Total:    10.3413

*** Psi4 exiting successfully. Buy a developer a beer!
