                               Psi4 1.4a3.dev225

  ==> Input File <==

--------------------------------------------------------------------------
#psi4
#
memory 32 gb

molecule  {
-1 1
  O       -3.0493610    -0.8021490    -0.5876160
  O       -2.4328600     1.2902580     0.0530700
  C        2.5553900     0.3550440    -0.5884220
  C        1.3085550    -0.3848960    -0.2000760
  C        0.2108510     0.1869800     0.3208840
  C       -0.9940880    -0.5366111     0.6881069
  C        3.7725750    -0.0944570     0.2252300
  C       -2.2894080     0.0326700    -0.0161130
  H        2.7644980     0.1992670    -1.6554110
  H        2.3954460     1.4315290    -0.4528260
  H        1.3245080    -1.4678690    -0.3463610
  H        0.1904760     1.2677450     0.4620520
  H       -0.9472880    -1.6102600     0.4951310
  H       -1.2137680    -0.4258540     1.7866990
  H        3.9502020    -1.1668590     0.0980420
  H        3.6128950     0.0963670     1.2904210
  H        4.6769210     0.4370950    -0.0868020
units angstrom
no_reorient  #important for SAPT in psi4, default
symmetry c1  #important for SAPT in psi4, default
}

set PROPERTIES_ORIGIN ["COM"]
properties('MP2/aug-cc-pvtz', properties = ['dipole'])
--------------------------------------------------------------------------

    Molecular point group: c1
  Charge       = -1
  Multiplicity = 1
  Basis Set: AUG-CC-PVTZ
    Blend: AUG-CC-PVTZ
  Basis Set: (AUG-CC-PVTZ AUX)
    Blend: AUG-CC-PVTZ-JKFIT

    Orbital Energies [Eh]
    ---------------------

    Doubly Occupied:

       1A    -20.299599     2A    -20.297122     3A    -11.147244
       4A    -11.123029     5A    -11.120169     6A    -11.096569
       7A    -11.093627     8A    -11.069031     9A     -1.166180
      10A     -1.066252    11A     -0.969948    12A     -0.905102
      13A     -0.805199    14A     -0.719442    15A     -0.623096
      16A     -0.531985    17A     -0.513355    18A     -0.500970
      19A     -0.456999    20A     -0.442119    21A     -0.429691
      22A     -0.414430    23A     -0.400932    24A     -0.381917
      25A     -0.375128    26A     -0.349737    27A     -0.325688
      28A     -0.240398    29A     -0.212681    30A     -0.197186
      31A     -0.182822

  @DF-RHF Final Energy:  -382.33091293859417

   => Energetics <=

    Nuclear Repulsion Energy =            338.9027443250469105
    One-Electron Energy =               -1203.5520111529701808
    Two-Electron Energy =                 482.3183538893291029
    Total Energy =                       -382.3309129385941674
  Basis Set: (AUG-CC-PVTZ AUX)
    Blend: AUG-CC-PVTZ-RI
    Molecular point group: c1

    Geometry (in Angstrom), charge = -1, multiplicity = 1:

       Center              X                  Y                   Z               Mass
    ------------   -----------------  -----------------  -----------------  -----------------
         O           -2.907523648243    -0.813324347430    -0.571772194926    15.994914619570
         O           -2.291022648243     1.279082652570     0.068913805074    15.994914619570
         C            2.697227351757     0.343868652570    -0.572578194926    12.000000000000
         C            1.450392351757    -0.396071347430    -0.184232194926    12.000000000000
         C            0.352688351757     0.175804652570     0.336727805074    12.000000000000
         C           -0.852250648243    -0.547786447430     0.703950705074    12.000000000000
         C            3.914412351757    -0.105632347430     0.241073805074    12.000000000000
         C           -2.147570648243     0.021494652570    -0.000269194926    12.000000000000
         H            2.906335351757     0.188091652570    -1.639567194926     1.007825032230
         H            2.537283351757     1.420353652570    -0.436982194926     1.007825032230
         H            1.466345351757    -1.479044347430    -0.330517194926     1.007825032230
         H            0.332313351757     1.256569652570     0.477895805074     1.007825032230
         H           -0.805450648243    -1.621435347430     0.510974805074     1.007825032230
         H           -1.071930648243    -0.437029347430     1.802542805074     1.007825032230
         H            4.092039351757    -1.178034347430     0.113885805074     1.007825032230
         H            3.754732351757     0.085191652570     1.306264805074     1.007825032230
         H            4.818758351757     0.425919652570    -0.070958194926     1.007825032230

  Basis Set: AUG-CC-PVTZ
    Blend: AUG-CC-PVTZ
  Basis Set: (AUG-CC-PVTZ AUX)
    Blend: AUG-CC-PVTZ-JKFIT
	 Reference Energy          =    -382.3309129385941674 [Eh]
	 Singles Energy            =      -0.0000000000000000 [Eh]
	 Same-Spin Energy          =      -0.3914849060124865 [Eh]
	 Opposite-Spin Energy      =      -1.2598892266036339 [Eh]
	 Correlation Energy        =      -1.6513741326161204 [Eh]
	 Total Energy              =    -383.9822870712102940 [Eh]

	 ================> DF-SCS-MP2 Energies <==================
	-----------------------------------------------------------
	 SCS Same-Spin Scale       =       0.3333333333333333 [-]
	 SCS Opposite-Spin Scale   =       1.2000000000000000 [-]
	 SCS Same-Spin Energy      =      -0.1304949686708288 [Eh]
	 SCS Opposite-Spin Energy  =      -1.5118670719243605 [Eh]
	 SCS Correlation Energy    =      -1.6423620405951893 [Eh]
	 SCS Total Energy          =    -383.9732749791893411 [Eh]
	-----------------------------------------------------------

  Dipole Moment: [D]
     X:    10.6333      Y:    -0.9980      Z:     1.4185     Total:    10.7738

*** Psi4 exiting successfully. Buy a developer a beer!
