                               Psi4 1.3.2 release

  ==> Input File <==

--------------------------------------------------------------------------
#psi4
#
memory 32 gb

molecule  {
-1 1
  O       -2.9067708    -0.9198644    -0.5741845
  O       -2.5318610     1.2678500    -0.0507790
  C        2.5515340     0.1562790    -0.6847320
  C        1.3133740    -0.4576390    -0.0973370
  C        0.2041821     0.1837439     0.1997599
  C       -1.0388440    -0.3710000     0.8261750
  C        3.7521530     0.0645780     0.2634350
  C       -2.2854840     0.0250790    -0.0044070
  H        2.8053070    -0.3466590    -1.6276820
  H        2.3518550     1.2059430    -0.9306210
  H        1.3523840    -1.5323490     0.0963350
  H        0.1538580     1.2934970     0.0216010
  H       -0.9504340    -1.4608690     0.8884060
  H       -1.1707130     0.0247460     1.8437960
  H        3.9732670    -0.9779260     0.5120620
  H        3.5426510     0.5954950     1.1964510
  H        4.6498360     0.5017940    -0.1852730
units angstrom
no_reorient  #important for SAPT in psi4, default
symmetry c1  #important for SAPT in psi4, default
}

set PROPERTIES_ORIGIN ["COM"]
properties('MP2/aug-cc-pvtz', properties = ['dipole'])
--------------------------------------------------------------------------

    Molecular point group: c1
  Charge       = -1
  Multiplicity = 1
  Basis Set: AUG-CC-PVTZ
    Blend: AUG-CC-PVTZ
  Basis Set: (AUG-CC-PVTZ AUX)
    Blend: AUG-CC-PVTZ-JKFIT

    Orbital Energies [Eh]
    ---------------------

    Doubly Occupied:

       1A    -20.297929     2A    -20.296739     3A    -11.144160
       4A    -11.123995     5A    -11.121701     6A    -11.097887
       7A    -11.091721     8A    -11.068549     9A     -1.165437
      10A     -1.065863    11A     -0.971320    12A     -0.902251
      13A     -0.808283    14A     -0.724743    15A     -0.616344
      16A     -0.533436    17A     -0.513268    18A     -0.501164
      19A     -0.454997    20A     -0.442493    21A     -0.433115
      22A     -0.415327    23A     -0.400375    24A     -0.384920
      25A     -0.373261    26A     -0.340431    27A     -0.323609
      28A     -0.242398    29A     -0.212089    30A     -0.196130
      31A     -0.190442

  @DF-RHF Final Energy:  -382.33185023458327

   => Energetics <=

    Nuclear Repulsion Energy =            339.2261862885916344
    One-Electron Energy =               -1204.2073216723099449
    Two-Electron Energy =                 482.6492851491350393
    Total Energy =                       -382.3318502345832712
  Basis Set: (AUG-CC-PVTZ AUX)
    Blend: AUG-CC-PVTZ-RI
    Molecular point group: c1

    Geometry (in Angstrom), charge = -1, multiplicity = 1:

       Center              X                  Y                   Z               Mass
    ------------   -----------------  -----------------  -----------------  -----------------
         O           -2.763584156461    -0.920542922900    -0.555325237642    15.994914619570
         O           -2.388674356461     1.267171477100    -0.031919737642    15.994914619570
         C            2.694720643539     0.155600477100    -0.665872737642    12.000000000000
         C            1.456560643539    -0.458317522900    -0.078477737642    12.000000000000
         C            0.347368743539     0.183065377100     0.218619162358    12.000000000000
         C           -0.895657356461    -0.371678522900     0.845034262358    12.000000000000
         C            3.895339643539     0.063899477100     0.282294262358    12.000000000000
         C           -2.142297356461     0.024400477100     0.014452262358    12.000000000000
         H            2.948493643539    -0.347337522900    -1.608822737642     1.007825032230
         H            2.495041643539     1.205264477100    -0.911761737642     1.007825032230
         H            1.495570643539    -1.533027522900     0.115194262358     1.007825032230
         H            0.297044643539     1.292818477100     0.040460262358     1.007825032230
         H           -0.807247356461    -1.461547522900     0.907265262358     1.007825032230
         H           -1.027526356461     0.024067477100     1.862655262358     1.007825032230
         H            4.116453643539    -0.978604522900     0.530921262358     1.007825032230
         H            3.685837643539     0.594816477100     1.215310262358     1.007825032230
         H            4.793022643539     0.501115477100    -0.166413737642     1.007825032230

  Basis Set: AUG-CC-PVTZ
    Blend: AUG-CC-PVTZ
  Basis Set: (AUG-CC-PVTZ AUX)
    Blend: AUG-CC-PVTZ-JKFIT
	 Reference Energy          =    -382.3318502345832712 [Eh]
	 Singles Energy            =      -0.0000000000000000 [Eh]
	 Same-Spin Energy          =      -0.3908587002359282 [Eh]
	 Opposite-Spin Energy      =      -1.2592701037976830 [Eh]
	 Correlation Energy        =      -1.6501288040336113 [Eh]
	 Total Energy              =    -383.9819790386168847 [Eh]

	 ================> DF-SCS-MP2 Energies <==================
	-----------------------------------------------------------
	 SCS Same-Spin Scale       =       0.3333333333333333 [-]
	 SCS Opposite-Spin Scale   =       1.2000000000000000 [-]
	 SCS Same-Spin Energy      =      -0.1302862334119760 [Eh]
	 SCS Opposite-Spin Energy  =      -1.5111241245572196 [Eh]
	 SCS Correlation Energy    =      -1.6414103579691957 [Eh]
	 SCS Total Energy          =    -383.9732605925524922 [Eh]
	-----------------------------------------------------------

  Dipole Moment: [D]
     X:    10.6869      Y:    -0.7213      Z:     1.6738     Total:    10.8412

*** Psi4 exiting successfully. Buy a developer a beer!
