                               Psi4 1.3.2 release

  ==> Input File <==

--------------------------------------------------------------------------
#psi4
#
memory 32 gb

molecule  {
-1 1
  O       -2.9259140    -0.9099280    -0.5693610
  O       -2.5318610     1.2678500    -0.0507790
  C        2.5515340     0.1562790    -0.6847320
  C        1.3126042    -0.4359059    -0.1010729
  C        0.2052153     0.2096877     0.2211799
  C       -1.0388440    -0.3710000     0.8261750
  C        3.7521530     0.0645780     0.2634350
  C       -2.2854840     0.0250790    -0.0044070
  H        2.8053070    -0.3466590    -1.6276820
  H        2.3518550     1.2059430    -0.9306210
  H        1.3523840    -1.5323490     0.0963350
  H        0.1538580     1.2934970     0.0216010
  H       -0.9504340    -1.4608690     0.8884060
  H       -1.1707130     0.0247460     1.8437960
  H        3.9732670    -0.9779260     0.5120620
  H        3.5426510     0.5954950     1.1964510
  H        4.6498360     0.5017940    -0.1852730
units angstrom
no_reorient  #important for SAPT in psi4, default
symmetry c1  #important for SAPT in psi4, default
}

set PROPERTIES_ORIGIN ["COM"]
properties('MP2/aug-cc-pvtz', properties = ['dipole'])
--------------------------------------------------------------------------

    Molecular point group: c1
  Charge       = -1
  Multiplicity = 1
  Basis Set: AUG-CC-PVTZ
    Blend: AUG-CC-PVTZ
  Basis Set: (AUG-CC-PVTZ AUX)
    Blend: AUG-CC-PVTZ-JKFIT

    Orbital Energies [Eh]
    ---------------------

    Doubly Occupied:

       1A    -20.297700     2A    -20.295757     3A    -11.144039
       4A    -11.124341     5A    -11.121611     6A    -11.097677
       7A    -11.094430     8A    -11.069882     9A     -1.165454
      10A     -1.064615    11A     -0.972002    12A     -0.902401
      13A     -0.808530    14A     -0.725541    15A     -0.616489
      16A     -0.534077    17A     -0.514395    18A     -0.502014
      19A     -0.453361    20A     -0.441904    21A     -0.433288
      22A     -0.416124    23A     -0.401336    24A     -0.385590
      25A     -0.371488    26A     -0.343197    27A     -0.324178
      28A     -0.241451    29A     -0.210942    30A     -0.195362
      31A     -0.191015

  @DF-RHF Final Energy:  -382.33249409438042

   => Energetics <=

    Nuclear Repulsion Energy =            339.1078866648224448
    One-Electron Energy =               -1203.9603812365473914
    Two-Electron Energy =                 482.5200004773445244
    Total Energy =                       -382.3324940943804222
  Basis Set: (AUG-CC-PVTZ AUX)
    Blend: AUG-CC-PVTZ-RI
    Molecular point group: c1

    Geometry (in Angstrom), charge = -1, multiplicity = 1:

       Center              X                  Y                   Z               Mass
    ------------   -----------------  -----------------  -----------------  -----------------
         O           -2.780047077252    -0.917072585379    -0.553061086830    15.994914619570
         O           -2.385994077252     1.260705414621    -0.034479086830    15.994914619570
         C            2.697400922748     0.149134414621    -0.668432086830    12.000000000000
         C            1.458471122748    -0.443050485379    -0.084772986830    12.000000000000
         C            0.351082222748     0.202543114621     0.237479813170    12.000000000000
         C           -0.892977077252    -0.378144585379     0.842474913170    12.000000000000
         C            3.898019922748     0.057433414621     0.279734913170    12.000000000000
         C           -2.139617077252     0.017934414621     0.011892913170    12.000000000000
         H            2.951173922748    -0.353803585379    -1.611382086830     1.007825032230
         H            2.497721922748     1.198798414621    -0.914321086830     1.007825032230
         H            1.498250922748    -1.539493585379     0.112634913170     1.007825032230
         H            0.299724922748     1.286352414621     0.037900913170     1.007825032230
         H           -0.804567077252    -1.468013585379     0.904705913170     1.007825032230
         H           -1.024846077252     0.017601414621     1.860095913170     1.007825032230
         H            4.119133922748    -0.985070585379     0.528361913170     1.007825032230
         H            3.688517922748     0.588350414621     1.212750913170     1.007825032230
         H            4.795702922748     0.494649414621    -0.168973086830     1.007825032230

  Basis Set: AUG-CC-PVTZ
    Blend: AUG-CC-PVTZ
  Basis Set: (AUG-CC-PVTZ AUX)
    Blend: AUG-CC-PVTZ-JKFIT
	 Reference Energy          =    -382.3324940943804222 [Eh]
	 Singles Energy            =      -0.0000000000000000 [Eh]
	 Same-Spin Energy          =      -0.3909043072524797 [Eh]
	 Opposite-Spin Energy      =      -1.2593190136968608 [Eh]
	 Correlation Energy        =      -1.6502233209493404 [Eh]
	 Total Energy              =    -383.9827174153297733 [Eh]

	 ================> DF-SCS-MP2 Energies <==================
	-----------------------------------------------------------
	 SCS Same-Spin Scale       =       0.3333333333333333 [-]
	 SCS Opposite-Spin Scale   =       1.2000000000000000 [-]
	 SCS Same-Spin Energy      =      -0.1303014357508266 [Eh]
	 SCS Opposite-Spin Energy  =      -1.5111828164362329 [Eh]
	 SCS Correlation Energy    =      -1.6414842521870594 [Eh]
	 SCS Total Energy          =    -383.9739783465674918 [Eh]
	-----------------------------------------------------------

  Dipole Moment: [D]
     X:    10.7337      Y:    -0.7000      Z:     1.6564     Total:    10.8833

*** Psi4 exiting successfully. Buy a developer a beer!
