                               Psi4 1.3.2 release

  ==> Input File <==

--------------------------------------------------------------------------
#psi4
#
memory 32 gb

molecule  {
-1 1
  O       -2.9259140    -0.9099280    -0.5693610
  O       -2.5318610     1.2678500    -0.0507790
  C        2.5515340     0.1562790    -0.6847320
  C        1.3133740    -0.4576390    -0.0973370
  C        0.1996320     0.2215300     0.2212070
  C       -1.0380114    -0.3927031     0.8300682
  C        3.7521530     0.0645780     0.2634350
  C       -2.2854840     0.0250790    -0.0044070
  H        2.8053070    -0.3466590    -1.6276820
  H        2.3518550     1.2059430    -0.9306210
  H        1.3435124    -1.5320018     0.0998141
  H        0.1538580     1.2934970     0.0216010
  H       -0.9504340    -1.4608690     0.8884060
  H       -1.1707130     0.0247460     1.8437960
  H        3.9732670    -0.9779260     0.5120620
  H        3.5426510     0.5954950     1.1964510
  H        4.6498360     0.5017940    -0.1852730
units angstrom
no_reorient  #important for SAPT in psi4, default
symmetry c1  #important for SAPT in psi4, default
}

set PROPERTIES_ORIGIN ["COM"]
properties('MP2/aug-cc-pvtz', properties = ['dipole'])
--------------------------------------------------------------------------

    Molecular point group: c1
  Charge       = -1
  Multiplicity = 1
  Basis Set: AUG-CC-PVTZ
    Blend: AUG-CC-PVTZ
  Basis Set: (AUG-CC-PVTZ AUX)
    Blend: AUG-CC-PVTZ-JKFIT

    Orbital Energies [Eh]
    ---------------------

    Doubly Occupied:

       1A    -20.297332     2A    -20.296351     3A    -11.144422
       4A    -11.123546     5A    -11.121322     6A    -11.100230
       7A    -11.094970     8A    -11.068881     9A     -1.165238
      10A     -1.064599    11A     -0.968401    12A     -0.899776
      13A     -0.806206    14A     -0.722410    15A     -0.621948
      16A     -0.532379    17A     -0.514387    18A     -0.499893
      19A     -0.452097    20A     -0.443209    21A     -0.431814
      22A     -0.414450    23A     -0.401671    24A     -0.382419
      25A     -0.375029    26A     -0.351711    27A     -0.322911
      28A     -0.237703    29A     -0.211512    30A     -0.195597
      31A     -0.187870

  @DF-RHF Final Energy:  -382.33270156946537

   => Energetics <=

    Nuclear Repulsion Energy =            338.6602364857382099
    One-Electron Energy =               -1203.0853117740655307
    Two-Electron Energy =                 482.0923737188619498
    Total Energy =                       -382.3327015694653710
  Basis Set: (AUG-CC-PVTZ AUX)
    Blend: AUG-CC-PVTZ-RI
    Molecular point group: c1

    Geometry (in Angstrom), charge = -1, multiplicity = 1:

       Center              X                  Y                   Z               Mass
    ------------   -----------------  -----------------  -----------------  -----------------
         O           -2.779545470204    -0.913722363988    -0.553904714190    15.994914619570
         O           -2.385492470204     1.264055636012    -0.035322714190    15.994914619570
         C            2.697902529796     0.152484636012    -0.669275714190    12.000000000000
         C            1.459742529796    -0.461433363988    -0.081880714190    12.000000000000
         C            0.346000529796     0.217735636012     0.236663285810    12.000000000000
         C           -0.891642870204    -0.396497463988     0.845524485810    12.000000000000
         C            3.898521529796     0.060783636012     0.278891285810    12.000000000000
         C           -2.139115470204     0.021284636012     0.011049285810    12.000000000000
         H            2.951675529796    -0.350453363988    -1.612225714190     1.007825032230
         H            2.498223529796     1.202148636012    -0.915164714190     1.007825032230
         H            1.489880929796    -1.535796163988     0.115270385810     1.007825032230
         H            0.300226529796     1.289702636012     0.037057285810     1.007825032230
         H           -0.804065470204    -1.464663363988     0.903862285810     1.007825032230
         H           -1.024344470204     0.020951636012     1.859252285810     1.007825032230
         H            4.119635529796    -0.981720363988     0.527518285810     1.007825032230
         H            3.689019529796     0.591700636012     1.211907285810     1.007825032230
         H            4.796204529796     0.497999636012    -0.169816714190     1.007825032230

  Basis Set: AUG-CC-PVTZ
    Blend: AUG-CC-PVTZ
  Basis Set: (AUG-CC-PVTZ AUX)
    Blend: AUG-CC-PVTZ-JKFIT
	 Reference Energy          =    -382.3327015694653710 [Eh]
	 Singles Energy            =      -0.0000000000000000 [Eh]
	 Same-Spin Energy          =      -0.3908758748813811 [Eh]
	 Opposite-Spin Energy      =      -1.2594591717634738 [Eh]
	 Correlation Energy        =      -1.6503350466448550 [Eh]
	 Total Energy              =    -383.9830366161102120 [Eh]

	 ================> DF-SCS-MP2 Energies <==================
	-----------------------------------------------------------
	 SCS Same-Spin Scale       =       0.3333333333333333 [-]
	 SCS Opposite-Spin Scale   =       1.2000000000000000 [-]
	 SCS Same-Spin Energy      =      -0.1302919582937937 [Eh]
	 SCS Opposite-Spin Energy  =      -1.5113510061161686 [Eh]
	 SCS Correlation Energy    =      -1.6416429644099622 [Eh]
	 SCS Total Energy          =    -383.9743445338753531 [Eh]
	-----------------------------------------------------------

  Dipole Moment: [D]
     X:    10.6979      Y:    -0.7321      Z:     1.6608     Total:    10.8508

*** Psi4 exiting successfully. Buy a developer a beer!
