                               Psi4 1.3.2 release

  ==> Input File <==

--------------------------------------------------------------------------
#psi4
#
memory 32 gb

molecule  {
-1 1
  O       -2.9259140    -0.9099280    -0.5693610
  O       -2.5318610     1.2678500    -0.0507790
  C        2.5515340     0.1562790    -0.6847320
  C        1.3133740    -0.4576390    -0.0973370
  C        0.2106177     0.2614879     0.2879321
  C       -1.0388440    -0.3710000     0.8261750
  C        3.7521530     0.0645780     0.2634350
  C       -2.2854840     0.0250790    -0.0044070
  H        2.8053070    -0.3466590    -1.6276820
  H        2.3518550     1.2059430    -0.9306210
  H        1.3523840    -1.5323490     0.0963350
  H        0.1538580     1.2934970     0.0216010
  H       -0.9504340    -1.4608690     0.8884060
  H       -1.1226115     0.0555244     1.8364308
  H        3.9732670    -0.9779260     0.5120620
  H        3.5426510     0.5954950     1.1964510
  H        4.6498360     0.5017940    -0.1852730
units angstrom
no_reorient  #important for SAPT in psi4, default
symmetry c1  #important for SAPT in psi4, default
}

set PROPERTIES_ORIGIN ["COM"]
properties('MP2/aug-cc-pvtz', properties = ['dipole'])
--------------------------------------------------------------------------

    Molecular point group: c1
  Charge       = -1
  Multiplicity = 1
  Basis Set: AUG-CC-PVTZ
    Blend: AUG-CC-PVTZ
  Basis Set: (AUG-CC-PVTZ AUX)
    Blend: AUG-CC-PVTZ-JKFIT

    Orbital Energies [Eh]
    ---------------------

    Doubly Occupied:

       1A    -20.298874     2A    -20.296242     3A    -11.145245
       4A    -11.123068     5A    -11.121004     6A    -11.102438
       7A    -11.099425     8A    -11.069904     9A     -1.166164
      10A     -1.065427    11A     -0.966403    12A     -0.899526
      13A     -0.805213    14A     -0.719869    15A     -0.626591
      16A     -0.535261    17A     -0.514215    18A     -0.499440
      19A     -0.449648    20A     -0.442378    21A     -0.433617
      22A     -0.414785    23A     -0.402843    24A     -0.380268
      25A     -0.373782    26A     -0.356612    27A     -0.321463
      28A     -0.234008    29A     -0.211722    30A     -0.196171
      31A     -0.187523

  @DF-RHF Final Energy:  -382.32822675923580

   => Energetics <=

    Nuclear Repulsion Energy =            338.4319821037895508
    One-Electron Energy =               -1202.6021601397894756
    Two-Electron Energy =                 481.8419512767641208
    Total Energy =                       -382.3282267592358039
  Basis Set: (AUG-CC-PVTZ AUX)
    Blend: AUG-CC-PVTZ-RI
    Molecular point group: c1

    Geometry (in Angstrom), charge = -1, multiplicity = 1:

       Center              X                  Y                   Z               Mass
    ------------   -----------------  -----------------  -----------------  -----------------
         O           -2.781130962091    -0.920538210355    -0.560476905683    15.994914619570
         O           -2.387077962091     1.257239789645    -0.041894905683    15.994914619570
         C            2.696317037909     0.145668789645    -0.675847905683    12.000000000000
         C            1.458157037909    -0.468249210355    -0.088452905683    12.000000000000
         C            0.355400737909     0.250877689645     0.296816194317    12.000000000000
         C           -0.894060962091    -0.381610210355     0.835059094317    12.000000000000
         C            3.896936037909     0.053967789645     0.272319094317    12.000000000000
         C           -2.140700962091     0.014468789645     0.004477094317    12.000000000000
         H            2.950090037909    -0.357269210355    -1.618797905683     1.007825032230
         H            2.496638037909     1.195332789645    -0.921736905683     1.007825032230
         H            1.497167037909    -1.542959210355     0.105219094317     1.007825032230
         H            0.298641037909     1.282886789645     0.030485094317     1.007825032230
         H           -0.805650962091    -1.471479210355     0.897290094317     1.007825032230
         H           -0.977828462091     0.044914189645     1.845314894317     1.007825032230
         H            4.118050037909    -0.988536210355     0.520946094317     1.007825032230
         H            3.687434037909     0.584884789645     1.205335094317     1.007825032230
         H            4.794619037909     0.491183789645    -0.176388905683     1.007825032230

  Basis Set: AUG-CC-PVTZ
    Blend: AUG-CC-PVTZ
  Basis Set: (AUG-CC-PVTZ AUX)
    Blend: AUG-CC-PVTZ-JKFIT
	 Reference Energy          =    -382.3282267592358039 [Eh]
	 Singles Energy            =      -0.0000000000000000 [Eh]
	 Same-Spin Energy          =      -0.3913517736175468 [Eh]
	 Opposite-Spin Energy      =      -1.2605445666117423 [Eh]
	 Correlation Energy        =      -1.6518963402292890 [Eh]
	 Total Energy              =    -383.9801230994651178 [Eh]

	 ================> DF-SCS-MP2 Energies <==================
	-----------------------------------------------------------
	 SCS Same-Spin Scale       =       0.3333333333333333 [-]
	 SCS Opposite-Spin Scale   =       1.2000000000000000 [-]
	 SCS Same-Spin Energy      =      -0.1304505912058489 [Eh]
	 SCS Opposite-Spin Energy  =      -1.5126534799340907 [Eh]
	 SCS Correlation Energy    =      -1.6431040711399396 [Eh]
	 SCS Total Energy          =    -383.9713308303757344 [Eh]
	-----------------------------------------------------------

  Dipole Moment: [D]
     X:    10.6640      Y:    -0.7006      Z:     1.6249     Total:    10.8098

*** Psi4 exiting successfully. Buy a developer a beer!
