                               Psi4 1.3.2 release

  ==> Input File <==

--------------------------------------------------------------------------
#psi4
#
memory 32 gb

molecule  {
-1 1
  O       -2.9259140    -0.9099280    -0.5693610
  O       -2.5318610     1.2678500    -0.0507790
  C        2.5515340     0.1562790    -0.6847320
  C        1.3133740    -0.4576390    -0.0973370
  C        0.1996320     0.2215300     0.2212070
  C       -1.0388440    -0.3710000     0.8261750
  C        3.7521530     0.0645780     0.2634350
  C       -2.2854840     0.0250790    -0.0044070
  H        2.8053070    -0.3466590    -1.6276820
  H        2.3518550     1.2059430    -0.9306210
  H        1.3595240    -1.7290530     0.1317828
  H        0.1538580     1.2934970     0.0216010
  H       -0.9504340    -1.4608690     0.8884060
  H       -1.1707130     0.0247460     1.8437960
  H        3.9732670    -0.9779260     0.5120620
  H        3.5426510     0.5954950     1.1964510
  H        4.6498360     0.5017940    -0.1852730
units angstrom
no_reorient  #important for SAPT in psi4, default
symmetry c1  #important for SAPT in psi4, default
}

set PROPERTIES_ORIGIN ["COM"]
properties('MP2/aug-cc-pvtz', properties = ['dipole'])
--------------------------------------------------------------------------

    Molecular point group: c1
  Charge       = -1
  Multiplicity = 1
  Basis Set: AUG-CC-PVTZ
    Blend: AUG-CC-PVTZ
  Basis Set: (AUG-CC-PVTZ AUX)
    Blend: AUG-CC-PVTZ-JKFIT

    Orbital Energies [Eh]
    ---------------------

    Doubly Occupied:

       1A    -20.298045     2A    -20.296364     3A    -11.144368
       4A    -11.125208     5A    -11.124108     6A    -11.119497
       7A    -11.103377     8A    -11.070120     9A     -1.165958
      10A     -1.065115    11A     -0.968058    12A     -0.901635
      13A     -0.805446    14A     -0.723942    15A     -0.602311
      16A     -0.533545    17A     -0.514604    18A     -0.501744
      19A     -0.449923    20A     -0.434167    21A     -0.432536
      22A     -0.416242    23A     -0.402339    24A     -0.384319
      25A     -0.365826    26A     -0.341845    27A     -0.323462
      28A     -0.240194    29A     -0.211452    30A     -0.195911
      31A     -0.190440

  @DF-RHF Final Energy:  -382.31219715459997

   => Energetics <=

    Nuclear Repulsion Energy =            338.0101480647745120
    One-Electron Energy =               -1201.7404866133283576
    Two-Electron Energy =                 481.4181413939538743
    Total Energy =                       -382.3121971545999713
  Basis Set: (AUG-CC-PVTZ AUX)
    Blend: AUG-CC-PVTZ-RI
    Molecular point group: c1

    Geometry (in Angstrom), charge = -1, multiplicity = 1:

       Center              X                  Y                   Z               Mass
    ------------   -----------------  -----------------  -----------------  -----------------
         O           -2.779599827868    -0.914269364950    -0.553776468027    15.994914619570
         O           -2.385546827868     1.263508635050    -0.035194468027    15.994914619570
         C            2.697848172132     0.151937635050    -0.669147468027    12.000000000000
         C            1.459688172132    -0.461980364950    -0.081752468027    12.000000000000
         C            0.345946172132     0.217188635050     0.236791531973    12.000000000000
         C           -0.892529827868    -0.375341364950     0.841759531973    12.000000000000
         C            3.898467172132     0.060236635050     0.279019531973    12.000000000000
         C           -2.139169827868     0.020737635050     0.011177531973    12.000000000000
         H            2.951621172132    -0.351000364950    -1.612097468027     1.007825032230
         H            2.498169172132     1.201601635050    -0.915036468027     1.007825032230
         H            1.505838172132    -1.733394364950     0.147367331973     1.007825032230
         H            0.300172172132     1.289155635050     0.037185531973     1.007825032230
         H           -0.804119827868    -1.465210364950     0.903990531973     1.007825032230
         H           -1.024398827868     0.020404635050     1.859380531973     1.007825032230
         H            4.119581172132    -0.982267364950     0.527646531973     1.007825032230
         H            3.688965172132     0.591153635050     1.212035531973     1.007825032230
         H            4.796150172132     0.497452635050    -0.169688468027     1.007825032230

  Basis Set: AUG-CC-PVTZ
    Blend: AUG-CC-PVTZ
  Basis Set: (AUG-CC-PVTZ AUX)
    Blend: AUG-CC-PVTZ-JKFIT
	 Reference Energy          =    -382.3121971545999713 [Eh]
	 Singles Energy            =      -0.0000000000000000 [Eh]
	 Same-Spin Energy          =      -0.3913221608753384 [Eh]
	 Opposite-Spin Energy      =      -1.2614881352856813 [Eh]
	 Correlation Energy        =      -1.6528102961610198 [Eh]
	 Total Energy              =    -383.9650074507609929 [Eh]

	 ================> DF-SCS-MP2 Energies <==================
	-----------------------------------------------------------
	 SCS Same-Spin Scale       =       0.3333333333333333 [-]
	 SCS Opposite-Spin Scale   =       1.2000000000000000 [-]
	 SCS Same-Spin Energy      =      -0.1304407202917795 [Eh]
	 SCS Opposite-Spin Energy  =      -1.5137857623428175 [Eh]
	 SCS Correlation Energy    =      -1.6442264826345969 [Eh]
	 SCS Total Energy          =    -383.9564236372345931 [Eh]
	-----------------------------------------------------------

  Dipole Moment: [D]
     X:    10.6954      Y:    -0.5461      Z:     1.6309     Total:    10.8328

*** Psi4 exiting successfully. Buy a developer a beer!
