                               Psi4 1.4a3.dev225

  ==> Input File <==

--------------------------------------------------------------------------
#psi4
#
memory 32 gb

molecule  {
-1 1
  O       -3.0493610    -0.8021490    -0.5876160
  O       -2.4328600     1.2902580     0.0530700
  C        2.5553900     0.3550440    -0.5884220
  C        1.3085550    -0.3848960    -0.2000760
  C        0.2108510     0.1869800     0.3208840
  C       -1.0406500    -0.5396790     0.7060670
  C        3.7725750    -0.0944570     0.2252300
  C       -2.3388675     0.0296175    -0.0227794
  H        2.7644980     0.1992670    -1.6554110
  H        2.3954460     1.4315290    -0.4528260
  H        1.3245080    -1.4678690    -0.3463610
  H        0.1904760     1.2677450     0.4620520
  H       -0.9472880    -1.6102600     0.4951310
  H       -1.2137680    -0.4258540     1.7866990
  H        3.9502020    -1.1668590     0.0980420
  H        3.6128950     0.0963670     1.2904210
  H        4.6769210     0.4370950    -0.0868020
units angstrom
no_reorient  #important for SAPT in psi4, default
symmetry c1  #important for SAPT in psi4, default
}

set PROPERTIES_ORIGIN ["COM"]
properties('MP2/aug-cc-pvtz', properties = ['dipole'])
--------------------------------------------------------------------------

    Molecular point group: c1
  Charge       = -1
  Multiplicity = 1
  Basis Set: AUG-CC-PVTZ
    Blend: AUG-CC-PVTZ
  Basis Set: (AUG-CC-PVTZ AUX)
    Blend: AUG-CC-PVTZ-JKFIT

    Orbital Energies [Eh]
    ---------------------

    Doubly Occupied:

       1A    -20.304767     2A    -20.294741     3A    -11.144812
       4A    -11.121751     5A    -11.118779     6A    -11.096023
       7A    -11.091507     8A    -11.064484     9A     -1.179285
      10A     -1.078864    11A     -0.965897    12A     -0.896028
      13A     -0.799723    14A     -0.717392    15A     -0.619080
      16A     -0.528193    17A     -0.510191    18A     -0.499623
      19A     -0.450202    20A     -0.440818    21A     -0.433163
      22A     -0.413441    23A     -0.406965    24A     -0.382551
      25A     -0.376105    26A     -0.344232    27A     -0.331342
      28A     -0.238673    29A     -0.217064    30A     -0.202545
      31A     -0.180062

  @DF-RHF Final Energy:  -382.33483555983196

   => Energetics <=

    Nuclear Repulsion Energy =            338.5658471018851401
    One-Electron Energy =               -1202.9047615553636206
    Two-Electron Energy =                 482.0040788936465788
    Total Energy =                       -382.3348355598319586
  Basis Set: (AUG-CC-PVTZ AUX)
    Blend: AUG-CC-PVTZ-RI
    Molecular point group: c1

    Geometry (in Angstrom), charge = -1, multiplicity = 1:

       Center              X                  Y                   Z               Mass
    ------------   -----------------  -----------------  -----------------  -----------------
         O           -2.897332109185    -0.812674739836    -0.572970886726    15.994914619570
         O           -2.280831109185     1.279732260164     0.067715113274    15.994914619570
         C            2.707418890815     0.344518260164    -0.573776886726    12.000000000000
         C            1.460583890815    -0.395421739836    -0.185430886726    12.000000000000
         C            0.362879890815     0.176454260164     0.335529113274    12.000000000000
         C           -0.888621109185    -0.550204739836     0.720712113274    12.000000000000
         C            3.924603890815    -0.104982739836     0.239875113274    12.000000000000
         C           -2.186838609185     0.019091760164    -0.008134286726    12.000000000000
         H            2.916526890815     0.188741260164    -1.640765886726     1.007825032230
         H            2.547474890815     1.421003260164    -0.438180886726     1.007825032230
         H            1.476536890815    -1.478394739836    -0.331715886726     1.007825032230
         H            0.342504890815     1.257219260164     0.476697113274     1.007825032230
         H           -0.795259109185    -1.620785739836     0.509776113274     1.007825032230
         H           -1.061739109185    -0.436379739836     1.801344113274     1.007825032230
         H            4.102230890815    -1.177384739836     0.112687113274     1.007825032230
         H            3.764923890815     0.085841260164     1.305066113274     1.007825032230
         H            4.828949890815     0.426569260164    -0.072156886726     1.007825032230

  Basis Set: AUG-CC-PVTZ
    Blend: AUG-CC-PVTZ
  Basis Set: (AUG-CC-PVTZ AUX)
    Blend: AUG-CC-PVTZ-JKFIT
	 Reference Energy          =    -382.3348355598319586 [Eh]
	 Singles Energy            =      -0.0000000000000000 [Eh]
	 Same-Spin Energy          =      -0.3904072511069235 [Eh]
	 Opposite-Spin Energy      =      -1.2580303825821799 [Eh]
	 Correlation Energy        =      -1.6484376336891033 [Eh]
	 Total Energy              =    -383.9832731935210859 [Eh]

	 ================> DF-SCS-MP2 Energies <==================
	-----------------------------------------------------------
	 SCS Same-Spin Scale       =       0.3333333333333333 [-]
	 SCS Opposite-Spin Scale   =       1.2000000000000000 [-]
	 SCS Same-Spin Energy      =      -0.1301357503689745 [Eh]
	 SCS Opposite-Spin Energy  =      -1.5096364590986158 [Eh]
	 SCS Correlation Energy    =      -1.6397722094675902 [Eh]
	 SCS Total Energy          =    -383.9746077692995527 [Eh]
	-----------------------------------------------------------

  Dipole Moment: [D]
     X:    10.3207      Y:    -1.0984      Z:     1.3028     Total:    10.4604

*** Psi4 exiting successfully. Buy a developer a beer!
