                               Psi4 1.4a3.dev225

  ==> Input File <==

--------------------------------------------------------------------------
#psi4
#
memory 32 gb

molecule  {
-1 1
  O       -3.0493610    -0.8021490    -0.5876160
  O       -2.4328600     1.2902580     0.0530700
  C        2.5553900     0.3550440    -0.5884220
  C        1.3085550    -0.3848960    -0.2000760
  C        0.2108510     0.1869800     0.3208840
  C       -1.0406500    -0.5396790     0.7060670
  C        3.7725750    -0.0944570     0.2252300
  C       -2.2894080     0.0326700    -0.0161130
  H        2.7644980     0.1992670    -1.6554110
  H        2.3954460     1.4315290    -0.4528260
  H        1.3245080    -1.4678690    -0.3463610
  H        0.1904760     1.2677450     0.4620520
  H       -0.9472880    -1.6102600     0.4951310
  H       -1.2169147    -0.4237850     1.8063412
  H        3.9502020    -1.1668590     0.0980420
  H        3.6128950     0.0963670     1.2904210
  H        4.6769210     0.4370950    -0.0868020
units angstrom
no_reorient  #important for SAPT in psi4, default
symmetry c1  #important for SAPT in psi4, default
}

set PROPERTIES_ORIGIN ["COM"]
properties('MP2/aug-cc-pvtz', properties = ['dipole'])
--------------------------------------------------------------------------

    Molecular point group: c1
  Charge       = -1
  Multiplicity = 1
  Basis Set: AUG-CC-PVTZ
    Blend: AUG-CC-PVTZ
  Basis Set: (AUG-CC-PVTZ AUX)
    Blend: AUG-CC-PVTZ-JKFIT

    Orbital Energies [Eh]
    ---------------------

    Doubly Occupied:

       1A    -20.298067     2A    -20.296159     3A    -11.144657
       4A    -11.123504     5A    -11.120874     6A    -11.098961
       7A    -11.095019     8A    -11.071845     9A     -1.166071
      10A     -1.065561    11A     -0.968685    12A     -0.900272
      13A     -0.805574    14A     -0.721554    15A     -0.622453
      16A     -0.532623    17A     -0.512989    18A     -0.501128
      19A     -0.452790    20A     -0.442071    21A     -0.431867
      22A     -0.414736    23A     -0.401721    24A     -0.382823
      25A     -0.375698    26A     -0.344971    27A     -0.323524
      28A     -0.238813    29A     -0.211904    30A     -0.196346
      31A     -0.188076

  @DF-RHF Final Energy:  -382.33314616344336

   => Energetics <=

    Nuclear Repulsion Energy =            338.5848687543257256
    One-Electron Energy =               -1202.9333607908699832
    Two-Electron Energy =                 482.0153458731008982
    Total Energy =                       -382.3331461634433595
  Basis Set: (AUG-CC-PVTZ AUX)
    Blend: AUG-CC-PVTZ-RI
    Molecular point group: c1

    Geometry (in Angstrom), charge = -1, multiplicity = 1:

       Center              X                  Y                   Z               Mass
    ------------   -----------------  -----------------  -----------------  -----------------
         O           -2.902553596430    -0.813017169544    -0.573853537321    15.994914619570
         O           -2.286052596430     1.279389830456     0.066832462679    15.994914619570
         C            2.702197403570     0.344175830456    -0.574659537321    12.000000000000
         C            1.455362403570    -0.395764169544    -0.186313537321    12.000000000000
         C            0.357658403570     0.176111830456     0.334646462679    12.000000000000
         C           -0.893842596430    -0.550547169544     0.719829462679    12.000000000000
         C            3.919382403570    -0.105325169544     0.238992462679    12.000000000000
         C           -2.142600596430     0.021801830456    -0.002350537321    12.000000000000
         H            2.911305403570     0.188398830456    -1.641648537321     1.007825032230
         H            2.542253403570     1.420660830456    -0.439063537321     1.007825032230
         H            1.471315403570    -1.478737169544    -0.332598537321     1.007825032230
         H            0.337283403570     1.256876830456     0.475814462679     1.007825032230
         H           -0.800480596430    -1.621128169544     0.508893462679     1.007825032230
         H           -1.070107296430    -0.434653169544     1.820103662679     1.007825032230
         H            4.097009403570    -1.177727169544     0.111804462679     1.007825032230
         H            3.759702403570     0.085498830456     1.304183462679     1.007825032230
         H            4.823728403570     0.426226830456    -0.073039537321     1.007825032230

  Basis Set: AUG-CC-PVTZ
    Blend: AUG-CC-PVTZ
  Basis Set: (AUG-CC-PVTZ AUX)
    Blend: AUG-CC-PVTZ-JKFIT
	 Reference Energy          =    -382.3331461634433595 [Eh]
	 Singles Energy            =      -0.0000000000000000 [Eh]
	 Same-Spin Energy          =      -0.3909019088025860 [Eh]
	 Opposite-Spin Energy      =      -1.2595173449963519 [Eh]
	 Correlation Energy        =      -1.6504192537989379 [Eh]
	 Total Energy              =    -383.9835654172422892 [Eh]

	 ================> DF-SCS-MP2 Energies <==================
	-----------------------------------------------------------
	 SCS Same-Spin Scale       =       0.3333333333333333 [-]
	 SCS Opposite-Spin Scale   =       1.2000000000000000 [-]
	 SCS Same-Spin Energy      =      -0.1303006362675286 [Eh]
	 SCS Opposite-Spin Energy  =      -1.5114208139956222 [Eh]
	 SCS Correlation Energy    =      -1.6417214502631510 [Eh]
	 SCS Total Energy          =    -383.9748676137065218 [Eh]
	-----------------------------------------------------------

  Dipole Moment: [D]
     X:    10.7307      Y:    -1.0173      Z:     1.4541     Total:    10.8765

*** Psi4 exiting successfully. Buy a developer a beer!
