                               Psi4 1.3.2 release

  ==> Input File <==

--------------------------------------------------------------------------
#psi4
#
memory 32 gb

molecule  {
-1 1
  O       -2.9259140    -0.9099280    -0.5693610
  O       -2.5318610     1.2678500    -0.0507790
  C        2.5515340     0.1562790    -0.6847320
  C        1.3133740    -0.4576390    -0.0973370
  C        0.1996320     0.2215300     0.2212070
  C       -1.0388440    -0.3710000     0.8261750
  C        3.7521530     0.0645780     0.2634350
  C       -2.2824504    -0.0177422     0.0036933
  H        2.8053070    -0.3466590    -1.6276820
  H        2.3518550     1.2059430    -0.9306210
  H        1.3523840    -1.5323490     0.0963350
  H        0.1727937     1.2944740     0.0234146
  H       -0.9504340    -1.4608690     0.8884060
  H       -1.1707130     0.0247460     1.8437960
  H        3.9732670    -0.9779260     0.5120620
  H        3.5426510     0.5954950     1.1964510
  H        4.6498360     0.5017940    -0.1852730
units angstrom
no_reorient  #important for SAPT in psi4, default
symmetry c1  #important for SAPT in psi4, default
}

set PROPERTIES_ORIGIN ["COM"]
properties('MP2/aug-cc-pvtz', properties = ['dipole'])
--------------------------------------------------------------------------

    Molecular point group: c1
  Charge       = -1
  Multiplicity = 1
  Basis Set: AUG-CC-PVTZ
    Blend: AUG-CC-PVTZ
  Basis Set: (AUG-CC-PVTZ AUX)
    Blend: AUG-CC-PVTZ-JKFIT

    Orbital Energies [Eh]
    ---------------------

    Doubly Occupied:

       1A    -20.305880     2A    -20.285749     3A    -11.143797
       4A    -11.124173     5A    -11.122020     6A    -11.101040
       7A    -11.096646     8A    -11.071662     9A     -1.167384
      10A     -1.052831    11A     -0.969675    12A     -0.901940
      13A     -0.809520    14A     -0.724578    15A     -0.623552
      16A     -0.535369    17A     -0.514206    18A     -0.501651
      19A     -0.453962    20A     -0.444390    21A     -0.433281
      22A     -0.415507    23A     -0.401913    24A     -0.383473
      25A     -0.371985    26A     -0.347136    27A     -0.322669
      28A     -0.238948    29A     -0.205066    30A     -0.192708
      31A     -0.191073

  @DF-RHF Final Energy:  -382.32897147643189

   => Energetics <=

    Nuclear Repulsion Energy =            338.7699978643482268
    One-Electron Energy =               -1203.2903742154633164
    Two-Electron Energy =                 482.1914048746832577
    Total Energy =                       -382.3289714764318887
  Basis Set: (AUG-CC-PVTZ AUX)
    Blend: AUG-CC-PVTZ-RI
    Molecular point group: c1

    Geometry (in Angstrom), charge = -1, multiplicity = 1:

       Center              X                  Y                   Z               Mass
    ------------   -----------------  -----------------  -----------------  -----------------
         O           -2.780026955879    -0.911486543161    -0.554336401414    15.994914619570
         O           -2.385973955879     1.266291456839    -0.035754401414    15.994914619570
         C            2.697421044121     0.154720456839    -0.669707401414    12.000000000000
         C            1.459261044121    -0.459197543161    -0.082312401414    12.000000000000
         C            0.345519044121     0.219971456839     0.236231598586    12.000000000000
         C           -0.892956955879    -0.372558543161     0.841199598586    12.000000000000
         C            3.898040044121     0.063019456839     0.278459598586    12.000000000000
         C           -2.136563355879    -0.019300743161     0.018717898586    12.000000000000
         H            2.951194044121    -0.348217543161    -1.612657401414     1.007825032230
         H            2.497742044121     1.204384456839    -0.915596401414     1.007825032230
         H            1.498271044121    -1.533907543161     0.111359598586     1.007825032230
         H            0.318680744121     1.292915456839     0.038439198586     1.007825032230
         H           -0.804546955879    -1.462427543161     0.903430598586     1.007825032230
         H           -1.024825955879     0.023187456839     1.858820598586     1.007825032230
         H            4.119154044121    -0.979484543161     0.527086598586     1.007825032230
         H            3.688538044121     0.593936456839     1.211475598586     1.007825032230
         H            4.795723044121     0.500235456839    -0.170248401414     1.007825032230

  Basis Set: AUG-CC-PVTZ
    Blend: AUG-CC-PVTZ
  Basis Set: (AUG-CC-PVTZ AUX)
    Blend: AUG-CC-PVTZ-JKFIT
	 Reference Energy          =    -382.3289714764318887 [Eh]
	 Singles Energy            =      -0.0000000000000000 [Eh]
	 Same-Spin Energy          =      -0.3911633115941553 [Eh]
	 Opposite-Spin Energy      =      -1.2602466366890415 [Eh]
	 Correlation Energy        =      -1.6514099482831968 [Eh]
	 Total Energy              =    -383.9803814247150626 [Eh]

	 ================> DF-SCS-MP2 Energies <==================
	-----------------------------------------------------------
	 SCS Same-Spin Scale       =       0.3333333333333333 [-]
	 SCS Opposite-Spin Scale   =       1.2000000000000000 [-]
	 SCS Same-Spin Energy      =      -0.1303877705313851 [Eh]
	 SCS Opposite-Spin Energy  =      -1.5122959640268496 [Eh]
	 SCS Correlation Energy    =      -1.6426837345582348 [Eh]
	 SCS Total Energy          =    -383.9716552109901500 [Eh]
	-----------------------------------------------------------

  Dipole Moment: [D]
     X:    10.7839      Y:    -1.1336      Z:     1.6245     Total:    10.9643

*** Psi4 exiting successfully. Buy a developer a beer!
