                               Psi4 1.3.2 release

  ==> Input File <==

--------------------------------------------------------------------------
#psi4
#
memory 32 gb

molecule  {
-1 1
  O       -2.9259140    -0.9099280    -0.5693610
  O       -2.4884995     1.2758021    -0.0469284
  C        2.5515340     0.1562790    -0.6847320
  C        1.3133740    -0.4576390    -0.0973370
  C        0.1914414     0.3084806     0.2187975
  C       -1.0388440    -0.3710000     0.8261750
  C        3.7521530     0.0645780     0.2634350
  C       -2.2854840     0.0250790    -0.0044070
  H        2.8053070    -0.3466590    -1.6276820
  H        2.3518550     1.2059430    -0.9306210
  H        1.3523840    -1.5323490     0.0963350
  H        0.1538580     1.2934970     0.0216010
  H       -0.9504340    -1.4608690     0.8884060
  H       -1.1707130     0.0247460     1.8437960
  H        3.9732670    -0.9779260     0.5120620
  H        3.5426510     0.5954950     1.1964510
  H        4.6498360     0.5017940    -0.1852730
units angstrom
no_reorient  #important for SAPT in psi4, default
symmetry c1  #important for SAPT in psi4, default
}

set PROPERTIES_ORIGIN ["COM"]
properties('MP2/aug-cc-pvtz', properties = ['dipole'])
--------------------------------------------------------------------------

    Molecular point group: c1
  Charge       = -1
  Multiplicity = 1
  Basis Set: AUG-CC-PVTZ
    Blend: AUG-CC-PVTZ
  Basis Set: (AUG-CC-PVTZ AUX)
    Blend: AUG-CC-PVTZ-JKFIT

    Orbital Energies [Eh]
    ---------------------

    Doubly Occupied:

       1A    -20.299519     2A    -20.296438     3A    -11.143875
       4A    -11.122225     5A    -11.119222     6A    -11.102765
       7A    -11.101425     8A    -11.069022     9A     -1.165535
      10A     -1.067668    11A     -0.963584    12A     -0.893397
      13A     -0.800755    14A     -0.717786    15A     -0.637621
      16A     -0.530313    17A     -0.515885    18A     -0.498243
      19A     -0.448677    20A     -0.442007    21A     -0.430964
      22A     -0.412909    23A     -0.408498    24A     -0.378246
      25A     -0.372672    26A     -0.361966    27A     -0.318260
      28A     -0.229457    29A     -0.213324    30A     -0.197687
      31A     -0.183096

  @DF-RHF Final Energy:  -382.32091912969906

   => Energetics <=

    Nuclear Repulsion Energy =            338.5150078851619924
    One-Electron Energy =               -1202.7857703072500044
    Two-Electron Energy =                 481.9498432923888913
    Total Energy =                       -382.3209191296990639
  Basis Set: (AUG-CC-PVTZ AUX)
    Blend: AUG-CC-PVTZ-RI
    Molecular point group: c1

    Geometry (in Angstrom), charge = -1, multiplicity = 1:

       Center              X                  Y                   Z               Mass
    ------------   -----------------  -----------------  -----------------  -----------------
         O           -2.784801305805    -0.926376569037    -0.553749498673    15.994914619570
         O           -2.347386805805     1.259353530963    -0.031316898673    15.994914619570
         C            2.692646694195     0.139830430963    -0.669120498673    12.000000000000
         C            1.454486694195    -0.474087569037    -0.081725498673    12.000000000000
         C            0.332554094195     0.292032030963     0.234409001327    12.000000000000
         C           -0.897731305805    -0.387448569037     0.841786501327    12.000000000000
         C            3.893265694195     0.048129430963     0.279046501327    12.000000000000
         C           -2.144371305805     0.008630430963     0.011204501327    12.000000000000
         H            2.946419694195    -0.363107569037    -1.612070498673     1.007825032230
         H            2.492967694195     1.189494430963    -0.915009498673     1.007825032230
         H            1.493496694195    -1.548797569037     0.111946501327     1.007825032230
         H            0.294970694195     1.277048430963     0.037212501327     1.007825032230
         H           -0.809321305805    -1.477317569037     0.904017501327     1.007825032230
         H           -1.029600305805     0.008297430963     1.859407501327     1.007825032230
         H            4.114379694195    -0.994374569037     0.527673501327     1.007825032230
         H            3.683763694195     0.579046430963     1.212062501327     1.007825032230
         H            4.790948694195     0.485345430963    -0.169661498673     1.007825032230

  Basis Set: AUG-CC-PVTZ
    Blend: AUG-CC-PVTZ
  Basis Set: (AUG-CC-PVTZ AUX)
    Blend: AUG-CC-PVTZ-JKFIT
	 Reference Energy          =    -382.3209191296990639 [Eh]
	 Singles Energy            =      -0.0000000000000000 [Eh]
	 Same-Spin Energy          =      -0.3912357439507969 [Eh]
	 Opposite-Spin Energy      =      -1.2608986633820742 [Eh]
	 Correlation Energy        =      -1.6521344073328712 [Eh]
	 Total Energy              =    -383.9730535370319444 [Eh]

	 ================> DF-SCS-MP2 Energies <==================
	-----------------------------------------------------------
	 SCS Same-Spin Scale       =       0.3333333333333333 [-]
	 SCS Opposite-Spin Scale   =       1.2000000000000000 [-]
	 SCS Same-Spin Energy      =      -0.1304119146502656 [Eh]
	 SCS Opposite-Spin Energy  =      -1.5130783960584890 [Eh]
	 SCS Correlation Energy    =      -1.6434903107087546 [Eh]
	 SCS Total Energy          =    -383.9644094404077919 [Eh]
	-----------------------------------------------------------

  Dipole Moment: [D]
     X:    10.5911      Y:    -0.6701      Z:     1.6193     Total:    10.7351

*** Psi4 exiting successfully. Buy a developer a beer!
