                               Psi4 1.3.2 release

  ==> Input File <==

--------------------------------------------------------------------------
#psi4
#
memory 32 gb

molecule  {
-1 1
  O       -2.9259140    -0.9099280    -0.5693610
  O       -2.5318610     1.2678500    -0.0507790
  C        2.5571381     0.1444406    -0.6851460
  C        1.3133740    -0.4576390    -0.0973370
  C        0.1996320     0.2215300     0.2212070
  C       -1.0383116    -0.3928341     0.8293158
  C        3.7521530     0.0645780     0.2634350
  C       -2.2854840     0.0250790    -0.0044070
  H        2.8053070    -0.3466590    -1.6276820
  H        2.3518550     1.2059430    -0.9306210
  H        1.3523840    -1.5323490     0.0963350
  H        0.1538580     1.2934970     0.0216010
  H       -0.9504340    -1.4608690     0.8884060
  H       -1.1707130     0.0247460     1.8437960
  H        3.9732670    -0.9779260     0.5120620
  H        3.5426510     0.5954950     1.1964510
  H        4.6498360     0.5017940    -0.1852730
units angstrom
no_reorient  #important for SAPT in psi4, default
symmetry c1  #important for SAPT in psi4, default
}

set PROPERTIES_ORIGIN ["COM"]
properties('MP2/aug-cc-pvtz', properties = ['dipole'])
--------------------------------------------------------------------------

    Molecular point group: c1
  Charge       = -1
  Multiplicity = 1
  Basis Set: AUG-CC-PVTZ
    Blend: AUG-CC-PVTZ
  Basis Set: (AUG-CC-PVTZ AUX)
    Blend: AUG-CC-PVTZ-JKFIT

    Orbital Energies [Eh]
    ---------------------

    Doubly Occupied:

       1A    -20.297353     2A    -20.296382     3A    -11.144438
       4A    -11.123458     5A    -11.121317     6A    -11.100649
       7A    -11.095110     8A    -11.069040     9A     -1.165291
      10A     -1.064636    11A     -0.968675    12A     -0.900266
      13A     -0.806341    14A     -0.722283    15A     -0.621687
      16A     -0.532740    17A     -0.514557    18A     -0.500067
      19A     -0.451853    20A     -0.443840    21A     -0.432038
      22A     -0.416289    23A     -0.401451    24A     -0.382262
      25A     -0.372834    26A     -0.351181    27A     -0.322953
      28A     -0.237972    29A     -0.211545    30A     -0.195621
      31A     -0.188124

  @DF-RHF Final Energy:  -382.33244822607134

   => Energetics <=

    Nuclear Repulsion Energy =            338.6593970833377512
    One-Electron Energy =               -1203.0791881424499934
    Two-Electron Energy =                 482.0873428330408501
    Total Energy =                       -382.3324482260713353
  Basis Set: (AUG-CC-PVTZ AUX)
    Blend: AUG-CC-PVTZ-RI
    Molecular point group: c1

    Geometry (in Angstrom), charge = -1, multiplicity = 1:

       Center              X                  Y                   Z               Mass
    ------------   -----------------  -----------------  -----------------  -----------------
         O           -2.780187497952    -0.912448859719    -0.553749901837    15.994914619570
         O           -2.386134497952     1.265329140281    -0.035167901837    15.994914619570
         C            2.702864602048     0.141919740281    -0.669534901837    12.000000000000
         C            1.459100502048    -0.460159859719    -0.081725901837    12.000000000000
         C            0.345358502048     0.219009140281     0.236818098163    12.000000000000
         C           -0.892585097952    -0.395354959719     0.844926898163    12.000000000000
         C            3.897879502048     0.062057140281     0.279046098163    12.000000000000
         C           -2.139757497952     0.022558140281     0.011204098163    12.000000000000
         H            2.951033502048    -0.349179859719    -1.612070901837     1.007825032230
         H            2.497581502048     1.203422140281    -0.915009901837     1.007825032230
         H            1.498110502048    -1.534869859719     0.111946098163     1.007825032230
         H            0.299584502048     1.290976140281     0.037212098163     1.007825032230
         H           -0.804707497952    -1.463389859719     0.904017098163     1.007825032230
         H           -1.024986497952     0.022225140281     1.859407098163     1.007825032230
         H            4.118993502048    -0.980446859719     0.527673098163     1.007825032230
         H            3.688377502048     0.592974140281     1.212062098163     1.007825032230
         H            4.795562502048     0.499273140281    -0.169661901837     1.007825032230

  Basis Set: AUG-CC-PVTZ
    Blend: AUG-CC-PVTZ
  Basis Set: (AUG-CC-PVTZ AUX)
    Blend: AUG-CC-PVTZ-JKFIT
	 Reference Energy          =    -382.3324482260713353 [Eh]
	 Singles Energy            =      -0.0000000000000000 [Eh]
	 Same-Spin Energy          =      -0.3908991920517479 [Eh]
	 Opposite-Spin Energy      =      -1.2595149541762445 [Eh]
	 Correlation Energy        =      -1.6504141462279924 [Eh]
	 Total Energy              =    -383.9828623722993370 [Eh]

	 ================> DF-SCS-MP2 Energies <==================
	-----------------------------------------------------------
	 SCS Same-Spin Scale       =       0.3333333333333333 [-]
	 SCS Opposite-Spin Scale   =       1.2000000000000000 [-]
	 SCS Same-Spin Energy      =      -0.1302997306839160 [Eh]
	 SCS Opposite-Spin Energy  =      -1.5114179450114933 [Eh]
	 SCS Correlation Energy    =      -1.6417176756954093 [Eh]
	 SCS Total Energy          =    -383.9741659017667530 [Eh]
	-----------------------------------------------------------

  Dipole Moment: [D]
     X:    10.7031      Y:    -0.7450      Z:     1.6597     Total:    10.8566

*** Psi4 exiting successfully. Buy a developer a beer!
