                               Psi4 1.4a3.dev225

  ==> Input File <==

--------------------------------------------------------------------------
#psi4
#
memory 32 gb

molecule  {
-1 1
  O       -3.0493610    -0.8021490    -0.5876160
  O       -2.4328600     1.2902580     0.0530700
  C        2.5553900     0.3550440    -0.5884220
  C        1.3085550    -0.3848960    -0.2000760
  C        0.2108510     0.1869800     0.3208840
  C       -1.0406500    -0.5396790     0.7060670
  C        3.7725750    -0.0944570     0.2252300
  C       -2.2894080     0.0326700    -0.0161130
  H        2.7644980     0.1992670    -1.6554110
  H        2.3954460     1.4315290    -0.4528260
  H        1.3245080    -1.4678690    -0.3463610
  H        0.1914105     1.2181748     0.4555772
  H       -0.9472880    -1.6102600     0.4951310
  H       -1.2137680    -0.4258540     1.7866990
  H        3.9502020    -1.1668590     0.0980420
  H        3.6128950     0.0963670     1.2904210
  H        4.6769210     0.4370950    -0.0868020
units angstrom
no_reorient  #important for SAPT in psi4, default
symmetry c1  #important for SAPT in psi4, default
}

set PROPERTIES_ORIGIN ["COM"]
properties('MP2/aug-cc-pvtz', properties = ['dipole'])
--------------------------------------------------------------------------

    Molecular point group: c1
  Charge       = -1
  Multiplicity = 1
  Basis Set: AUG-CC-PVTZ
    Blend: AUG-CC-PVTZ
  Basis Set: (AUG-CC-PVTZ AUX)
    Blend: AUG-CC-PVTZ-JKFIT

    Orbital Energies [Eh]
    ---------------------

    Doubly Occupied:

       1A    -20.297789     2A    -20.296179     3A    -11.144323
       4A    -11.123507     5A    -11.120881     6A    -11.094999
       7A    -11.092415     8A    -11.068689     9A     -1.165931
      10A     -1.065423    11A     -0.969252    12A     -0.901663
      13A     -0.806193    14A     -0.722646    15A     -0.628908
      16A     -0.532942    17A     -0.514635    18A     -0.502954
      19A     -0.452941    20A     -0.443113    21A     -0.433061
      22A     -0.414750    23A     -0.403542    24A     -0.382727
      25A     -0.375592    26A     -0.348079    27A     -0.323990
      28A     -0.238606    29A     -0.211794    30A     -0.196275
      31A     -0.187779

  @DF-RHF Final Energy:  -382.33289286577576

   => Energetics <=

    Nuclear Repulsion Energy =            338.9152322223907277
    One-Electron Energy =               -1203.5730951810846818
    Two-Electron Energy =                 482.3249700929181927
    Total Energy =                       -382.3328928657757615
  Basis Set: (AUG-CC-PVTZ AUX)
    Blend: AUG-CC-PVTZ-RI
    Molecular point group: c1

    Geometry (in Angstrom), charge = -1, multiplicity = 1:

       Center              X                  Y                   Z               Mass
    ------------   -----------------  -----------------  -----------------  -----------------
         O           -2.902589976460    -0.812556855010    -0.573620729014    15.994914619570
         O           -2.286088976460     1.279850144990     0.067065270986    15.994914619570
         C            2.702161023540     0.344636144990    -0.574426729014    12.000000000000
         C            1.455326023540    -0.395303855010    -0.186080729014    12.000000000000
         C            0.357622023540     0.176572144990     0.334879270986    12.000000000000
         C           -0.893878976460    -0.550086855010     0.720062270986    12.000000000000
         C            3.919346023540    -0.104864855010     0.239225270986    12.000000000000
         C           -2.142636976460     0.022262144990    -0.002117729014    12.000000000000
         H            2.911269023540     0.188859144990    -1.641415729014     1.007825032230
         H            2.542217023540     1.421121144990    -0.438830729014     1.007825032230
         H            1.471279023540    -1.478276855010    -0.332365729014     1.007825032230
         H            0.338181523540     1.207766944990     0.469572470986     1.007825032230
         H           -0.800516976460    -1.620667855010     0.509126270986     1.007825032230
         H           -1.066996976460    -0.436261855010     1.800694270986     1.007825032230
         H            4.096973023540    -1.177266855010     0.112037270986     1.007825032230
         H            3.759666023540     0.085959144990     1.304416270986     1.007825032230
         H            4.823692023540     0.426687144990    -0.072806729014     1.007825032230

  Basis Set: AUG-CC-PVTZ
    Blend: AUG-CC-PVTZ
  Basis Set: (AUG-CC-PVTZ AUX)
    Blend: AUG-CC-PVTZ-JKFIT
	 Reference Energy          =    -382.3328928657757615 [Eh]
	 Singles Energy            =      -0.0000000000000000 [Eh]
	 Same-Spin Energy          =      -0.3907685053805341 [Eh]
	 Opposite-Spin Energy      =      -1.2590591202355816 [Eh]
	 Correlation Energy        =      -1.6498276256161157 [Eh]
	 Total Energy              =    -383.9827204913918877 [Eh]

	 ================> DF-SCS-MP2 Energies <==================
	-----------------------------------------------------------
	 SCS Same-Spin Scale       =       0.3333333333333333 [-]
	 SCS Opposite-Spin Scale   =       1.2000000000000000 [-]
	 SCS Same-Spin Energy      =      -0.1302561684601780 [Eh]
	 SCS Opposite-Spin Energy  =      -1.5108709442826980 [Eh]
	 SCS Correlation Energy    =      -1.6411271127428759 [Eh]
	 SCS Total Energy          =    -383.9740199785186405 [Eh]
	-----------------------------------------------------------

  Dipole Moment: [D]
     X:    10.7429      Y:    -1.0040      Z:     1.4706     Total:    10.8895

*** Psi4 exiting successfully. Buy a developer a beer!
