                               Psi4 1.4a3.dev225

  ==> Input File <==

--------------------------------------------------------------------------
#psi4
#
memory 32 gb

molecule  {
-1 1
  O       -3.0493610    -0.8021490    -0.5876160
  O       -2.4328600     1.2902580     0.0530700
  C        2.5553900     0.3550440    -0.5884220
  C        1.3085550    -0.3848960    -0.2000760
  C        0.2108510     0.1869800     0.3208840
  C       -1.0406500    -0.5396790     0.7060670
  C        3.7725750    -0.0944570     0.2252300
  C       -2.3091918     0.0314490    -0.0187796
  H        2.7644980     0.1992670    -1.6554110
  H        2.3954460     1.4315290    -0.4528260
  H        1.3245080    -1.4678690    -0.3463610
  H        0.1904760     1.2677450     0.4620520
  H       -0.9472880    -1.6102600     0.4951310
  H       -1.2137680    -0.4258540     1.7866990
  H        3.9502020    -1.1668590     0.0980420
  H        3.6128950     0.0963670     1.2904210
  H        4.6769210     0.4370950    -0.0868020
units angstrom
no_reorient  #important for SAPT in psi4, default
symmetry c1  #important for SAPT in psi4, default
}

set PROPERTIES_ORIGIN ["COM"]
properties('MP2/aug-cc-pvtz', properties = ['dipole'])
--------------------------------------------------------------------------

    Molecular point group: c1
  Charge       = -1
  Multiplicity = 1
  Basis Set: AUG-CC-PVTZ
    Blend: AUG-CC-PVTZ
  Basis Set: (AUG-CC-PVTZ AUX)
    Blend: AUG-CC-PVTZ-JKFIT

    Orbital Energies [Eh]
    ---------------------

    Doubly Occupied:

       1A    -20.300535     2A    -20.295488     3A    -11.144479
       4A    -11.122773     5A    -11.119989     6A    -11.097688
       7A    -11.093537     8A    -11.067489     9A     -1.170813
      10A     -1.071189    11A     -0.967533    12A     -0.898705
      13A     -0.803701    14A     -0.720138    15A     -0.621092
      16A     -0.530686    17A     -0.511913    18A     -0.500742
      19A     -0.451853    20A     -0.441759    21A     -0.433268
      22A     -0.414154    23A     -0.403576    24A     -0.382543
      25A     -0.376028    26A     -0.344625    27A     -0.327227
      28A     -0.238632    29A     -0.214077    30A     -0.198769
      31A     -0.185073

  @DF-RHF Final Energy:  -382.33478537980307

   => Energetics <=

    Nuclear Repulsion Energy =            338.6344015662888296
    One-Electron Energy =               -1203.0382235792108077
    Two-Electron Energy =                 482.0690366331189125
    Total Energy =                       -382.3347853798030656
  Basis Set: (AUG-CC-PVTZ AUX)
    Blend: AUG-CC-PVTZ-RI
    Molecular point group: c1

    Geometry (in Angstrom), charge = -1, multiplicity = 1:

       Center              X                  Y                   Z               Mass
    ------------   -----------------  -----------------  -----------------  -----------------
         O           -2.900481831441    -0.812869131756    -0.573395417877    15.994914619570
         O           -2.283980831441     1.279537868244     0.067290582123    15.994914619570
         C            2.704269168559     0.344323868244    -0.574201417877    12.000000000000
         C            1.457434168559    -0.395616131756    -0.185855417877    12.000000000000
         C            0.359730168559     0.176259868244     0.335104582123    12.000000000000
         C           -0.891770831441    -0.550399131756     0.720287582123    12.000000000000
         C            3.921454168559    -0.105177131756     0.239450582123    12.000000000000
         C           -2.160312631441     0.020728868244    -0.004559017877    12.000000000000
         H            2.913377168559     0.188546868244    -1.641190417877     1.007825032230
         H            2.544325168559     1.420808868244    -0.438605417877     1.007825032230
         H            1.473387168559    -1.478589131756    -0.332140417877     1.007825032230
         H            0.339355168559     1.257024868244     0.476272582123     1.007825032230
         H           -0.798408831441    -1.620980131756     0.509351582123     1.007825032230
         H           -1.064888831441    -0.436574131756     1.800919582123     1.007825032230
         H            4.099081168559    -1.177579131756     0.112262582123     1.007825032230
         H            3.761774168559     0.085646868244     1.304641582123     1.007825032230
         H            4.825800168559     0.426374868244    -0.072581417877     1.007825032230

  Basis Set: AUG-CC-PVTZ
    Blend: AUG-CC-PVTZ
  Basis Set: (AUG-CC-PVTZ AUX)
    Blend: AUG-CC-PVTZ-JKFIT
	 Reference Energy          =    -382.3347853798030656 [Eh]
	 Singles Energy            =      -0.0000000000000000 [Eh]
	 Same-Spin Energy          =      -0.3906704862100933 [Eh]
	 Opposite-Spin Energy      =      -1.2587901252626947 [Eh]
	 Correlation Energy        =      -1.6494606114727879 [Eh]
	 Total Energy              =    -383.9842459912758272 [Eh]

	 ================> DF-SCS-MP2 Energies <==================
	-----------------------------------------------------------
	 SCS Same-Spin Scale       =       0.3333333333333333 [-]
	 SCS Opposite-Spin Scale   =       1.2000000000000000 [-]
	 SCS Same-Spin Energy      =      -0.1302234954033644 [Eh]
	 SCS Opposite-Spin Energy  =      -1.5105481503152336 [Eh]
	 SCS Correlation Energy    =      -1.6407716457185979 [Eh]
	 SCS Total Energy          =    -383.9755570255216526 [Eh]
	-----------------------------------------------------------

  Dipole Moment: [D]
     X:    10.5689      Y:    -1.0512      Z:     1.4040     Total:    10.7134

*** Psi4 exiting successfully. Buy a developer a beer!
