                               Psi4 1.3.2 release

  ==> Input File <==

--------------------------------------------------------------------------
#psi4
#
memory 32 gb

molecule  {
-1 1
  O       -2.9259140    -0.9099280    -0.5693610
  O       -2.5318610     1.2678500    -0.0507790
  C        2.5515340     0.1562790    -0.6847320
  C        1.3133740    -0.4576390    -0.0973370
  C        0.1996320     0.2215300     0.2212070
  C       -1.0388440    -0.3710000     0.8261750
  C        3.7521530     0.0645780     0.2634350
  C       -2.2840617     0.0036601    -0.0003653
  H        2.8053070    -0.3466590    -1.6276820
  H        2.3518550     1.2059430    -0.9306210
  H        1.3523840    -1.5323490     0.0963350
  H        0.1633245     1.2940264     0.0225002
  H       -0.9504340    -1.4608690     0.8884060
  H       -1.1707130     0.0247460     1.8437960
  H        3.9732670    -0.9779260     0.5120620
  H        3.5426510     0.5954950     1.1964510
  H        4.6498360     0.5017940    -0.1852730
units angstrom
no_reorient  #important for SAPT in psi4, default
symmetry c1  #important for SAPT in psi4, default
}

set PROPERTIES_ORIGIN ["COM"]
properties('MP2/aug-cc-pvtz', properties = ['dipole'])
--------------------------------------------------------------------------

    Molecular point group: c1
  Charge       = -1
  Multiplicity = 1
  Basis Set: AUG-CC-PVTZ
    Blend: AUG-CC-PVTZ
  Basis Set: (AUG-CC-PVTZ AUX)
    Blend: AUG-CC-PVTZ-JKFIT

    Orbital Energies [Eh]
    ---------------------

    Doubly Occupied:

       1A    -20.301762     2A    -20.290728     3A    -11.143885
       4A    -11.123944     5A    -11.121723     6A    -11.100589
       7A    -11.096169     8A    -11.070585     9A     -1.164788
      10A     -1.060054    11A     -0.969276    12A     -0.901335
      13A     -0.808188    14A     -0.723546    15A     -0.622942
      16A     -0.534178    17A     -0.514223    18A     -0.501056
      19A     -0.453403    20A     -0.443698    21A     -0.432612
      22A     -0.415099    23A     -0.401691    24A     -0.383169
      25A     -0.372631    26A     -0.347837    27A     -0.322876
      28A     -0.238635    29A     -0.208239    30A     -0.193747
      31A     -0.191027

  @DF-RHF Final Energy:  -382.33161002879353

   => Energetics <=

    Nuclear Repulsion Energy =            338.7989380900440892
    One-Electron Energy =               -1203.3538335778439432
    Two-Electron Energy =                 482.2232854590063198
    Total Energy =                       -382.3316100287935342
  Basis Set: (AUG-CC-PVTZ AUX)
    Blend: AUG-CC-PVTZ-RI
    Molecular point group: c1

    Geometry (in Angstrom), charge = -1, multiplicity = 1:

       Center              X                  Y                   Z               Mass
    ------------   -----------------  -----------------  -----------------  -----------------
         O           -2.779771526623    -0.913754152575    -0.553897478333    15.994914619570
         O           -2.385718526623     1.264023847425    -0.035315478333    15.994914619570
         C            2.697676473377     0.152452847425    -0.669268478333    12.000000000000
         C            1.459516473377    -0.461465152575    -0.081873478333    12.000000000000
         C            0.345774473377     0.217703847425     0.236670521667    12.000000000000
         C           -0.892701526623    -0.374826152575     0.841638521667    12.000000000000
         C            3.898295473377     0.060751847425     0.278898521667    12.000000000000
         C           -2.137919226623    -0.000166052575     0.015098221667    12.000000000000
         H            2.951449473377    -0.350485152575    -1.612218478333     1.007825032230
         H            2.497997473377     1.202116847425    -0.915157478333     1.007825032230
         H            1.498526473377    -1.536175152575     0.111798521667     1.007825032230
         H            0.309466973377     1.290200247425     0.037963721667     1.007825032230
         H           -0.804291526623    -1.464695152575     0.903869521667     1.007825032230
         H           -1.024570526623     0.020919847425     1.859259521667     1.007825032230
         H            4.119409473377    -0.981752152575     0.527525521667     1.007825032230
         H            3.688793473377     0.591668847425     1.211914521667     1.007825032230
         H            4.795978473377     0.497967847425    -0.169809478333     1.007825032230

  Basis Set: AUG-CC-PVTZ
    Blend: AUG-CC-PVTZ
  Basis Set: (AUG-CC-PVTZ AUX)
    Blend: AUG-CC-PVTZ-JKFIT
	 Reference Energy          =    -382.3316100287935342 [Eh]
	 Singles Energy            =      -0.0000000000000000 [Eh]
	 Same-Spin Energy          =      -0.3910472874838212 [Eh]
	 Opposite-Spin Energy      =      -1.2598963561963314 [Eh]
	 Correlation Energy        =      -1.6509436436801526 [Eh]
	 Total Energy              =    -383.9825536724736708 [Eh]

	 ================> DF-SCS-MP2 Energies <==================
	-----------------------------------------------------------
	 SCS Same-Spin Scale       =       0.3333333333333333 [-]
	 SCS Opposite-Spin Scale   =       1.2000000000000000 [-]
	 SCS Same-Spin Energy      =      -0.1303490958279404 [Eh]
	 SCS Opposite-Spin Energy  =      -1.5118756274355978 [Eh]
	 SCS Correlation Energy    =      -1.6422247232635381 [Eh]
	 SCS Total Energy          =    -383.9738347520570869 [Eh]
	-----------------------------------------------------------

  Dipole Moment: [D]
     X:    10.7478      Y:    -0.9251      Z:     1.6435     Total:    10.9120

*** Psi4 exiting successfully. Buy a developer a beer!
