                               Psi4 1.3.2 release

  ==> Input File <==

--------------------------------------------------------------------------
#psi4
#
memory 32 gb

molecule  {
-1 1
  O       -2.9259140    -0.9099280    -0.5693610
  O       -2.5318610     1.2678500    -0.0507790
  C        2.5515340     0.1562790    -0.6847320
  C        1.3133740    -0.4576390    -0.0973370
  C        0.1996320     0.2215300     0.2212070
  C       -1.0388440    -0.3710000     0.8261750
  C        3.7521530     0.0645780     0.2634350
  C       -2.2854840     0.0250790    -0.0044070
  H        2.8053070    -0.3466590    -1.6276820
  H        2.3518550     1.2059430    -0.9306210
  H        1.3523840    -1.5323490     0.0963350
  H        0.1538580     1.2934970     0.0216010
  H       -0.9504340    -1.4608690     0.8884060
  H       -1.1587227    -0.0112375     1.7512681
  H        3.9732670    -0.9779260     0.5120620
  H        3.5426510     0.5954950     1.1964510
  H        4.6498360     0.5017940    -0.1852730
units angstrom
no_reorient  #important for SAPT in psi4, default
symmetry c1  #important for SAPT in psi4, default
}

set PROPERTIES_ORIGIN ["COM"]
properties('MP2/aug-cc-pvtz', properties = ['dipole'])
--------------------------------------------------------------------------

    Molecular point group: c1
  Charge       = -1
  Multiplicity = 1
  Basis Set: AUG-CC-PVTZ
    Blend: AUG-CC-PVTZ
  Basis Set: (AUG-CC-PVTZ AUX)
    Blend: AUG-CC-PVTZ-JKFIT

    Orbital Energies [Eh]
    ---------------------

    Doubly Occupied:

       1A    -20.296813     2A    -20.295897     3A    -11.143002
       4A    -11.123425     5A    -11.121001     6A    -11.099374
       7A    -11.095000     8A    -11.056598     9A     -1.165142
      10A     -1.064258    11A     -0.968690    12A     -0.902766
      13A     -0.812133    14A     -0.724766    15A     -0.622429
      16A     -0.534076    17A     -0.515506    18A     -0.502877
      19A     -0.457290    20A     -0.446711    21A     -0.436155
      22A     -0.414519    23A     -0.400904    24A     -0.382810
      25A     -0.373611    26A     -0.348953    27A     -0.325668
      28A     -0.238359    29A     -0.210900    30A     -0.195165
      31A     -0.188488

  @DF-RHF Final Energy:  -382.32751435578382

   => Energetics <=

    Nuclear Repulsion Energy =            339.3515391514672501
    One-Electron Energy =               -1204.4315357468121874
    Two-Electron Energy =                 482.7524822395611181
    Total Energy =                       -382.3275143557838192
  Basis Set: (AUG-CC-PVTZ AUX)
    Blend: AUG-CC-PVTZ-RI
    Molecular point group: c1

    Geometry (in Angstrom), charge = -1, multiplicity = 1:

       Center              X                  Y                   Z               Mass
    ------------   -----------------  -----------------  -----------------  -----------------
         O           -2.779643063696    -0.915702035908    -0.552635685932    15.994914619570
         O           -2.385590063696     1.262075964092    -0.034053685932    15.994914619570
         C            2.697804936304     0.150504964092    -0.668006685932    12.000000000000
         C            1.459644936304    -0.463413035908    -0.080611685932    12.000000000000
         C            0.345902936304     0.215755964092     0.237932314068    12.000000000000
         C           -0.892573063696    -0.376774035908     0.842900314068    12.000000000000
         C            3.898423936304     0.058803964092     0.280160314068    12.000000000000
         C           -2.139213063696     0.019304964092     0.012318314068    12.000000000000
         H            2.951577936304    -0.352433035908    -1.610956685932     1.007825032230
         H            2.498125936304     1.200168964092    -0.913895685932     1.007825032230
         H            1.498654936304    -1.538123035908     0.113060314068     1.007825032230
         H            0.300128936304     1.287722964092     0.038326314068     1.007825032230
         H           -0.804163063696    -1.466643035908     0.905131314068     1.007825032230
         H           -1.012451763696    -0.017011535908     1.767993414068     1.007825032230
         H            4.119537936304    -0.983700035908     0.528787314068     1.007825032230
         H            3.688921936304     0.589720964092     1.213176314068     1.007825032230
         H            4.796106936304     0.496019964092    -0.168547685932     1.007825032230

  Basis Set: AUG-CC-PVTZ
    Blend: AUG-CC-PVTZ
  Basis Set: (AUG-CC-PVTZ AUX)
    Blend: AUG-CC-PVTZ-JKFIT
	 Reference Energy          =    -382.3275143557838192 [Eh]
	 Singles Energy            =      -0.0000000000000000 [Eh]
	 Same-Spin Energy          =      -0.3909440222760658 [Eh]
	 Opposite-Spin Energy      =      -1.2591280768466708 [Eh]
	 Correlation Energy        =      -1.6500720991227367 [Eh]
	 Total Energy              =    -383.9775864549065432 [Eh]

	 ================> DF-SCS-MP2 Energies <==================
	-----------------------------------------------------------
	 SCS Same-Spin Scale       =       0.3333333333333333 [-]
	 SCS Opposite-Spin Scale   =       1.2000000000000000 [-]
	 SCS Same-Spin Energy      =      -0.1303146740920219 [Eh]
	 SCS Opposite-Spin Energy  =      -1.5109536922160050 [Eh]
	 SCS Correlation Energy    =      -1.6412683663080267 [Eh]
	 SCS Total Energy          =    -383.9687827220918734 [Eh]
	-----------------------------------------------------------

  Dipole Moment: [D]
     X:    10.6944      Y:    -0.7085      Z:     1.7217     Total:    10.8552

*** Psi4 exiting successfully. Buy a developer a beer!
