                               Psi4 1.3.2 release

  ==> Input File <==

--------------------------------------------------------------------------
#psi4
#
memory 32 gb

molecule  {
-1 1
  O       -2.9259140    -0.9099280    -0.5693610
  O       -2.5318610     1.2678500    -0.0507790
  C        2.5733803     0.1086540    -0.6861194
  C        1.3133740    -0.4576390    -0.0973370
  C        0.1996320     0.2215300     0.2212070
  C       -1.0356401    -0.4583593     0.8383139
  C        3.7521530     0.0645780     0.2634350
  C       -2.2854840     0.0250790    -0.0044070
  H        2.8053070    -0.3466590    -1.6276820
  H        2.3518550     1.2059430    -0.9306210
  H        1.3523840    -1.5323490     0.0963350
  H        0.1538580     1.2934970     0.0216010
  H       -0.9504340    -1.4608690     0.8884060
  H       -1.1707130     0.0247460     1.8437960
  H        3.9732670    -0.9779260     0.5120620
  H        3.5426510     0.5954950     1.1964510
  H        4.6498360     0.5017940    -0.1852730
units angstrom
no_reorient  #important for SAPT in psi4, default
symmetry c1  #important for SAPT in psi4, default
}

set PROPERTIES_ORIGIN ["COM"]
properties('MP2/aug-cc-pvtz', properties = ['dipole'])
--------------------------------------------------------------------------

    Molecular point group: c1
  Charge       = -1
  Multiplicity = 1
  Basis Set: AUG-CC-PVTZ
    Blend: AUG-CC-PVTZ
  Basis Set: (AUG-CC-PVTZ AUX)
    Blend: AUG-CC-PVTZ-JKFIT

    Orbital Energies [Eh]
    ---------------------

    Doubly Occupied:

       1A    -20.298565     2A    -20.296693     3A    -11.146633
       4A    -11.122857     5A    -11.121297     6A    -11.102454
       7A    -11.093558     8A    -11.068415     9A     -1.165102
      10A     -1.065020    11A     -0.968396    12A     -0.899144
      13A     -0.805174    14A     -0.722302    15A     -0.620720
      16A     -0.532890    17A     -0.516172    18A     -0.498538
      19A     -0.453372    20A     -0.444265    21A     -0.428917
      22A     -0.420048    23A     -0.402890    24A     -0.383793
      25A     -0.370451    26A     -0.351392    27A     -0.319595
      28A     -0.237356    29A     -0.213274    30A     -0.196401
      31A     -0.184996

  @DF-RHF Final Energy:  -382.32103378919442

   => Energetics <=

    Nuclear Repulsion Energy =            338.1198508328402568
    One-Electron Energy =               -1201.9804098831070860
    Two-Electron Energy =                 481.5395252610724128
    Total Energy =                       -382.3210337891944164
  Basis Set: (AUG-CC-PVTZ AUX)
    Blend: AUG-CC-PVTZ-RI
    Molecular point group: c1

    Geometry (in Angstrom), charge = -1, multiplicity = 1:

       Center              X                  Y                   Z               Mass
    ------------   -----------------  -----------------  -----------------  -----------------
         O           -2.782194962033    -0.901695818298    -0.554601628205    15.994914619570
         O           -2.388141962033     1.276082181702    -0.036019628205    15.994914619570
         C            2.717099337967     0.116886181702    -0.671360028205    12.000000000000
         C            1.457093037967    -0.449406818298    -0.082577628205    12.000000000000
         C            0.343351037967     0.229762181702     0.235966371795    12.000000000000
         C           -0.891921062033    -0.450127118298     0.853073271795    12.000000000000
         C            3.895872037967     0.072810181702     0.278194371795    12.000000000000
         C           -2.141764962033     0.033311181702     0.010352371795    12.000000000000
         H            2.949026037967    -0.338426818298    -1.612922628205     1.007825032230
         H            2.495574037967     1.214175181702    -0.915861628205     1.007825032230
         H            1.496103037967    -1.524116818298     0.111094371795     1.007825032230
         H            0.297577037967     1.301729181702     0.036360371795     1.007825032230
         H           -0.806714962033    -1.452636818298     0.903165371795     1.007825032230
         H           -1.026993962033     0.032978181702     1.858555371795     1.007825032230
         H            4.116986037967    -0.969693818298     0.526821371795     1.007825032230
         H            3.686370037967     0.603727181702     1.211210371795     1.007825032230
         H            4.793555037967     0.510026181702    -0.170513628205     1.007825032230

  Basis Set: AUG-CC-PVTZ
    Blend: AUG-CC-PVTZ
  Basis Set: (AUG-CC-PVTZ AUX)
    Blend: AUG-CC-PVTZ-JKFIT
	 Reference Energy          =    -382.3210337891944164 [Eh]
	 Singles Energy            =      -0.0000000000000000 [Eh]
	 Same-Spin Energy          =      -0.3909889930545766 [Eh]
	 Opposite-Spin Energy      =      -1.2598956909113701 [Eh]
	 Correlation Energy        =      -1.6508846839659466 [Eh]
	 Total Energy              =    -383.9719184731603718 [Eh]

	 ================> DF-SCS-MP2 Energies <==================
	-----------------------------------------------------------
	 SCS Same-Spin Scale       =       0.3333333333333333 [-]
	 SCS Opposite-Spin Scale   =       1.2000000000000000 [-]
	 SCS Same-Spin Energy      =      -0.1303296643515255 [Eh]
	 SCS Opposite-Spin Energy  =      -1.5118748290936441 [Eh]
	 SCS Correlation Energy    =      -1.6422044934451696 [Eh]
	 SCS Total Energy          =    -383.9632382826395656 [Eh]
	-----------------------------------------------------------

  Dipole Moment: [D]
     X:    10.6614      Y:    -0.8222      Z:     1.6404     Total:    10.8182

*** Psi4 exiting successfully. Buy a developer a beer!
