                               Psi4 1.3.2 release

  ==> Input File <==

--------------------------------------------------------------------------
#psi4
#
memory 32 gb

molecule  {
-1 1
  O       -2.9259140    -0.9099280    -0.5693610
  O       -2.5318610     1.2678500    -0.0507790
  C        2.5515340     0.1562790    -0.6847320
  C        1.3127446    -0.4659248    -0.1074698
  C        0.1996320     0.2215300     0.2212070
  C       -1.0388440    -0.3710000     0.8261750
  C        3.7521530     0.0645780     0.2634350
  C       -2.2854840     0.0250790    -0.0044070
  H        2.7976944    -0.3523874    -1.6266267
  H        2.3518550     1.2059430    -0.9306210
  H        1.3523840    -1.5323490     0.0963350
  H        0.1538580     1.2934970     0.0216010
  H       -0.9504340    -1.4608690     0.8884060
  H       -1.1707130     0.0247460     1.8437960
  H        3.9732670    -0.9779260     0.5120620
  H        3.5426510     0.5954950     1.1964510
  H        4.6498360     0.5017940    -0.1852730
units angstrom
no_reorient  #important for SAPT in psi4, default
symmetry c1  #important for SAPT in psi4, default
}

set PROPERTIES_ORIGIN ["COM"]
properties('MP2/aug-cc-pvtz', properties = ['dipole'])
--------------------------------------------------------------------------

    Molecular point group: c1
  Charge       = -1
  Multiplicity = 1
  Basis Set: AUG-CC-PVTZ
    Blend: AUG-CC-PVTZ
  Basis Set: (AUG-CC-PVTZ AUX)
    Blend: AUG-CC-PVTZ-JKFIT

    Orbital Energies [Eh]
    ---------------------

    Doubly Occupied:

       1A    -20.297621     2A    -20.295787     3A    -11.143879
       4A    -11.123858     5A    -11.121326     6A    -11.101005
       7A    -11.095808     8A    -11.069453     9A     -1.165444
      10A     -1.064611    11A     -0.968325    12A     -0.900096
      13A     -0.806924    14A     -0.721927    15A     -0.623388
      16A     -0.532848    17A     -0.514314    18A     -0.499924
      19A     -0.453121    20A     -0.443449    21A     -0.432723
      22A     -0.415150    23A     -0.401363    24A     -0.382266
      25A     -0.374138    26A     -0.349095    27A     -0.323812
      28A     -0.237365    29A     -0.210972    30A     -0.195441
      31A     -0.188282

  @DF-RHF Final Energy:  -382.33262050084613

   => Energetics <=

    Nuclear Repulsion Energy =            338.7640998813358806
    One-Electron Energy =               -1203.2860056719680415
    Two-Electron Energy =                 482.1892852897860848
    Total Energy =                       -382.3326205008461329
  Basis Set: (AUG-CC-PVTZ AUX)
    Blend: AUG-CC-PVTZ-RI
    Molecular point group: c1

    Geometry (in Angstrom), charge = -1, multiplicity = 1:

       Center              X                  Y                   Z               Mass
    ------------   -----------------  -----------------  -----------------  -----------------
         O           -2.779401519102    -0.915092292429    -0.552394415394    15.994914619570
         O           -2.385348519102     1.262685707571    -0.033812415394    15.994914619570
         C            2.698046480898     0.151114707571    -0.667765415394    12.000000000000
         C            1.459257080898    -0.471089092429    -0.090503215394    12.000000000000
         C            0.346144480898     0.216365707571     0.238173584606    12.000000000000
         C           -0.892331519102    -0.376164292429     0.843141584606    12.000000000000
         C            3.898665480898     0.059413707571     0.280401584606    12.000000000000
         C           -2.138971519102     0.019914707571     0.012559584606    12.000000000000
         H            2.944206880898    -0.357551692429    -1.609660115394     1.007825032230
         H            2.498367480898     1.200778707571    -0.913654415394     1.007825032230
         H            1.498896480898    -1.537513292429     0.113301584606     1.007825032230
         H            0.300370480898     1.288332707571     0.038567584606     1.007825032230
         H           -0.803921519102    -1.466033292429     0.905372584606     1.007825032230
         H           -1.024200519102     0.019581707571     1.860762584606     1.007825032230
         H            4.119779480898    -0.983090292429     0.529028584606     1.007825032230
         H            3.689163480898     0.590330707571     1.213417584606     1.007825032230
         H            4.796348480898     0.496629707571    -0.168306415394     1.007825032230

  Basis Set: AUG-CC-PVTZ
    Blend: AUG-CC-PVTZ
  Basis Set: (AUG-CC-PVTZ AUX)
    Blend: AUG-CC-PVTZ-JKFIT
	 Reference Energy          =    -382.3326205008461329 [Eh]
	 Singles Energy            =      -0.0000000000000000 [Eh]
	 Same-Spin Energy          =      -0.3909976131420239 [Eh]
	 Opposite-Spin Energy      =      -1.2597157063045068 [Eh]
	 Correlation Energy        =      -1.6507133194465307 [Eh]
	 Total Energy              =    -383.9833338202926711 [Eh]

	 ================> DF-SCS-MP2 Energies <==================
	-----------------------------------------------------------
	 SCS Same-Spin Scale       =       0.3333333333333333 [-]
	 SCS Opposite-Spin Scale   =       1.2000000000000000 [-]
	 SCS Same-Spin Energy      =      -0.1303325377140080 [Eh]
	 SCS Opposite-Spin Energy  =      -1.5116588475654080 [Eh]
	 SCS Correlation Energy    =      -1.6419913852794159 [Eh]
	 SCS Total Energy          =    -383.9746118861255582 [Eh]
	-----------------------------------------------------------

  Dipole Moment: [D]
     X:    10.7151      Y:    -0.7200      Z:     1.6735     Total:    10.8689

*** Psi4 exiting successfully. Buy a developer a beer!
