                               Psi4 1.3.2 release

  ==> Input File <==

--------------------------------------------------------------------------
#psi4
#
memory 32 gb

molecule  {
-1 1
  O       -2.9259140    -0.9099280    -0.5693610
  O       -2.5318610     1.2678500    -0.0507790
  C        2.5515340     0.1562790    -0.6847320
  C        1.3133740    -0.4576390    -0.0973370
  C        0.1996320     0.2215300     0.2212070
  C       -1.0388440    -0.3710000     0.8261750
  C        3.7521530     0.0645780     0.2634350
  C       -2.2854840     0.0250790    -0.0044070
  H        2.8053070    -0.3466590    -1.6276820
  H        2.3518550     1.2059430    -0.9306210
  H        1.3523840    -1.5323490     0.0963350
  H        0.1622465     1.0970496     0.0581806
  H       -0.9504340    -1.4608690     0.8884060
  H       -1.1707130     0.0247460     1.8437960
  H        3.9732670    -0.9779260     0.5120620
  H        3.5426510     0.5954950     1.1964510
  H        4.6498360     0.5017940    -0.1852730
units angstrom
no_reorient  #important for SAPT in psi4, default
symmetry c1  #important for SAPT in psi4, default
}

set PROPERTIES_ORIGIN ["COM"]
properties('MP2/aug-cc-pvtz', properties = ['dipole'])
--------------------------------------------------------------------------

    Molecular point group: c1
  Charge       = -1
  Multiplicity = 1
  Basis Set: AUG-CC-PVTZ
    Blend: AUG-CC-PVTZ
  Basis Set: (AUG-CC-PVTZ AUX)
    Blend: AUG-CC-PVTZ-JKFIT

    Orbital Energies [Eh]
    ---------------------

    Doubly Occupied:

       1A    -20.297205     2A    -20.295866     3A    -11.143399
       4A    -11.124138     5A    -11.121989     6A    -11.095249
       7A    -11.076241     8A    -11.067370     9A     -1.165240
      10A     -1.064410    11A     -0.972922    12A     -0.907234
      13A     -0.806231    14A     -0.727575    15A     -0.653578
      16A     -0.535440    17A     -0.520732    18A     -0.504333
      19A     -0.452560    20A     -0.445002    21A     -0.432288
      22A     -0.415348    23A     -0.408887    24A     -0.382935
      25A     -0.373339    26A     -0.358144    27A     -0.323375
      28A     -0.237635    29A     -0.210713    30A     -0.195409
      31A     -0.188483

  @DF-RHF Final Energy:  -382.29921105250980

   => Energetics <=

    Nuclear Repulsion Energy =            339.8646935749788440
    One-Electron Energy =               -1205.3212649465515369
    Two-Electron Energy =                 483.1573603190628319
    Total Energy =                       -382.2992110525098042
  Basis Set: (AUG-CC-PVTZ AUX)
    Blend: AUG-CC-PVTZ-RI
    Molecular point group: c1

    Geometry (in Angstrom), charge = -1, multiplicity = 1:

       Center              X                  Y                   Z               Mass
    ------------   -----------------  -----------------  -----------------  -----------------
         O           -2.779610957062    -0.914271652296    -0.553786556951    15.994914619570
         O           -2.385557957062     1.263506347704    -0.035204556951    15.994914619570
         C            2.697837042938     0.151935347704    -0.669157556951    12.000000000000
         C            1.459677042938    -0.461982652296    -0.081762556951    12.000000000000
         C            0.345935042938     0.217186347704     0.236781443049    12.000000000000
         C           -0.892540957062    -0.375343652296     0.841749443049    12.000000000000
         C            3.898456042938     0.060234347704     0.279009443049    12.000000000000
         C           -2.139180957062     0.020735347704     0.011167443049    12.000000000000
         H            2.951610042938    -0.351002652296    -1.612107556951     1.007825032230
         H            2.498158042938     1.201599347704    -0.915046556951     1.007825032230
         H            1.498687042938    -1.536692652296     0.111909443049     1.007825032230
         H            0.308549542938     1.092705947704     0.073755043049     1.007825032230
         H           -0.804130957062    -1.465212652296     0.903980443049     1.007825032230
         H           -1.024409957062     0.020402347704     1.859370443049     1.007825032230
         H            4.119570042938    -0.982269652296     0.527636443049     1.007825032230
         H            3.688954042938     0.591151347704     1.212025443049     1.007825032230
         H            4.796139042938     0.497450347704    -0.169698556951     1.007825032230

  Basis Set: AUG-CC-PVTZ
    Blend: AUG-CC-PVTZ
  Basis Set: (AUG-CC-PVTZ AUX)
    Blend: AUG-CC-PVTZ-JKFIT
	 Reference Energy          =    -382.2992110525098042 [Eh]
	 Singles Energy            =      -0.0000000000000000 [Eh]
	 Same-Spin Energy          =      -0.3905624806967877 [Eh]
	 Opposite-Spin Energy      =      -1.2589340087030421 [Eh]
	 Correlation Energy        =      -1.6494964893998298 [Eh]
	 Total Energy              =    -383.9487075419096413 [Eh]

	 ================> DF-SCS-MP2 Energies <==================
	-----------------------------------------------------------
	 SCS Same-Spin Scale       =       0.3333333333333333 [-]
	 SCS Opposite-Spin Scale   =       1.2000000000000000 [-]
	 SCS Same-Spin Energy      =      -0.1301874935655959 [Eh]
	 SCS Opposite-Spin Energy  =      -1.5107208104436505 [Eh]
	 SCS Correlation Energy    =      -1.6409083040092463 [Eh]
	 SCS Total Energy          =    -383.9401193565190624 [Eh]
	-----------------------------------------------------------

  Dipole Moment: [D]
     X:    10.7856      Y:    -0.6746      Z:     1.6473     Total:    10.9315

*** Psi4 exiting successfully. Buy a developer a beer!
