                               Psi4 1.3.2 release

  ==> Input File <==

--------------------------------------------------------------------------
#psi4
#
memory 32 gb

molecule  {
-1 1
  O       -2.9259140    -0.9099280    -0.5693610
  O       -2.5318610     1.2678500    -0.0507790
  C        2.5515340     0.1562790    -0.6847320
  C        1.3133740    -0.4576390    -0.0973370
  C        0.1996320     0.2215300     0.2212070
  C       -1.0344395    -0.4578355     0.8413228
  C        3.7521530     0.0645780     0.2634350
  C       -2.2854840     0.0250790    -0.0044070
  H        2.8053070    -0.3466590    -1.6276820
  H        2.3518550     1.2059430    -0.9306210
  H        1.3168865    -1.5304692     0.1101603
  H        0.1538580     1.2934970     0.0216010
  H       -0.9504340    -1.4608690     0.8884060
  H       -1.1707130     0.0247460     1.8437960
  H        3.9732670    -0.9779260     0.5120620
  H        3.5426510     0.5954950     1.1964510
  H        4.6498360     0.5017940    -0.1852730
units angstrom
no_reorient  #important for SAPT in psi4, default
symmetry c1  #important for SAPT in psi4, default
}

set PROPERTIES_ORIGIN ["COM"]
properties('MP2/aug-cc-pvtz', properties = ['dipole'])
--------------------------------------------------------------------------

    Molecular point group: c1
  Charge       = -1
  Multiplicity = 1
  Basis Set: AUG-CC-PVTZ
    Blend: AUG-CC-PVTZ
  Basis Set: (AUG-CC-PVTZ AUX)
    Blend: AUG-CC-PVTZ-JKFIT

    Orbital Energies [Eh]
    ---------------------

    Doubly Occupied:

       1A    -20.298414     2A    -20.296583     3A    -11.146528
       4A    -11.123050     5A    -11.121025     6A    -11.100726
       7A    -11.092871     8A    -11.067718     9A     -1.164871
      10A     -1.064844    11A     -0.967120    12A     -0.897254
      13A     -0.804588    14A     -0.722380    15A     -0.621465
      16A     -0.531555    17A     -0.514945    18A     -0.497920
      19A     -0.454020    20A     -0.441504    21A     -0.427956
      22A     -0.413242    23A     -0.403145    24A     -0.382600
      25A     -0.378619    26A     -0.357251    27A     -0.319362
      28A     -0.236271    29A     -0.213104    30A     -0.196280
      31A     -0.184002

  @DF-RHF Final Energy:  -382.32405735362062

   => Energetics <=

    Nuclear Repulsion Energy =            338.1250143330859714
    One-Electron Energy =               -1202.0157234813802916
    Two-Electron Energy =                 481.5666517946736462
    Total Energy =                       -382.3240573536206171
  Basis Set: (AUG-CC-PVTZ AUX)
    Blend: AUG-CC-PVTZ-RI
    Molecular point group: c1

    Geometry (in Angstrom), charge = -1, multiplicity = 1:

       Center              X                  Y                   Z               Mass
    ------------   -----------------  -----------------  -----------------  -----------------
         O           -2.779687240197    -0.906822996827    -0.555191482559    15.994914619570
         O           -2.385634240197     1.270955003173    -0.036609482559    15.994914619570
         C            2.697760759803     0.159384003173    -0.670562482559    12.000000000000
         C            1.459600759803    -0.454533996827    -0.083167482559    12.000000000000
         C            0.345858759803     0.224635003173     0.235376517441    12.000000000000
         C           -0.888212740197    -0.454730496827     0.855492317441    12.000000000000
         C            3.898379759803     0.067683003173     0.277604517441    12.000000000000
         C           -2.139257240197     0.028184003173     0.009762517441    12.000000000000
         H            2.951533759803    -0.343553996827    -1.613512482559     1.007825032230
         H            2.498081759803     1.209048003173    -0.916451482559     1.007825032230
         H            1.463113259803    -1.527364196827     0.124329817441     1.007825032230
         H            0.300084759803     1.296602003173     0.035770517441     1.007825032230
         H           -0.804207240197    -1.457763996827     0.902575517441     1.007825032230
         H           -1.024486240197     0.027851003173     1.857965517441     1.007825032230
         H            4.119493759803    -0.974820996827     0.526231517441     1.007825032230
         H            3.688877759803     0.598600003173     1.210620517441     1.007825032230
         H            4.796062759803     0.504899003173    -0.171103482559     1.007825032230

  Basis Set: AUG-CC-PVTZ
    Blend: AUG-CC-PVTZ
  Basis Set: (AUG-CC-PVTZ AUX)
    Blend: AUG-CC-PVTZ-JKFIT
	 Reference Energy          =    -382.3240573536206171 [Eh]
	 Singles Energy            =      -0.0000000000000000 [Eh]
	 Same-Spin Energy          =      -0.3908697627033977 [Eh]
	 Opposite-Spin Energy      =      -1.2595845324253223 [Eh]
	 Correlation Energy        =      -1.6504542951287200 [Eh]
	 Total Energy              =    -383.9745116487493419 [Eh]

	 ================> DF-SCS-MP2 Energies <==================
	-----------------------------------------------------------
	 SCS Same-Spin Scale       =       0.3333333333333333 [-]
	 SCS Opposite-Spin Scale   =       1.2000000000000000 [-]
	 SCS Same-Spin Energy      =      -0.1302899209011326 [Eh]
	 SCS Opposite-Spin Energy  =      -1.5115014389103867 [Eh]
	 SCS Correlation Energy    =      -1.6417913598115192 [Eh]
	 SCS Total Energy          =    -383.9658487134321376 [Eh]
	-----------------------------------------------------------

  Dipole Moment: [D]
     X:    10.6433      Y:    -0.7678      Z:     1.6410     Total:    10.7964

*** Psi4 exiting successfully. Buy a developer a beer!
