                               Psi4 1.3.2 release

  ==> Input File <==

--------------------------------------------------------------------------
#psi4
#
memory 32 gb

molecule  {
-1 1
  O       -2.9259140    -0.9099280    -0.5693610
  O       -2.5318610     1.2678500    -0.0507790
  C        2.5515340     0.1562790    -0.6847320
  C        1.3149156    -0.4409277    -0.0772064
  C        0.1996320     0.2215300     0.2212070
  C       -1.0388440    -0.3710000     0.8261750
  C        3.7521530     0.0645780     0.2634350
  C       -2.2854840     0.0250790    -0.0044070
  H        2.8204735    -0.3350876    -1.6295772
  H        2.3518550     1.2059430    -0.9306210
  H        1.3523840    -1.5323490     0.0963350
  H        0.1538580     1.2934970     0.0216010
  H       -0.9504340    -1.4608690     0.8884060
  H       -1.1707130     0.0247460     1.8437960
  H        3.9732670    -0.9779260     0.5120620
  H        3.5426510     0.5954950     1.1964510
  H        4.6498360     0.5017940    -0.1852730
units angstrom
no_reorient  #important for SAPT in psi4, default
symmetry c1  #important for SAPT in psi4, default
}

set PROPERTIES_ORIGIN ["COM"]
properties('MP2/aug-cc-pvtz', properties = ['dipole'])
--------------------------------------------------------------------------

    Molecular point group: c1
  Charge       = -1
  Multiplicity = 1
  Basis Set: AUG-CC-PVTZ
    Blend: AUG-CC-PVTZ
  Basis Set: (AUG-CC-PVTZ AUX)
    Blend: AUG-CC-PVTZ-JKFIT

    Orbital Energies [Eh]
    ---------------------

    Doubly Occupied:

       1A    -20.297741     2A    -20.295845     3A    -11.143978
       4A    -11.123398     5A    -11.121613     6A    -11.098636
       7A    -11.095488     8A    -11.069670     9A     -1.165548
      10A     -1.064710    11A     -0.969957    12A     -0.901967
      13A     -0.806871    14A     -0.723662    15A     -0.620237
      16A     -0.533967    17A     -0.514169    18A     -0.501657
      19A     -0.452563    20A     -0.442263    21A     -0.433120
      22A     -0.414340    23A     -0.401555    24A     -0.384604
      25A     -0.371791    26A     -0.346942    27A     -0.324142
      28A     -0.239816    29A     -0.211054    30A     -0.195512
      31A     -0.190437

  @DF-RHF Final Energy:  -382.33295586474702

   => Energetics <=

    Nuclear Repulsion Energy =            338.9780463000922168
    One-Electron Energy =               -1203.7075033780688500
    Two-Electron Energy =                 482.3965012132295556
    Total Energy =                       -382.3329558647470208
  Basis Set: (AUG-CC-PVTZ AUX)
    Blend: AUG-CC-PVTZ-RI
    Molecular point group: c1

    Geometry (in Angstrom), charge = -1, multiplicity = 1:

       Center              X                  Y                   Z               Mass
    ------------   -----------------  -----------------  -----------------  -----------------
         O           -2.779834998996    -0.917899648319    -0.555580214097    15.994914619570
         O           -2.385781998996     1.259878351681    -0.036998214097    15.994914619570
         C            2.697613001004     0.148307351681    -0.670951214097    12.000000000000
         C            1.460994601004    -0.448899348319    -0.063425614097    12.000000000000
         C            0.345711001004     0.213558351681     0.234987785903    12.000000000000
         C           -0.892764998996    -0.378971648319     0.839955785903    12.000000000000
         C            3.898232001004     0.056606351681     0.277215785903    12.000000000000
         C           -2.139404998996     0.017107351681     0.009373785903    12.000000000000
         H            2.966552501004    -0.343059248319    -1.615796414097     1.007825032230
         H            2.497934001004     1.197971351681    -0.916840214097     1.007825032230
         H            1.498463001004    -1.540320648319     0.110115785903     1.007825032230
         H            0.299937001004     1.285525351681     0.035381785903     1.007825032230
         H           -0.804354998996    -1.468840648319     0.902186785903     1.007825032230
         H           -1.024633998996     0.016774351681     1.857576785903     1.007825032230
         H            4.119346001004    -0.985897648319     0.525842785903     1.007825032230
         H            3.688730001004     0.587523351681     1.210231785903     1.007825032230
         H            4.795915001004     0.493822351681    -0.171492214097     1.007825032230

  Basis Set: AUG-CC-PVTZ
    Blend: AUG-CC-PVTZ
  Basis Set: (AUG-CC-PVTZ AUX)
    Blend: AUG-CC-PVTZ-JKFIT
	 Reference Energy          =    -382.3329558647470208 [Eh]
	 Singles Energy            =      -0.0000000000000000 [Eh]
	 Same-Spin Energy          =      -0.3908664649538987 [Eh]
	 Opposite-Spin Energy      =      -1.2593752361166994 [Eh]
	 Correlation Energy        =      -1.6502417010705981 [Eh]
	 Total Energy              =    -383.9831975658175907 [Eh]

	 ================> DF-SCS-MP2 Energies <==================
	-----------------------------------------------------------
	 SCS Same-Spin Scale       =       0.3333333333333333 [-]
	 SCS Opposite-Spin Scale   =       1.2000000000000000 [-]
	 SCS Same-Spin Energy      =      -0.1302888216512995 [Eh]
	 SCS Opposite-Spin Energy  =      -1.5112502833400392 [Eh]
	 SCS Correlation Energy    =      -1.6415391049913388 [Eh]
	 SCS Total Energy          =    -383.9744949697383731 [Eh]
	-----------------------------------------------------------

  Dipole Moment: [D]
     X:    10.7031      Y:    -0.7020      Z:     1.6434     Total:    10.8512

*** Psi4 exiting successfully. Buy a developer a beer!
