                               Psi4 1.3.2 release

  ==> Input File <==

--------------------------------------------------------------------------
#psi4
#
memory 32 gb

molecule  {
-1 1
  O       -2.9259140    -0.9099280    -0.5693610
  O       -2.5318610     1.2678500    -0.0507790
  C        2.5515340     0.1562790    -0.6847320
  C        1.3133740    -0.4576390    -0.0973370
  C        0.1996320     0.2215300     0.2212070
  C       -0.9562955    -0.3315059     0.7858519
  C        3.7521530     0.0645780     0.2634350
  C       -2.2854840     0.0250790    -0.0044070
  H        2.8053070    -0.3466590    -1.6276820
  H        2.3518550     1.2059430    -0.9306210
  H        1.3523840    -1.5323490     0.0963350
  H        0.1538580     1.2934970     0.0216010
  H       -0.9504340    -1.4608690     0.8884060
  H       -1.1707130     0.0247460     1.8437960
  H        3.9732670    -0.9779260     0.5120620
  H        3.5426510     0.5954950     1.1964510
  H        4.6498360     0.5017940    -0.1852730
units angstrom
no_reorient  #important for SAPT in psi4, default
symmetry c1  #important for SAPT in psi4, default
}

set PROPERTIES_ORIGIN ["COM"]
properties('MP2/aug-cc-pvtz', properties = ['dipole'])
--------------------------------------------------------------------------

    Molecular point group: c1
  Charge       = -1
  Multiplicity = 1
  Basis Set: AUG-CC-PVTZ
    Blend: AUG-CC-PVTZ
  Basis Set: (AUG-CC-PVTZ AUX)
    Blend: AUG-CC-PVTZ-JKFIT

    Orbital Energies [Eh]
    ---------------------

    Doubly Occupied:

       1A    -20.301378     2A    -20.297245     3A    -11.148451
       4A    -11.123142     5A    -11.120610     6A    -11.095317
       7A    -11.093670     8A    -11.070539     9A     -1.166571
      10A     -1.066461    11A     -0.972727    12A     -0.911476
      13A     -0.806301    14A     -0.717987    15A     -0.623575
      16A     -0.535094    17A     -0.514219    18A     -0.500784
      19A     -0.461656    20A     -0.442383    21A     -0.429215
      22A     -0.414810    23A     -0.399873    24A     -0.383767
      25A     -0.370538    26A     -0.345300    27A     -0.329828
      28A     -0.241188    29A     -0.211711    30A     -0.197261
      31A     -0.180854

  @DF-RHF Final Energy:  -382.32156400372475

   => Energetics <=

    Nuclear Repulsion Energy =            339.6128878950936496
    One-Electron Energy =               -1204.9210403782847152
    Two-Electron Energy =                 482.9865884794663202
    Total Energy =                       -382.3215640037247454
  Basis Set: (AUG-CC-PVTZ AUX)
    Blend: AUG-CC-PVTZ-RI
    Molecular point group: c1

    Geometry (in Angstrom), charge = -1, multiplicity = 1:

       Center              X                  Y                   Z               Mass
    ------------   -----------------  -----------------  -----------------  -----------------
         O           -2.788297722042    -0.920214623237    -0.549180667475    15.994914619570
         O           -2.394244722042     1.257563376763    -0.030598667475    15.994914619570
         C            2.689150277958     0.145992376763    -0.664551667475    12.000000000000
         C            1.450990277958    -0.467925623237    -0.077156667475    12.000000000000
         C            0.337248277958     0.211243376763     0.241387332525    12.000000000000
         C           -0.818679222042    -0.341792523237     0.806032232525    12.000000000000
         C            3.889769277958     0.054291376763     0.283615332525    12.000000000000
         C           -2.147867722042     0.014792376763     0.015773332525    12.000000000000
         H            2.942923277958    -0.356945623237    -1.607501667475     1.007825032230
         H            2.489471277958     1.195656376763    -0.910440667475     1.007825032230
         H            1.490000277958    -1.542635623237     0.116515332525     1.007825032230
         H            0.291474277958     1.283210376763     0.041781332525     1.007825032230
         H           -0.812817722042    -1.471155623237     0.908586332525     1.007825032230
         H           -1.033096722042     0.014459376763     1.863976332525     1.007825032230
         H            4.110883277958    -0.988212623237     0.532242332525     1.007825032230
         H            3.680267277958     0.585208376763     1.216631332525     1.007825032230
         H            4.787452277958     0.491507376763    -0.165092667475     1.007825032230

  Basis Set: AUG-CC-PVTZ
    Blend: AUG-CC-PVTZ
  Basis Set: (AUG-CC-PVTZ AUX)
    Blend: AUG-CC-PVTZ-JKFIT
	 Reference Energy          =    -382.3215640037247454 [Eh]
	 Singles Energy            =      -0.0000000000000000 [Eh]
	 Same-Spin Energy          =      -0.3924100487665668 [Eh]
	 Opposite-Spin Energy      =      -1.2612130045647343 [Eh]
	 Correlation Energy        =      -1.6536230533313012 [Eh]
	 Total Energy              =    -383.9751870570560186 [Eh]

	 ================> DF-SCS-MP2 Energies <==================
	-----------------------------------------------------------
	 SCS Same-Spin Scale       =       0.3333333333333333 [-]
	 SCS Opposite-Spin Scale   =       1.2000000000000000 [-]
	 SCS Same-Spin Energy      =      -0.1308033495888556 [Eh]
	 SCS Opposite-Spin Energy  =      -1.5134556054776811 [Eh]
	 SCS Correlation Energy    =      -1.6442589550665367 [Eh]
	 SCS Total Energy          =    -383.9658229587913070 [Eh]
	-----------------------------------------------------------

  Dipole Moment: [D]
     X:    10.5314      Y:    -0.6489      Z:     1.5715     Total:    10.6677

*** Psi4 exiting successfully. Buy a developer a beer!
