                               Psi4 1.3.2 release

  ==> Input File <==

--------------------------------------------------------------------------
#psi4
#
memory 32 gb

molecule  {
-1 1
  O       -2.9259140    -0.9099280    -0.5693610
  O       -2.5318610     1.2678500    -0.0507790
  C        2.5515340     0.1562790    -0.6847320
  C        1.3133740    -0.4576390    -0.0973370
  C        0.1996320     0.2215300     0.2212070
  C       -1.1213925    -0.4104941     0.8664981
  C        3.7521530     0.0645780     0.2634350
  C       -2.2854840     0.0250790    -0.0044070
  H        2.8053070    -0.3466590    -1.6276820
  H        2.3518550     1.2059430    -0.9306210
  H        1.3523840    -1.5323490     0.0963350
  H        0.1538580     1.2934970     0.0216010
  H       -0.9504340    -1.4608690     0.8884060
  H       -1.1707130     0.0247460     1.8437960
  H        3.9732670    -0.9779260     0.5120620
  H        3.5426510     0.5954950     1.1964510
  H        4.6498360     0.5017940    -0.1852730
units angstrom
no_reorient  #important for SAPT in psi4, default
symmetry c1  #important for SAPT in psi4, default
}

set PROPERTIES_ORIGIN ["COM"]
properties('MP2/aug-cc-pvtz', properties = ['dipole'])
--------------------------------------------------------------------------

    Molecular point group: c1
  Charge       = -1
  Multiplicity = 1
  Basis Set: AUG-CC-PVTZ
    Blend: AUG-CC-PVTZ
  Basis Set: (AUG-CC-PVTZ AUX)
    Blend: AUG-CC-PVTZ-JKFIT

    Orbital Energies [Eh]
    ---------------------

    Doubly Occupied:

       1A    -20.295235     2A    -20.295082     3A    -11.141233
       4A    -11.123933     5A    -11.121777     6A    -11.103656
       7A    -11.096404     8A    -11.070494     9A     -1.165355
      10A     -1.063814    11A     -0.966665    12A     -0.892209
      13A     -0.808299    14A     -0.725761    15A     -0.620804
      16A     -0.536084    17A     -0.513769    18A     -0.500147
      19A     -0.448599    20A     -0.444807    21A     -0.435230
      22A     -0.414601    23A     -0.403927    24A     -0.383599
      25A     -0.375827    26A     -0.349380    27A     -0.309636
      28A     -0.235275    29A     -0.210907    30A     -0.194942
      31A     -0.194286

  @DF-RHF Final Energy:  -382.32573272148977

   => Energetics <=

    Nuclear Repulsion Energy =            338.1203861602788834
    One-Electron Energy =               -1202.0087606901831805
    Two-Electron Energy =                 481.5626418084144689
    Total Energy =                       -382.3257327214897714
  Basis Set: (AUG-CC-PVTZ AUX)
    Blend: AUG-CC-PVTZ-RI
    Molecular point group: c1

    Geometry (in Angstrom), charge = -1, multiplicity = 1:

       Center              X                  Y                   Z               Mass
    ------------   -----------------  -----------------  -----------------  -----------------
         O           -2.770774641025    -0.911830966187    -0.557740301486    15.994914619570
         O           -2.376721641025     1.265947033813    -0.039158301486    15.994914619570
         C            2.706673358975     0.154376033813    -0.673111301486    12.000000000000
         C            1.468513358975    -0.459541966187    -0.085716301486    12.000000000000
         C            0.354771358975     0.219627033813     0.232827698514    12.000000000000
         C           -0.966253141025    -0.412397066187     0.878118798514    12.000000000000
         C            3.907292358975     0.062675033813     0.275055698514    12.000000000000
         C           -2.130344641025     0.023176033813     0.007213698514    12.000000000000
         H            2.960446358975    -0.348561966187    -1.616061301486     1.007825032230
         H            2.506994358975     1.204040033813    -0.919000301486     1.007825032230
         H            1.507523358975    -1.534251966187     0.107955698514     1.007825032230
         H            0.308997358975     1.291594033813     0.033221698514     1.007825032230
         H           -0.795294641025    -1.462771966187     0.900026698514     1.007825032230
         H           -1.015573641025     0.022843033813     1.855416698514     1.007825032230
         H            4.128406358975    -0.979828966187     0.523682698514     1.007825032230
         H            3.697790358975     0.593592033813     1.208071698514     1.007825032230
         H            4.804975358975     0.499891033813    -0.173652301486     1.007825032230

  Basis Set: AUG-CC-PVTZ
    Blend: AUG-CC-PVTZ
  Basis Set: (AUG-CC-PVTZ AUX)
    Blend: AUG-CC-PVTZ-JKFIT
	 Reference Energy          =    -382.3257327214897714 [Eh]
	 Singles Energy            =      -0.0000000000000000 [Eh]
	 Same-Spin Energy          =      -0.3904453402500801 [Eh]
	 Opposite-Spin Energy      =      -1.2595197375157368 [Eh]
	 Correlation Energy        =      -1.6499650777658168 [Eh]
	 Total Energy              =    -383.9756977992556131 [Eh]

	 ================> DF-SCS-MP2 Energies <==================
	-----------------------------------------------------------
	 SCS Same-Spin Scale       =       0.3333333333333333 [-]
	 SCS Opposite-Spin Scale   =       1.2000000000000000 [-]
	 SCS Same-Spin Energy      =      -0.1301484467500267 [Eh]
	 SCS Opposite-Spin Energy  =      -1.5114236850188840 [Eh]
	 SCS Correlation Energy    =      -1.6415721317689107 [Eh]
	 SCS Total Energy          =    -383.9673048532586677 [Eh]
	-----------------------------------------------------------

  Dipole Moment: [D]
     X:    10.8033      Y:    -0.7696      Z:     1.7425     Total:    10.9699

*** Psi4 exiting successfully. Buy a developer a beer!
