                               Psi4 1.3.2 release

  ==> Input File <==

--------------------------------------------------------------------------
#psi4
#
memory 32 gb

molecule  {
-1 1
  O       -2.9259140    -0.9099280    -0.5693610
  O       -2.5318610     1.2678500    -0.0507790
  C        2.5515340     0.1562790    -0.6847320
  C        1.3200851    -0.4606603    -0.0864946
  C        0.1996320     0.2215300     0.2212070
  C       -1.0388440    -0.3710000     0.8261750
  C        3.7444853     0.0583434     0.2724470
  C       -2.2854840     0.0250790    -0.0044070
  H        2.8053070    -0.3466590    -1.6276820
  H        2.3518550     1.2059430    -0.9306210
  H        1.3523840    -1.5323490     0.0963350
  H        0.1538580     1.2934970     0.0216010
  H       -0.9504340    -1.4608690     0.8884060
  H       -1.1707130     0.0247460     1.8437960
  H        3.9732670    -0.9779260     0.5120620
  H        3.5426510     0.5954950     1.1964510
  H        4.6498360     0.5017940    -0.1852730
units angstrom
no_reorient  #important for SAPT in psi4, default
symmetry c1  #important for SAPT in psi4, default
}

set PROPERTIES_ORIGIN ["COM"]
properties('MP2/aug-cc-pvtz', properties = ['dipole'])
--------------------------------------------------------------------------

    Molecular point group: c1
  Charge       = -1
  Multiplicity = 1
  Basis Set: AUG-CC-PVTZ
    Blend: AUG-CC-PVTZ
  Basis Set: (AUG-CC-PVTZ AUX)
    Blend: AUG-CC-PVTZ-JKFIT

    Orbital Energies [Eh]
    ---------------------

    Doubly Occupied:

       1A    -20.297672     2A    -20.295833     3A    -11.143910
       4A    -11.123459     5A    -11.121419     6A    -11.100769
       7A    -11.095650     8A    -11.069435     9A     -1.165494
      10A     -1.064662    11A     -0.968752    12A     -0.900175
      13A     -0.806405    14A     -0.722045    15A     -0.623432
      16A     -0.533219    17A     -0.515503    18A     -0.499061
      19A     -0.453605    20A     -0.441153    21A     -0.432891
      22A     -0.415925    23A     -0.401162    24A     -0.383323
      25A     -0.373944    26A     -0.348900    27A     -0.323877
      28A     -0.237184    29A     -0.211017    30A     -0.195488
      31A     -0.188658

  @DF-RHF Final Energy:  -382.33252309938428

   => Energetics <=

    Nuclear Repulsion Energy =            338.8432232457323607
    One-Electron Energy =               -1203.4434488292611150
    Two-Electron Energy =                 482.2677024841444791
    Total Energy =                       -382.3325230993842752
  Basis Set: (AUG-CC-PVTZ AUX)
    Blend: AUG-CC-PVTZ-RI
    Molecular point group: c1

    Geometry (in Angstrom), charge = -1, multiplicity = 1:

       Center              X                  Y                   Z               Mass
    ------------   -----------------  -----------------  -----------------  -----------------
         O           -2.779434649832    -0.915040391121    -0.555567792667    15.994914619570
         O           -2.385381649832     1.262737608879    -0.036985792667    15.994914619570
         C            2.698013350168     0.151166608879    -0.670938792667    12.000000000000
         C            1.466564450168    -0.465772691121    -0.072701392667    12.000000000000
         C            0.346111350168     0.216417608879     0.235000207333    12.000000000000
         C           -0.892364649832    -0.376112391121     0.839968207333    12.000000000000
         C            3.890964650168     0.053231008879     0.286240207333    12.000000000000
         C           -2.139004649832     0.019966608879     0.009386207333    12.000000000000
         H            2.951786350168    -0.351771391121    -1.613888792667     1.007825032230
         H            2.498334350168     1.200830608879    -0.916827792667     1.007825032230
         H            1.498863350168    -1.537461391121     0.110128207333     1.007825032230
         H            0.300337350168     1.288384608879     0.035394207333     1.007825032230
         H           -0.803954649832    -1.465981391121     0.902199207333     1.007825032230
         H           -1.024233649832     0.019633608879     1.857589207333     1.007825032230
         H            4.119746350168    -0.983038391121     0.525855207333     1.007825032230
         H            3.689130350168     0.590382608879     1.210244207333     1.007825032230
         H            4.796315350168     0.496681608879    -0.171479792667     1.007825032230

  Basis Set: AUG-CC-PVTZ
    Blend: AUG-CC-PVTZ
  Basis Set: (AUG-CC-PVTZ AUX)
    Blend: AUG-CC-PVTZ-JKFIT
	 Reference Energy          =    -382.3325230993842752 [Eh]
	 Singles Energy            =      -0.0000000000000000 [Eh]
	 Same-Spin Energy          =      -0.3909951440346036 [Eh]
	 Opposite-Spin Energy      =      -1.2597101580635073 [Eh]
	 Correlation Energy        =      -1.6507053020981108 [Eh]
	 Total Energy              =    -383.9832284014823927 [Eh]

	 ================> DF-SCS-MP2 Energies <==================
	-----------------------------------------------------------
	 SCS Same-Spin Scale       =       0.3333333333333333 [-]
	 SCS Opposite-Spin Scale   =       1.2000000000000000 [-]
	 SCS Same-Spin Energy      =      -0.1303317146782012 [Eh]
	 SCS Opposite-Spin Energy  =      -1.5116521896762087 [Eh]
	 SCS Correlation Energy    =      -1.6419839043544100 [Eh]
	 SCS Total Energy          =    -383.9745070037386654 [Eh]
	-----------------------------------------------------------

  Dipole Moment: [D]
     X:    10.6979      Y:    -0.7296      Z:     1.6615     Total:    10.8507

*** Psi4 exiting successfully. Buy a developer a beer!
