                               Psi4 1.3.2 release

  ==> Input File <==

--------------------------------------------------------------------------
#psi4
#
memory 32 gb

molecule  {
-1 1
  O       -2.9259140    -0.9099280    -0.5693610
  O       -2.5318610     1.2678500    -0.0507790
  C        2.5515340     0.1562790    -0.6847320
  C        1.3133740    -0.4576390    -0.0973370
  C        0.1996320     0.2215300     0.2212070
  C       -1.0609314    -0.3235285     0.8251871
  C        3.7521530     0.0645780     0.2634350
  C       -2.2854840     0.0250790    -0.0044070
  H        2.8053070    -0.3466590    -1.6276820
  H        2.3518550     1.2059430    -0.9306210
  H        1.3523840    -1.5323490     0.0963350
  H        0.1183605     1.2938771     0.0354174
  H       -0.9504340    -1.4608690     0.8884060
  H       -1.1707130     0.0247460     1.8437960
  H        3.9732670    -0.9779260     0.5120620
  H        3.5426510     0.5954950     1.1964510
  H        4.6498360     0.5017940    -0.1852730
units angstrom
no_reorient  #important for SAPT in psi4, default
symmetry c1  #important for SAPT in psi4, default
}

set PROPERTIES_ORIGIN ["COM"]
properties('MP2/aug-cc-pvtz', properties = ['dipole'])
--------------------------------------------------------------------------

    Molecular point group: c1
  Charge       = -1
  Multiplicity = 1
  Basis Set: AUG-CC-PVTZ
    Blend: AUG-CC-PVTZ
  Basis Set: (AUG-CC-PVTZ AUX)
    Blend: AUG-CC-PVTZ-JKFIT

    Orbital Energies [Eh]
    ---------------------

    Doubly Occupied:

       1A    -20.297896     2A    -20.294609     3A    -11.141967
       4A    -11.124223     5A    -11.122198     6A    -11.100867
       7A    -11.097886     8A    -11.071024     9A     -1.166342
      10A     -1.064807    11A     -0.969171    12A     -0.901119
      13A     -0.808982    14A     -0.723828    15A     -0.622995
      16A     -0.536167    17A     -0.514770    18A     -0.502615
      19A     -0.454811    20A     -0.442396    21A     -0.435795
      22A     -0.415971    23A     -0.401613    24A     -0.384292
      25A     -0.371611    26A     -0.337345    27A     -0.322871
      28A     -0.238544    29A     -0.209639    30A     -0.195077
      31A     -0.193455

  @DF-RHF Final Energy:  -382.32929809130962

   => Energetics <=

    Nuclear Repulsion Energy =            339.1536557008304271
    One-Electron Energy =               -1204.0361348825522327
    Two-Electron Energy =                 482.5531810904121812
    Total Energy =                       -382.3292980913096244
  Basis Set: (AUG-CC-PVTZ AUX)
    Blend: AUG-CC-PVTZ-RI
    Molecular point group: c1

    Geometry (in Angstrom), charge = -1, multiplicity = 1:

       Center              X                  Y                   Z               Mass
    ------------   -----------------  -----------------  -----------------  -----------------
         O           -2.776875440406    -0.921064717505    -0.553478790770    15.994914619570
         O           -2.382822440406     1.256713282495    -0.034896790770    15.994914619570
         C            2.700572559594     0.145142282495    -0.668849790770    12.000000000000
         C            1.462412559594    -0.468775717505    -0.081454790770    12.000000000000
         C            0.348670559594     0.210393282495     0.237089209230    12.000000000000
         C           -0.911892840406    -0.334665217505     0.841069309230    12.000000000000
         C            3.901191559594     0.053441282495     0.279317209230    12.000000000000
         C           -2.136445440406     0.013942282495     0.011475209230    12.000000000000
         H            2.954345559594    -0.357795717505    -1.611799790770     1.007825032230
         H            2.500893559594     1.194806282495    -0.914738790770     1.007825032230
         H            1.501422559594    -1.543485717505     0.112217209230     1.007825032230
         H            0.267399059594     1.282740382495     0.051299609230     1.007825032230
         H           -0.801395440406    -1.472005717505     0.904288209230     1.007825032230
         H           -1.021674440406     0.013609282495     1.859678209230     1.007825032230
         H            4.122305559594    -0.989062717505     0.527944209230     1.007825032230
         H            3.691689559594     0.584358282495     1.212333209230     1.007825032230
         H            4.798874559594     0.490657282495    -0.169390790770     1.007825032230

  Basis Set: AUG-CC-PVTZ
    Blend: AUG-CC-PVTZ
  Basis Set: (AUG-CC-PVTZ AUX)
    Blend: AUG-CC-PVTZ-JKFIT
	 Reference Energy          =    -382.3292980913096244 [Eh]
	 Singles Energy            =      -0.0000000000000000 [Eh]
	 Same-Spin Energy          =      -0.3910512677917828 [Eh]
	 Opposite-Spin Energy      =      -1.2600111301868580 [Eh]
	 Correlation Energy        =      -1.6510623979786407 [Eh]
	 Total Energy              =    -383.9803604892882731 [Eh]

	 ================> DF-SCS-MP2 Energies <==================
	-----------------------------------------------------------
	 SCS Same-Spin Scale       =       0.3333333333333333 [-]
	 SCS Opposite-Spin Scale   =       1.2000000000000000 [-]
	 SCS Same-Spin Energy      =      -0.1303504225972609 [Eh]
	 SCS Opposite-Spin Energy  =      -1.5120133562242295 [Eh]
	 SCS Correlation Energy    =      -1.6423637788214904 [Eh]
	 SCS Total Energy          =    -383.9716618701311290 [Eh]
	-----------------------------------------------------------

  Dipole Moment: [D]
     X:    10.7608      Y:    -0.6600      Z:     1.6811     Total:    10.9113

*** Psi4 exiting successfully. Buy a developer a beer!
