                               Psi4 1.3.2 release

  ==> Input File <==

--------------------------------------------------------------------------
#psi4
#
memory 32 gb

molecule  {
-1 1
  O       -2.9259140    -0.9099280    -0.5693610
  O       -2.5318610     1.2678500    -0.0507790
  C        2.5515340     0.1562790    -0.6847320
  C        1.3133740    -0.4576390    -0.0973370
  C        0.1996320     0.2215300     0.2212070
  C       -1.0315645    -0.3764594     0.8355887
  C        3.7521530     0.0645780     0.2634350
  C       -2.2847459     0.0375415    -0.0223309
  H        2.8053070    -0.3466590    -1.6276820
  H        2.3518550     1.2059430    -0.9306210
  H        1.3523840    -1.5323490     0.0963350
  H        0.1538580     1.2934970     0.0216010
  H       -0.9504340    -1.4608690     0.8884060
  H       -1.1707130     0.0247460     1.8437960
  H        3.9732670    -0.9779260     0.5120620
  H        3.5426510     0.5954950     1.1964510
  H        4.6498360     0.5017940    -0.1852730
units angstrom
no_reorient  #important for SAPT in psi4, default
symmetry c1  #important for SAPT in psi4, default
}

set PROPERTIES_ORIGIN ["COM"]
properties('MP2/aug-cc-pvtz', properties = ['dipole'])
--------------------------------------------------------------------------

    Molecular point group: c1
  Charge       = -1
  Multiplicity = 1
  Basis Set: AUG-CC-PVTZ
    Blend: AUG-CC-PVTZ
  Basis Set: (AUG-CC-PVTZ AUX)
    Blend: AUG-CC-PVTZ-JKFIT

    Orbital Energies [Eh]
    ---------------------

    Doubly Occupied:

       1A    -20.298879     2A    -20.296715     3A    -11.144738
       4A    -11.123158     5A    -11.120650     6A    -11.099090
       7A    -11.094265     8A    -11.067362     9A     -1.169061
      10A     -1.068757    11A     -0.967977    12A     -0.899461
      13A     -0.804467    14A     -0.720614    15A     -0.621130
      16A     -0.530432    17A     -0.513827    18A     -0.499876
      19A     -0.452013    20A     -0.442748    21A     -0.433407
      22A     -0.414156    23A     -0.401709    24A     -0.382368
      25A     -0.374821    26A     -0.350268    27A     -0.326906
      28A     -0.237816    29A     -0.213675    30A     -0.197581
      31A     -0.184850

  @DF-RHF Final Energy:  -382.33354985416116

   => Energetics <=

    Nuclear Repulsion Energy =            338.7599300798561899
    One-Electron Energy =               -1203.2814061846011100
    Two-Electron Energy =                 482.1879262505837573
    Total Energy =                       -382.3335498541611628
  Basis Set: (AUG-CC-PVTZ AUX)
    Blend: AUG-CC-PVTZ-RI
    Molecular point group: c1

    Geometry (in Angstrom), charge = -1, multiplicity = 1:

       Center              X                  Y                   Z               Mass
    ------------   -----------------  -----------------  -----------------  -----------------
         O           -2.780387154321    -0.916766090403    -0.552557228067    15.994914619570
         O           -2.386334154321     1.261011909597    -0.033975228067    15.994914619570
         C            2.697060845679     0.149440909597    -0.667928228067    12.000000000000
         C            1.458900845679    -0.464477090403    -0.080533228067    12.000000000000
         C            0.345158845679     0.214691909597     0.238010771933    12.000000000000
         C           -0.886037654321    -0.383297490403     0.852392471933    12.000000000000
         C            3.897679845679     0.057739909597     0.280238771933    12.000000000000
         C           -2.139219054321     0.030703409597    -0.005527128067    12.000000000000
         H            2.950833845679    -0.353497090403    -1.610878228067     1.007825032230
         H            2.497381845679     1.199104909597    -0.913817228067     1.007825032230
         H            1.497910845679    -1.539187090403     0.113138771933     1.007825032230
         H            0.299384845679     1.286658909597     0.038404771933     1.007825032230
         H           -0.804907154321    -1.467707090403     0.905209771933     1.007825032230
         H           -1.025186154321     0.017907909597     1.860599771933     1.007825032230
         H            4.118793845679    -0.984764090403     0.528865771933     1.007825032230
         H            3.688177845679     0.588656909597     1.213254771933     1.007825032230
         H            4.795362845679     0.494955909597    -0.168469228067     1.007825032230

  Basis Set: AUG-CC-PVTZ
    Blend: AUG-CC-PVTZ
  Basis Set: (AUG-CC-PVTZ AUX)
    Blend: AUG-CC-PVTZ-JKFIT
	 Reference Energy          =    -382.3335498541611628 [Eh]
	 Singles Energy            =      -0.0000000000000000 [Eh]
	 Same-Spin Energy          =      -0.3908244511321796 [Eh]
	 Opposite-Spin Energy      =      -1.2591814137998250 [Eh]
	 Correlation Energy        =      -1.6500058649320044 [Eh]
	 Total Energy              =    -383.9835557190931468 [Eh]

	 ================> DF-SCS-MP2 Energies <==================
	-----------------------------------------------------------
	 SCS Same-Spin Scale       =       0.3333333333333333 [-]
	 SCS Opposite-Spin Scale   =       1.2000000000000000 [-]
	 SCS Same-Spin Energy      =      -0.1302748170440599 [Eh]
	 SCS Opposite-Spin Energy  =      -1.5110176965597899 [Eh]
	 SCS Correlation Energy    =      -1.6412925136038496 [Eh]
	 SCS Total Energy          =    -383.9748423677650067 [Eh]
	-----------------------------------------------------------

  Dipole Moment: [D]
     X:    10.6007      Y:    -0.6093      Z:     1.6442     Total:    10.7447

*** Psi4 exiting successfully. Buy a developer a beer!
