                               Psi4 1.4a3.dev225

  ==> Input File <==

--------------------------------------------------------------------------
#psi4
#
memory 32 gb

molecule  {
-1 1
  O       -3.0493610    -0.8021490    -0.5876160
  O       -2.4328600     1.2902580     0.0530700
  C        2.5553900     0.3550440    -0.5884220
  C        1.3085550    -0.3848960    -0.2000760
  C        0.2108510     0.1869800     0.3208840
  C       -1.0406500    -0.5396790     0.7060670
  C        3.7725750    -0.0944570     0.2252300
  C       -2.2871447     0.0128285    -0.0172045
  H        2.7644980     0.1992670    -1.6554110
  H        2.3954460     1.4315290    -0.4528260
  H        1.3245080    -1.4678690    -0.3463610
  H        0.1904760     1.2677450     0.4620520
  H       -0.9472880    -1.6102600     0.4951310
  H       -1.2137680    -0.4258540     1.7866990
  H        3.9502020    -1.1668590     0.0980420
  H        3.6128950     0.0963670     1.2904210
  H        4.6769210     0.4370950    -0.0868020
units angstrom
no_reorient  #important for SAPT in psi4, default
symmetry c1  #important for SAPT in psi4, default
}

set PROPERTIES_ORIGIN ["COM"]
properties('MP2/aug-cc-pvtz', properties = ['dipole'])
--------------------------------------------------------------------------

    Molecular point group: c1
  Charge       = -1
  Multiplicity = 1
  Basis Set: AUG-CC-PVTZ
    Blend: AUG-CC-PVTZ
  Basis Set: (AUG-CC-PVTZ AUX)
    Blend: AUG-CC-PVTZ-JKFIT

    Orbital Energies [Eh]
    ---------------------

    Doubly Occupied:

       1A    -20.301710     2A    -20.291474     3A    -11.144437
       4A    -11.123591     5A    -11.120964     6A    -11.099135
       7A    -11.095286     8A    -11.070243     9A     -1.165295
      10A     -1.061183    11A     -0.968881    12A     -0.901093
      13A     -0.807652    14A     -0.722817    15A     -0.622973
      16A     -0.533529    17A     -0.513106    18A     -0.502029
      19A     -0.453460    20A     -0.443240    21A     -0.433189
      22A     -0.414738    23A     -0.401881    24A     -0.382812
      25A     -0.375000    26A     -0.344060    27A     -0.323086
      28A     -0.239347    29A     -0.209193    30A     -0.194992
      31A     -0.189614

  @DF-RHF Final Energy:  -382.33240079347883

   => Energetics <=

    Nuclear Repulsion Energy =            338.6565766724366426
    One-Electron Energy =               -1203.0779398585509625
    Two-Electron Energy =                 482.0889623926355512
    Total Energy =                       -382.3324007934788256
  Basis Set: (AUG-CC-PVTZ AUX)
    Blend: AUG-CC-PVTZ-RI
    Molecular point group: c1

    Geometry (in Angstrom), charge = -1, multiplicity = 1:

       Center              X                  Y                   Z               Mass
    ------------   -----------------  -----------------  -----------------  -----------------
         O           -2.902821868628    -0.810892787364    -0.573562595990    15.994914619570
         O           -2.286320868628     1.281514212636     0.067123404010    15.994914619570
         C            2.701929131372     0.346300212636    -0.574368595990    12.000000000000
         C            1.455094131372    -0.393639787364    -0.186022595990    12.000000000000
         C            0.357390131372     0.178236212636     0.334937404010    12.000000000000
         C           -0.894110868628    -0.548422787364     0.720120404010    12.000000000000
         C            3.919114131372    -0.103200787364     0.239283404010    12.000000000000
         C           -2.140605568628     0.004084712636    -0.003151095990    12.000000000000
         H            2.911037131372     0.190523212636    -1.641357595990     1.007825032230
         H            2.541985131372     1.422785212636    -0.438772595990     1.007825032230
         H            1.471047131372    -1.476612787364    -0.332307595990     1.007825032230
         H            0.337015131372     1.259001212636     0.476105404010     1.007825032230
         H           -0.800748868628    -1.619003787364     0.509184404010     1.007825032230
         H           -1.067228868628    -0.434597787364     1.800752404010     1.007825032230
         H            4.096741131372    -1.175602787364     0.112095404010     1.007825032230
         H            3.759434131372     0.087623212636     1.304474404010     1.007825032230
         H            4.823460131372     0.428351212636    -0.072748595990     1.007825032230

  Basis Set: AUG-CC-PVTZ
    Blend: AUG-CC-PVTZ
  Basis Set: (AUG-CC-PVTZ AUX)
    Blend: AUG-CC-PVTZ-JKFIT
	 Reference Energy          =    -382.3324007934788256 [Eh]
	 Singles Energy            =      -0.0000000000000000 [Eh]
	 Same-Spin Energy          =      -0.3910032768791507 [Eh]
	 Opposite-Spin Energy      =      -1.2597036874163372 [Eh]
	 Correlation Energy        =      -1.6507069642954879 [Eh]
	 Total Energy              =    -383.9831077577742917 [Eh]

	 ================> DF-SCS-MP2 Energies <==================
	-----------------------------------------------------------
	 SCS Same-Spin Scale       =       0.3333333333333333 [-]
	 SCS Opposite-Spin Scale   =       1.2000000000000000 [-]
	 SCS Same-Spin Energy      =      -0.1303344256263836 [Eh]
	 SCS Opposite-Spin Energy  =      -1.5116444248996046 [Eh]
	 SCS Correlation Energy    =      -1.6419788505259882 [Eh]
	 SCS Total Energy          =    -383.9743796440048413 [Eh]
	-----------------------------------------------------------

  Dipole Moment: [D]
     X:    10.7360      Y:    -1.2107      Z:     1.4346     Total:    10.8989

*** Psi4 exiting successfully. Buy a developer a beer!
