                               Psi4 1.3.2 release

  ==> Input File <==

--------------------------------------------------------------------------
#psi4
#
memory 32 gb

molecule  {
-1 1
  O       -2.9259140    -0.9099280    -0.5693610
  O       -2.5102145     1.2720160    -0.0488605
  C        2.5515340     0.1562790    -0.6847320
  C        1.3133740    -0.4576390    -0.0973370
  C        0.1959146     0.2650418     0.2200365
  C       -1.0388440    -0.3710000     0.8261750
  C        3.7521530     0.0645780     0.2634350
  C       -2.2854840     0.0250790    -0.0044070
  H        2.8053070    -0.3466590    -1.6276820
  H        2.3518550     1.2059430    -0.9306210
  H        1.3523840    -1.5323490     0.0963350
  H        0.1538580     1.2934970     0.0216010
  H       -0.9504340    -1.4608690     0.8884060
  H       -1.1707130     0.0247460     1.8437960
  H        3.9732670    -0.9779260     0.5120620
  H        3.5426510     0.5954950     1.1964510
  H        4.6498360     0.5017940    -0.1852730
units angstrom
no_reorient  #important for SAPT in psi4, default
symmetry c1  #important for SAPT in psi4, default
}

set PROPERTIES_ORIGIN ["COM"]
properties('MP2/aug-cc-pvtz', properties = ['dipole'])
--------------------------------------------------------------------------

    Molecular point group: c1
  Charge       = -1
  Multiplicity = 1
  Basis Set: AUG-CC-PVTZ
    Blend: AUG-CC-PVTZ
  Basis Set: (AUG-CC-PVTZ AUX)
    Blend: AUG-CC-PVTZ-JKFIT

    Orbital Energies [Eh]
    ---------------------

    Doubly Occupied:

       1A    -20.298565     2A    -20.296119     3A    -11.143854
       4A    -11.122950     5A    -11.120279     6A    -11.101020
       7A    -11.098649     8A    -11.069113     9A     -1.165471
      10A     -1.066142    11A     -0.966098    12A     -0.896995
      13A     -0.803677    14A     -0.719813    15A     -0.629623
      16A     -0.531578    17A     -0.515047    18A     -0.499407
      19A     -0.450473    20A     -0.442677    21A     -0.431857
      22A     -0.413572    23A     -0.404779    24A     -0.380261
      25A     -0.373317    26A     -0.356241    27A     -0.321484
      28A     -0.233631    29A     -0.212217    30A     -0.196566
      31A     -0.186137

  @DF-RHF Final Energy:  -382.32984658623121

   => Energetics <=

    Nuclear Repulsion Energy =            338.6728393649270288
    One-Electron Energy =               -1203.1101495405773676
    Two-Electron Energy =                 482.1074635894190692
    Total Energy =                       -382.3298465862312128
  Basis Set: (AUG-CC-PVTZ AUX)
    Blend: AUG-CC-PVTZ-RI
    Molecular point group: c1

    Geometry (in Angstrom), charge = -1, multiplicity = 1:

       Center              X                  Y                   Z               Mass
    ------------   -----------------  -----------------  -----------------  -----------------
         O           -2.782204007823    -0.921230428613    -0.553607664794    15.994914619570
         O           -2.366504507823     1.260713571387    -0.033107164794    15.994914619570
         C            2.695243992177     0.144976571387    -0.668978664794    12.000000000000
         C            1.457083992177    -0.468941428613    -0.081583664794    12.000000000000
         C            0.339624592177     0.253739371387     0.235789835206    12.000000000000
         C           -0.895134007823    -0.382302428613     0.841928335206    12.000000000000
         C            3.895862992177     0.053275571387     0.279188335206    12.000000000000
         C           -2.141774007823     0.013776571387     0.011346335206    12.000000000000
         H            2.949016992177    -0.357961428613    -1.611928664794     1.007825032230
         H            2.495564992177     1.194640571387    -0.914867664794     1.007825032230
         H            1.496093992177    -1.543651428613     0.112088335206     1.007825032230
         H            0.297567992177     1.282194571387     0.037354335206     1.007825032230
         H           -0.806724007823    -1.472171428613     0.904159335206     1.007825032230
         H           -1.027003007823     0.013443571387     1.859549335206     1.007825032230
         H            4.116976992177    -0.989228428613     0.527815335206     1.007825032230
         H            3.686360992177     0.584192571387     1.212204335206     1.007825032230
         H            4.793545992177     0.490491571387    -0.169519664794     1.007825032230

  Basis Set: AUG-CC-PVTZ
    Blend: AUG-CC-PVTZ
  Basis Set: (AUG-CC-PVTZ AUX)
    Blend: AUG-CC-PVTZ-JKFIT
	 Reference Energy          =    -382.3298465862312128 [Eh]
	 Singles Energy            =      -0.0000000000000000 [Eh]
	 Same-Spin Energy          =      -0.3910282293301089 [Eh]
	 Opposite-Spin Energy      =      -1.2600547137808278 [Eh]
	 Correlation Energy        =      -1.6510829431109366 [Eh]
	 Total Energy              =    -383.9809295293421769 [Eh]

	 ================> DF-SCS-MP2 Energies <==================
	-----------------------------------------------------------
	 SCS Same-Spin Scale       =       0.3333333333333333 [-]
	 SCS Opposite-Spin Scale   =       1.2000000000000000 [-]
	 SCS Same-Spin Energy      =      -0.1303427431100363 [Eh]
	 SCS Opposite-Spin Energy  =      -1.5120656565369932 [Eh]
	 SCS Correlation Energy    =      -1.6424083996470296 [Eh]
	 SCS Total Energy          =    -383.9722549858782372 [Eh]
	-----------------------------------------------------------

  Dipole Moment: [D]
     X:    10.6523      Y:    -0.6888      Z:     1.6411     Total:    10.7999

*** Psi4 exiting successfully. Buy a developer a beer!
