                               Psi4 1.3.2 release

  ==> Input File <==

--------------------------------------------------------------------------
#psi4
#
memory 32 gb

molecule  {
-1 1
  O       -2.9670243    -0.8643164    -0.5943565
  O       -2.5837434     1.2543319    -0.0899078
  C        2.5515340     0.1562790    -0.6847320
  C        1.3133740    -0.4576390    -0.0973370
  C        0.1996320     0.2215300     0.2212070
  C       -1.0388440    -0.3710000     0.8261750
  C        3.7521530     0.0645780     0.2634350
  C       -2.2854840     0.0250790    -0.0044070
  H        2.8053070    -0.3466590    -1.6276820
  H        2.3518550     1.2059430    -0.9306210
  H        1.3523840    -1.5323490     0.0963350
  H        0.1538580     1.2934970     0.0216010
  H       -0.9504340    -1.4608690     0.8884060
  H       -1.1707130     0.0247460     1.8437960
  H        3.9732670    -0.9779260     0.5120620
  H        3.5426510     0.5954950     1.1964510
  H        4.6498360     0.5017940    -0.1852730
units angstrom
no_reorient  #important for SAPT in psi4, default
symmetry c1  #important for SAPT in psi4, default
}

set PROPERTIES_ORIGIN ["COM"]
properties('MP2/aug-cc-pvtz', properties = ['dipole'])
--------------------------------------------------------------------------

    Molecular point group: c1
  Charge       = -1
  Multiplicity = 1
  Basis Set: AUG-CC-PVTZ
    Blend: AUG-CC-PVTZ
  Basis Set: (AUG-CC-PVTZ AUX)
    Blend: AUG-CC-PVTZ-JKFIT

    Orbital Energies [Eh]
    ---------------------

    Doubly Occupied:

       1A    -20.291164     2A    -20.289340     3A    -11.140657
       4A    -11.125397     5A    -11.123444     6A    -11.103464
       7A    -11.099043     8A    -11.076727     9A     -1.164550
      10A     -1.052375    11A     -0.971541    12A     -0.904286
      13A     -0.810883    14A     -0.725377    15A     -0.625320
      16A     -0.534055    17A     -0.516442    18A     -0.502138
      19A     -0.455389    20A     -0.445178    21A     -0.432913
      22A     -0.416382    23A     -0.399621    24A     -0.384537
      25A     -0.372383    26A     -0.349737    27A     -0.323404
      28A     -0.240674    29A     -0.200073    30A     -0.193589
      31A     -0.187282

  @DF-RHF Final Energy:  -382.32922702462349

   => Energetics <=

    Nuclear Repulsion Energy =            338.3152151047739267
    One-Electron Energy =               -1202.3741510734005260
    Two-Electron Energy =                 481.7297089440031641
    Total Energy =                       -382.3292270246234921
  Basis Set: (AUG-CC-PVTZ AUX)
    Blend: AUG-CC-PVTZ-RI
    Molecular point group: c1

    Geometry (in Angstrom), charge = -1, multiplicity = 1:

       Center              X                  Y                   Z               Mass
    ------------   -----------------  -----------------  -----------------  -----------------
         O           -2.807490573625    -0.874951541755    -0.569384160719    15.994914619570
         O           -2.424209673625     1.243696758245    -0.064935460719    15.994914619570
         C            2.711067726375     0.145643858245    -0.659759660719    12.000000000000
         C            1.472907726375    -0.468274141755    -0.072364660719    12.000000000000
         C            0.359165726375     0.210894858245     0.246179339281    12.000000000000
         C           -0.879310273625    -0.381635141755     0.851147339281    12.000000000000
         C            3.911686726375     0.053942858245     0.288407339281    12.000000000000
         C           -2.125950273625     0.014443858245     0.020565339281    12.000000000000
         H            2.964840726375    -0.357294141755    -1.602709660719     1.007825032230
         H            2.511388726375     1.195307858245    -0.905648660719     1.007825032230
         H            1.511917726375    -1.542984141755     0.121307339281     1.007825032230
         H            0.313391726375     1.282861858245     0.046573339281     1.007825032230
         H           -0.790900273625    -1.471504141755     0.913378339281     1.007825032230
         H           -1.011179273625     0.014110858245     1.868768339281     1.007825032230
         H            4.132800726375    -0.988561141755     0.537034339281     1.007825032230
         H            3.702184726375     0.584859858245     1.221423339281     1.007825032230
         H            4.809369726375     0.491158858245    -0.160300660719     1.007825032230

  Basis Set: AUG-CC-PVTZ
    Blend: AUG-CC-PVTZ
  Basis Set: (AUG-CC-PVTZ AUX)
    Blend: AUG-CC-PVTZ-JKFIT
	 Reference Energy          =    -382.3292270246234921 [Eh]
	 Singles Energy            =      -0.0000000000000000 [Eh]
	 Same-Spin Energy          =      -0.3908227781495372 [Eh]
	 Opposite-Spin Energy      =      -1.2595195843020879 [Eh]
	 Correlation Energy        =      -1.6503423624516251 [Eh]
	 Total Energy              =    -383.9795693870751165 [Eh]

	 ================> DF-SCS-MP2 Energies <==================
	-----------------------------------------------------------
	 SCS Same-Spin Scale       =       0.3333333333333333 [-]
	 SCS Opposite-Spin Scale   =       1.2000000000000000 [-]
	 SCS Same-Spin Energy      =      -0.1302742593831790 [Eh]
	 SCS Opposite-Spin Energy  =      -1.5114235011625055 [Eh]
	 SCS Correlation Energy    =      -1.6416977605456844 [Eh]
	 SCS Total Energy          =    -383.9709247851691885 [Eh]
	-----------------------------------------------------------

  Dipole Moment: [D]
     X:    11.0716      Y:    -0.8060      Z:     1.8254     Total:    11.2500

*** Psi4 exiting successfully. Buy a developer a beer!
