                               Psi4 1.3.2 release

  ==> Input File <==

--------------------------------------------------------------------------
#psi4
#
memory 32 gb

molecule  {
-1 1
  O       -2.9259140    -0.9099280    -0.5693610
  O       -2.5318610     1.2678500    -0.0507790
  C        2.5515340     0.1562790    -0.6847320
  C        1.3133740    -0.4576390    -0.0973370
  C        0.1996320     0.2215300     0.2212070
  C       -1.0388440    -0.3710000     0.8261750
  C        3.7521530     0.0645780     0.2634350
  C       -2.2854840     0.0250790    -0.0044070
  H        2.8053070    -0.3466590    -1.6276820
  H        2.3518550     1.2059430    -0.9306210
  H        1.3523840    -1.5323490     0.0963350
  H        0.1454695     1.4899444    -0.0149786
  H       -0.9504340    -1.4608690     0.8884060
  H       -1.1707130     0.0247460     1.8437960
  H        3.9732670    -0.9779260     0.5120620
  H        3.5426510     0.5954950     1.1964510
  H        4.6498360     0.5017940    -0.1852730
units angstrom
no_reorient  #important for SAPT in psi4, default
symmetry c1  #important for SAPT in psi4, default
}

set PROPERTIES_ORIGIN ["COM"]
properties('MP2/aug-cc-pvtz', properties = ['dipole'])
--------------------------------------------------------------------------

    Molecular point group: c1
  Charge       = -1
  Multiplicity = 1
  Basis Set: AUG-CC-PVTZ
    Blend: AUG-CC-PVTZ
  Basis Set: (AUG-CC-PVTZ AUX)
    Blend: AUG-CC-PVTZ-JKFIT

    Orbital Energies [Eh]
    ---------------------

    Doubly Occupied:

       1A    -20.298186     2A    -20.295598     3A    -11.144520
       4A    -11.123524     5A    -11.121422     6A    -11.121118
       7A    -11.097878     8A    -11.072570     9A     -1.165703
      10A     -1.064833    11A     -0.967658    12A     -0.898460
      13A     -0.808138    14A     -0.721474    15A     -0.604829
      16A     -0.532662    17A     -0.511293    18A     -0.493345
      19A     -0.453981    20A     -0.441839    21A     -0.433519
      22A     -0.414897    23A     -0.394318    24A     -0.383364
      25A     -0.373882    26A     -0.332200    27A     -0.322499
      28A     -0.239583    29A     -0.211132    30A     -0.195344
      31A     -0.190030

  @DF-RHF Final Energy:  -382.31125527547431

   => Energetics <=

    Nuclear Repulsion Energy =            338.0201616637778557
    One-Electron Energy =               -1201.8032395141196957
    Two-Electron Energy =                 481.4718225748675877
    Total Energy =                       -382.3112552754743092
  Basis Set: (AUG-CC-PVTZ AUX)
    Blend: AUG-CC-PVTZ-RI
    Molecular point group: c1

    Geometry (in Angstrom), charge = -1, multiplicity = 1:

       Center              X                  Y                   Z               Mass
    ------------   -----------------  -----------------  -----------------  -----------------
         O           -2.779461406005    -0.917773937128    -0.553134412009    15.994914619570
         O           -2.385408406005     1.260004062872    -0.034552412009    15.994914619570
         C            2.697986593995     0.148433062872    -0.668505412009    12.000000000000
         C            1.459826593995    -0.465484937128    -0.081110412009    12.000000000000
         C            0.346084593995     0.213684062872     0.237433587991    12.000000000000
         C           -0.892391406005    -0.378845937128     0.842401587991    12.000000000000
         C            3.898605593995     0.056732062872     0.279661587991    12.000000000000
         C           -2.139031406005     0.017233062872     0.011819587991    12.000000000000
         H            2.951759593995    -0.354504937128    -1.611455412009     1.007825032230
         H            2.498307593995     1.198097062872    -0.914394412009     1.007825032230
         H            1.498836593995    -1.540194937128     0.112561587991     1.007825032230
         H            0.291922093995     1.482098462872     0.001247987991     1.007825032230
         H           -0.803981406005    -1.468714937128     0.904632587991     1.007825032230
         H           -1.024260406005     0.016900062872     1.860022587991     1.007825032230
         H            4.119719593995    -0.985771937128     0.528288587991     1.007825032230
         H            3.689103593995     0.587649062872     1.212677587991     1.007825032230
         H            4.796288593995     0.493948062872    -0.169046412009     1.007825032230

  Basis Set: AUG-CC-PVTZ
    Blend: AUG-CC-PVTZ
  Basis Set: (AUG-CC-PVTZ AUX)
    Blend: AUG-CC-PVTZ-JKFIT
	 Reference Energy          =    -382.3112552754743092 [Eh]
	 Singles Energy            =      -0.0000000000000000 [Eh]
	 Same-Spin Energy          =      -0.3916376655980009 [Eh]
	 Opposite-Spin Energy      =      -1.2618700674183085 [Eh]
	 Correlation Energy        =      -1.6535077330163095 [Eh]
	 Total Energy              =    -383.9647630084905927 [Eh]

	 ================> DF-SCS-MP2 Energies <==================
	-----------------------------------------------------------
	 SCS Same-Spin Scale       =       0.3333333333333333 [-]
	 SCS Opposite-Spin Scale   =       1.2000000000000000 [-]
	 SCS Same-Spin Energy      =      -0.1305458885326670 [Eh]
	 SCS Opposite-Spin Energy  =      -1.5142440809019702 [Eh]
	 SCS Correlation Energy    =      -1.6447899694346371 [Eh]
	 SCS Total Energy          =    -383.9560452449089212 [Eh]
	-----------------------------------------------------------

  Dipole Moment: [D]
     X:    10.6400      Y:    -0.8135      Z:     1.6856     Total:    10.8034

*** Psi4 exiting successfully. Buy a developer a beer!
