                               Psi4 1.3.2 release

  ==> Input File <==

--------------------------------------------------------------------------
#psi4
#
memory 32 gb

molecule  {
-1 1
  O       -2.9259140    -0.9099280    -0.5693610
  O       -2.5318610     1.2678500    -0.0507790
  C        2.5515340     0.1562790    -0.6847320
  C        1.3133740    -0.4576390    -0.0973370
  C        0.1996320     0.2215300     0.2212070
  C       -0.8737469    -0.2920118     0.7455287
  C        3.7521530     0.0645780     0.2634350
  C       -2.2854840     0.0250790    -0.0044070
  H        2.8053070    -0.3466590    -1.6276820
  H        2.3518550     1.2059430    -0.9306210
  H        1.3523840    -1.5323490     0.0963350
  H        0.1538580     1.2934970     0.0216010
  H       -0.9504340    -1.4608690     0.8884060
  H       -1.1707130     0.0247460     1.8437960
  H        3.9732670    -0.9779260     0.5120620
  H        3.5426510     0.5954950     1.1964510
  H        4.6498360     0.5017940    -0.1852730
units angstrom
no_reorient  #important for SAPT in psi4, default
symmetry c1  #important for SAPT in psi4, default
}

set PROPERTIES_ORIGIN ["COM"]
properties('MP2/aug-cc-pvtz', properties = ['dipole'])
--------------------------------------------------------------------------

    Molecular point group: c1
  Charge       = -1
  Multiplicity = 1
  Basis Set: AUG-CC-PVTZ
    Blend: AUG-CC-PVTZ
  Basis Set: (AUG-CC-PVTZ AUX)
    Blend: AUG-CC-PVTZ-JKFIT

    Orbital Energies [Eh]
    ---------------------

    Doubly Occupied:

       1A    -20.306545     2A    -20.299894     3A    -11.154968
       4A    -11.122168     5A    -11.119286     6A    -11.092802
       7A    -11.086576     8A    -11.072734     9A     -1.168904
      10A     -1.069514    11A     -0.980801    12A     -0.923249
      13A     -0.806419    14A     -0.712406    15A     -0.623980
      16A     -0.541704    17A     -0.514553    18A     -0.500849
      19A     -0.469321    20A     -0.443244    21A     -0.427270
      22A     -0.413786    23A     -0.400253    24A     -0.384634
      25A     -0.369164    26A     -0.344571    27A     -0.324448
      28A     -0.243818    29A     -0.212832    30A     -0.200032
      31A     -0.170099

  @DF-RHF Final Energy:  -382.28356805281857

   => Energetics <=

    Nuclear Repulsion Energy =            340.4963106175098915
    One-Electron Energy =               -1206.5581090643490825
    Two-Electron Energy =                 483.7782303940206816
    Total Energy =                       -382.2835680528185662
  Basis Set: (AUG-CC-PVTZ AUX)
    Blend: AUG-CC-PVTZ-RI
    Molecular point group: c1

    Geometry (in Angstrom), charge = -1, multiplicity = 1:

       Center              X                  Y                   Z               Mass
    ------------   -----------------  -----------------  -----------------  -----------------
         O           -2.797059273165    -0.924406451762    -0.544900839855    15.994914619570
         O           -2.403006273165     1.253371548238    -0.026318839855    15.994914619570
         C            2.680388726835     0.141800548238    -0.660271839855    12.000000000000
         C            1.442228726835    -0.472117451762    -0.072876839855    12.000000000000
         C            0.328486726835     0.207051548238     0.245667160145    12.000000000000
         C           -0.744892173165    -0.306490251762     0.769988860145    12.000000000000
         C            3.881007726835     0.050099548238     0.287895160145    12.000000000000
         C           -2.156629273165     0.010600548238     0.020053160145    12.000000000000
         H            2.934161726835    -0.361137451762    -1.603221839855     1.007825032230
         H            2.480709726835     1.191464548238    -0.906160839855     1.007825032230
         H            1.481238726835    -1.546827451762     0.120795160145     1.007825032230
         H            0.282712726835     1.279018548238     0.046061160145     1.007825032230
         H           -0.821579273165    -1.475347451762     0.912866160145     1.007825032230
         H           -1.041858273165     0.010267548238     1.868256160145     1.007825032230
         H            4.102121726835    -0.992404451762     0.536522160145     1.007825032230
         H            3.671505726835     0.581016548238     1.220911160145     1.007825032230
         H            4.778690726835     0.487315548238    -0.160812839855     1.007825032230

  Basis Set: AUG-CC-PVTZ
    Blend: AUG-CC-PVTZ
  Basis Set: (AUG-CC-PVTZ AUX)
    Blend: AUG-CC-PVTZ-JKFIT
	 Reference Energy          =    -382.2835680528185662 [Eh]
	 Singles Energy            =      -0.0000000000000000 [Eh]
	 Same-Spin Energy          =      -0.3950652484196187 [Eh]
	 Opposite-Spin Energy      =      -1.2647090143008146 [Eh]
	 Correlation Energy        =      -1.6597742627204333 [Eh]
	 Total Energy              =    -383.9433423155389846 [Eh]

	 ================> DF-SCS-MP2 Energies <==================
	-----------------------------------------------------------
	 SCS Same-Spin Scale       =       0.3333333333333333 [-]
	 SCS Opposite-Spin Scale   =       1.2000000000000000 [-]
	 SCS Same-Spin Energy      =      -0.1316884161398729 [Eh]
	 SCS Opposite-Spin Energy  =      -1.5176508171609775 [Eh]
	 SCS Correlation Energy    =      -1.6493392333008503 [Eh]
	 SCS Total Energy          =    -383.9329072861194163 [Eh]
	-----------------------------------------------------------

  Dipole Moment: [D]
     X:    10.2350      Y:    -0.5663      Z:     1.4670     Total:    10.3551

*** Psi4 exiting successfully. Buy a developer a beer!
