                               Psi4 1.3.2 release

  ==> Input File <==

--------------------------------------------------------------------------
#psi4
#
memory 32 gb

molecule  {
-1 1
  O       -2.9259140    -0.9099280    -0.5693610
  O       -2.5318610     1.2678500    -0.0507790
  C        2.5515340     0.1562790    -0.6847320
  C        1.3133740    -0.4576390    -0.0973370
  C        0.1996320     0.2215300     0.2212070
  C       -1.0403827    -0.2842700     0.8099021
  C        3.7521530     0.0645780     0.2634350
  C       -2.2854840     0.0250790    -0.0044070
  H        2.8053070    -0.3466590    -1.6276820
  H        2.3518550     1.2059430    -0.9306210
  H        1.3878339    -1.5329194     0.0822737
  H        0.1538580     1.2934970     0.0216010
  H       -0.9504340    -1.4608690     0.8884060
  H       -1.1707130     0.0247460     1.8437960
  H        3.9732670    -0.9779260     0.5120620
  H        3.5426510     0.5954950     1.1964510
  H        4.6498360     0.5017940    -0.1852730
units angstrom
no_reorient  #important for SAPT in psi4, default
symmetry c1  #important for SAPT in psi4, default
}

set PROPERTIES_ORIGIN ["COM"]
properties('MP2/aug-cc-pvtz', properties = ['dipole'])
--------------------------------------------------------------------------

    Molecular point group: c1
  Charge       = -1
  Multiplicity = 1
  Basis Set: AUG-CC-PVTZ
    Blend: AUG-CC-PVTZ
  Basis Set: (AUG-CC-PVTZ AUX)
    Blend: AUG-CC-PVTZ-JKFIT

    Orbital Energies [Eh]
    ---------------------

    Doubly Occupied:

       1A    -20.299270     2A    -20.294292     3A    -11.142754
       4A    -11.124351     5A    -11.121790     6A    -11.100350
       7A    -11.098407     8A    -11.073301     9A     -1.166958
      10A     -1.065402    11A     -0.970839    12A     -0.904945
      13A     -0.809997    14A     -0.723213    15A     -0.624913
      16A     -0.538170    17A     -0.514550    18A     -0.502660
      19A     -0.459510    20A     -0.442483    21A     -0.435666
      22A     -0.416594    23A     -0.401284    24A     -0.385491
      25A     -0.369462    26A     -0.329946    27A     -0.326570
      28A     -0.239893    29A     -0.208786    30A     -0.195351
      31A     -0.192832

  @DF-RHF Final Energy:  -382.32372764217121

   => Energetics <=

    Nuclear Repulsion Energy =            339.5304920702703271
    One-Electron Energy =               -1204.7483737166835454
    Two-Electron Energy =                 482.8941540042419547
    Total Energy =                       -382.3237276421712068
  Basis Set: (AUG-CC-PVTZ AUX)
    Blend: AUG-CC-PVTZ-RI
    Molecular point group: c1

    Geometry (in Angstrom), charge = -1, multiplicity = 1:

       Center              X                  Y                   Z               Mass
    ------------   -----------------  -----------------  -----------------  -----------------
         O           -2.779688869113    -0.925223067088    -0.551607966714    15.994914619570
         O           -2.385635869113     1.252554932912    -0.033025966714    15.994914619570
         C            2.697759130887     0.140983932912    -0.666978966714    12.000000000000
         C            1.459599130887    -0.472934067088    -0.079583966714    12.000000000000
         C            0.345857130887     0.206234932912     0.238960033286    12.000000000000
         C           -0.894157569113    -0.299565067088     0.827655133286    12.000000000000
         C            3.898378130887     0.049282932912     0.281188033286    12.000000000000
         C           -2.139258869113     0.009783932912     0.013346033286    12.000000000000
         H            2.951532130887    -0.361954067088    -1.609928966714     1.007825032230
         H            2.498080130887     1.190647932912    -0.912867966714     1.007825032230
         H            1.534059030887    -1.548214467088     0.100026733286     1.007825032230
         H            0.300083130887     1.278201932912     0.039354033286     1.007825032230
         H           -0.804208869113    -1.476164067088     0.906159033286     1.007825032230
         H           -1.024487869113     0.009450932912     1.861549033286     1.007825032230
         H            4.119492130887    -0.993221067088     0.529815033286     1.007825032230
         H            3.688876130887     0.580199932912     1.214204033286     1.007825032230
         H            4.796061130887     0.486498932912    -0.167519966714     1.007825032230

  Basis Set: AUG-CC-PVTZ
    Blend: AUG-CC-PVTZ
  Basis Set: (AUG-CC-PVTZ AUX)
    Blend: AUG-CC-PVTZ-JKFIT
	 Reference Energy          =    -382.3237276421712068 [Eh]
	 Singles Energy            =      -0.0000000000000000 [Eh]
	 Same-Spin Energy          =      -0.3915210320341144 [Eh]
	 Opposite-Spin Energy      =      -1.2607537220819864 [Eh]
	 Correlation Energy        =      -1.6522747541161009 [Eh]
	 Total Energy              =    -383.9760023962872992 [Eh]

	 ================> DF-SCS-MP2 Energies <==================
	-----------------------------------------------------------
	 SCS Same-Spin Scale       =       0.3333333333333333 [-]
	 SCS Opposite-Spin Scale   =       1.2000000000000000 [-]
	 SCS Same-Spin Energy      =      -0.1305070106780381 [Eh]
	 SCS Opposite-Spin Energy  =      -1.5129044664983837 [Eh]
	 SCS Correlation Energy    =      -1.6434114771764219 [Eh]
	 SCS Total Energy          =    -383.9671391193476211 [Eh]
	-----------------------------------------------------------

  Dipole Moment: [D]
     X:    10.7463      Y:    -0.6157      Z:     1.6523     Total:    10.8900

*** Psi4 exiting successfully. Buy a developer a beer!
