                               Psi4 1.3.2 release

  ==> Input File <==

--------------------------------------------------------------------------
#psi4
#
memory 32 gb

molecule  {
-1 1
  O       -2.9259140    -0.9099280    -0.5693610
  O       -2.5318610     1.2678500    -0.0507790
  C        2.5515340     0.1562790    -0.6847320
  C        1.3958270    -0.4167562    -0.1364535
  C        0.1996320     0.2215300     0.2212070
  C       -1.0388440    -0.3710000     0.8261750
  C        3.7521530     0.0645780     0.2634350
  C       -2.2854840     0.0250790    -0.0044070
  H        2.8053070    -0.3466590    -1.6276820
  H        2.3518550     1.2059430    -0.9306210
  H        1.3523840    -1.5323490     0.0963350
  H        0.1538580     1.2934970     0.0216010
  H       -0.9504340    -1.4608690     0.8884060
  H       -1.1707130     0.0247460     1.8437960
  H        3.9732670    -0.9779260     0.5120620
  H        3.5426510     0.5954950     1.1964510
  H        4.6498360     0.5017940    -0.1852730
units angstrom
no_reorient  #important for SAPT in psi4, default
symmetry c1  #important for SAPT in psi4, default
}

set PROPERTIES_ORIGIN ["COM"]
properties('MP2/aug-cc-pvtz', properties = ['dipole'])
--------------------------------------------------------------------------

    Molecular point group: c1
  Charge       = -1
  Multiplicity = 1
  Basis Set: AUG-CC-PVTZ
    Blend: AUG-CC-PVTZ
  Basis Set: (AUG-CC-PVTZ AUX)
    Blend: AUG-CC-PVTZ-JKFIT

    Orbital Energies [Eh]
    ---------------------

    Doubly Occupied:

       1A    -20.298905     2A    -20.296844     3A    -11.145692
       4A    -11.124293     5A    -11.117540     6A    -11.109711
       7A    -11.101982     8A    -11.073105     9A     -1.166650
      10A     -1.065767    11A     -0.980881    12A     -0.895326
      13A     -0.813249    14A     -0.722452    15A     -0.618252
      16A     -0.536459    17A     -0.518796    18A     -0.504868
      19A     -0.454432    20A     -0.438662    21A     -0.433700
      22A     -0.419382    23A     -0.403692    24A     -0.391361
      25A     -0.369432    26A     -0.343204    27A     -0.328503
      28A     -0.230444    29A     -0.212030    30A     -0.196323
      31A     -0.182920

  @DF-RHF Final Energy:  -382.31596606161986

   => Energetics <=

    Nuclear Repulsion Energy =            338.8337402911712957
    One-Electron Energy =               -1203.3096960735224457
    Two-Electron Energy =                 482.1599897207312324
    Total Energy =                       -382.3159660616198607
  Basis Set: (AUG-CC-PVTZ AUX)
    Blend: AUG-CC-PVTZ-RI
    Molecular point group: c1

    Geometry (in Angstrom), charge = -1, multiplicity = 1:

       Center              X                  Y                   Z               Mass
    ------------   -----------------  -----------------  -----------------  -----------------
         O           -2.788287585854    -0.920362017209    -0.549308733700    15.994914619570
         O           -2.394234585854     1.257415982791    -0.030726733700    15.994914619570
         C            2.689160414146     0.145844982791    -0.664679733700    12.000000000000
         C            1.533453414146    -0.427190217209    -0.116401233700    12.000000000000
         C            0.337258414146     0.211095982791     0.241259266300    12.000000000000
         C           -0.901217585854    -0.381434017209     0.846227266300    12.000000000000
         C            3.889779414146     0.054143982791     0.283487266300    12.000000000000
         C           -2.147857585854     0.014644982791     0.015645266300    12.000000000000
         H            2.942933414146    -0.357093017209    -1.607629733700     1.007825032230
         H            2.489481414146     1.195508982791    -0.910568733700     1.007825032230
         H            1.490010414146    -1.542783017209     0.116387266300     1.007825032230
         H            0.291484414146     1.283062982791     0.041653266300     1.007825032230
         H           -0.812807585854    -1.471303017209     0.908458266300     1.007825032230
         H           -1.033086585854     0.014311982791     1.863848266300     1.007825032230
         H            4.110893414146    -0.988360017209     0.532114266300     1.007825032230
         H            3.680277414146     0.585060982791     1.216503266300     1.007825032230
         H            4.787462414146     0.491359982791    -0.165220733700     1.007825032230

  Basis Set: AUG-CC-PVTZ
    Blend: AUG-CC-PVTZ
  Basis Set: (AUG-CC-PVTZ AUX)
    Blend: AUG-CC-PVTZ-JKFIT
	 Reference Energy          =    -382.3159660616198607 [Eh]
	 Singles Energy            =      -0.0000000000000000 [Eh]
	 Same-Spin Energy          =      -0.3929846457020512 [Eh]
	 Opposite-Spin Energy      =      -1.2627404488004244 [Eh]
	 Correlation Energy        =      -1.6557250945024755 [Eh]
	 Total Energy              =    -383.9716911561223469 [Eh]

	 ================> DF-SCS-MP2 Energies <==================
	-----------------------------------------------------------
	 SCS Same-Spin Scale       =       0.3333333333333333 [-]
	 SCS Opposite-Spin Scale   =       1.2000000000000000 [-]
	 SCS Same-Spin Energy      =      -0.1309948819006837 [Eh]
	 SCS Opposite-Spin Energy  =      -1.5152885385605093 [Eh]
	 SCS Correlation Energy    =      -1.6462834204611929 [Eh]
	 SCS Total Energy          =    -383.9622494820810630 [Eh]
	-----------------------------------------------------------

  Dipole Moment: [D]
     X:    10.6986      Y:    -0.6589      Z:     1.6215     Total:    10.8409

*** Psi4 exiting successfully. Buy a developer a beer!
