                               Psi4 1.3.2 release

  ==> Input File <==

--------------------------------------------------------------------------
#psi4
#
memory 32 gb

molecule  {
-1 1
  O       -2.9259140    -0.9099280    -0.5693610
  O       -2.5318610     1.2678500    -0.0507790
  C        2.5515340     0.1562790    -0.6847320
  C        1.3133740    -0.4576390    -0.0973370
  C        0.1996320     0.2215300     0.2212070
  C       -1.0272327    -0.3944686     0.8263926
  C        3.7521530     0.0645780     0.2634350
  C       -2.2854840     0.0250790    -0.0044070
  H        2.8053070    -0.3466590    -1.6276820
  H        2.3518550     1.2059430    -0.9306210
  H        1.3523840    -1.5323490     0.0963350
  H        0.1716304     1.2928171     0.0147829
  H       -0.9504340    -1.4608690     0.8884060
  H       -1.1707130     0.0247460     1.8437960
  H        3.9732670    -0.9779260     0.5120620
  H        3.5426510     0.5954950     1.1964510
  H        4.6498360     0.5017940    -0.1852730
units angstrom
no_reorient  #important for SAPT in psi4, default
symmetry c1  #important for SAPT in psi4, default
}

set PROPERTIES_ORIGIN ["COM"]
properties('MP2/aug-cc-pvtz', properties = ['dipole'])
--------------------------------------------------------------------------

    Molecular point group: c1
  Charge       = -1
  Multiplicity = 1
  Basis Set: AUG-CC-PVTZ
    Blend: AUG-CC-PVTZ
  Basis Set: (AUG-CC-PVTZ AUX)
    Blend: AUG-CC-PVTZ-JKFIT

    Orbital Energies [Eh]
    ---------------------

    Doubly Occupied:

       1A    -20.297629     2A    -20.296567     3A    -11.145034
       4A    -11.123450     5A    -11.121026     6A    -11.099926
       7A    -11.094565     8A    -11.069044     9A     -1.165199
      10A     -1.064703    11A     -0.968737    12A     -0.900611
      13A     -0.805975    14A     -0.721955    15A     -0.622271
      16A     -0.532089    17A     -0.514282    18A     -0.499350
      19A     -0.453017    20A     -0.443116    21A     -0.430998
      22A     -0.414384    23A     -0.401397    24A     -0.382307
      25A     -0.374921    26A     -0.352979    27A     -0.323960
      28A     -0.237976    29A     -0.211659    30A     -0.195768
      31A     -0.186639

  @DF-RHF Final Energy:  -382.33236495742767

   => Energetics <=

    Nuclear Repulsion Energy =            338.6830224904783222
    One-Electron Energy =               -1203.1277056737533258
    Two-Electron Energy =                 482.1123182258472752
    Total Energy =                       -382.3323649574276715
  Basis Set: (AUG-CC-PVTZ AUX)
    Blend: AUG-CC-PVTZ-RI
    Molecular point group: c1

    Geometry (in Angstrom), charge = -1, multiplicity = 1:

       Center              X                  Y                   Z               Mass
    ------------   -----------------  -----------------  -----------------  -----------------
         O           -2.780927006897    -0.913525821559    -0.553422803229    15.994914619570
         O           -2.386874006897     1.264252178441    -0.034840803229    15.994914619570
         C            2.696520993103     0.152681178441    -0.668793803229    12.000000000000
         C            1.458360993103    -0.461236821559    -0.081398803229    12.000000000000
         C            0.344618993103     0.217932178441     0.237145196771    12.000000000000
         C           -0.882245706897    -0.398066421559     0.842330796771    12.000000000000
         C            3.897139993103     0.060980178441     0.279373196771    12.000000000000
         C           -2.140497006897     0.021481178441     0.011531196771    12.000000000000
         H            2.950293993103    -0.350256821559    -1.611743803229     1.007825032230
         H            2.496841993103     1.202345178441    -0.914682803229     1.007825032230
         H            1.497370993103    -1.535946821559     0.112273196771     1.007825032230
         H            0.316617393103     1.289219278441     0.030721096771     1.007825032230
         H           -0.805447006897    -1.464466821559     0.904344196771     1.007825032230
         H           -1.025726006897     0.021148178441     1.859734196771     1.007825032230
         H            4.118253993103    -0.981523821559     0.528000196771     1.007825032230
         H            3.687637993103     0.591897178441     1.212389196771     1.007825032230
         H            4.794822993103     0.498196178441    -0.169334803229     1.007825032230

  Basis Set: AUG-CC-PVTZ
    Blend: AUG-CC-PVTZ
  Basis Set: (AUG-CC-PVTZ AUX)
    Blend: AUG-CC-PVTZ-JKFIT
	 Reference Energy          =    -382.3323649574276715 [Eh]
	 Singles Energy            =      -0.0000000000000000 [Eh]
	 Same-Spin Energy          =      -0.3909742801184732 [Eh]
	 Opposite-Spin Energy      =      -1.2595386067104342 [Eh]
	 Correlation Energy        =      -1.6505128868289074 [Eh]
	 Total Energy              =    -383.9828778442565635 [Eh]

	 ================> DF-SCS-MP2 Energies <==================
	-----------------------------------------------------------
	 SCS Same-Spin Scale       =       0.3333333333333333 [-]
	 SCS Opposite-Spin Scale   =       1.2000000000000000 [-]
	 SCS Same-Spin Energy      =      -0.1303247600394911 [Eh]
	 SCS Opposite-Spin Energy  =      -1.5114463280525210 [Eh]
	 SCS Correlation Energy    =      -1.6417710880920120 [Eh]
	 SCS Total Energy          =    -383.9741360455196855 [Eh]
	-----------------------------------------------------------

  Dipole Moment: [D]
     X:    10.6814      Y:    -0.7351      Z:     1.6492     Total:    10.8330

*** Psi4 exiting successfully. Buy a developer a beer!
