                               Psi4 1.3.2 release

  ==> Input File <==

--------------------------------------------------------------------------
#psi4
#
memory 32 gb

molecule  {
-1 1
  O       -2.9259140    -0.9099280    -0.5693610
  O       -2.5210467     1.2699804    -0.0498215
  C        2.5515340     0.1562790    -0.6847320
  C        1.3133740    -0.4576390    -0.0973370
  C        0.1978679     0.2432942     0.2206303
  C       -1.0388440    -0.3710000     0.8261750
  C        3.7521530     0.0645780     0.2634350
  C       -2.2854840     0.0250790    -0.0044070
  H        2.8053070    -0.3466590    -1.6276820
  H        2.3518550     1.2059430    -0.9306210
  H        1.3523840    -1.5323490     0.0963350
  H        0.1538580     1.2934970     0.0216010
  H       -0.9504340    -1.4608690     0.8884060
  H       -1.1707130     0.0247460     1.8437960
  H        3.9732670    -0.9779260     0.5120620
  H        3.5426510     0.5954950     1.1964510
  H        4.6498360     0.5017940    -0.1852730
units angstrom
no_reorient  #important for SAPT in psi4, default
symmetry c1  #important for SAPT in psi4, default
}

set PROPERTIES_ORIGIN ["COM"]
properties('MP2/aug-cc-pvtz', properties = ['dipole'])
--------------------------------------------------------------------------

    Molecular point group: c1
  Charge       = -1
  Multiplicity = 1
  Basis Set: AUG-CC-PVTZ
    Blend: AUG-CC-PVTZ
  Basis Set: (AUG-CC-PVTZ AUX)
    Blend: AUG-CC-PVTZ-JKFIT

    Orbital Energies [Eh]
    ---------------------

    Doubly Occupied:

       1A    -20.298103     2A    -20.295958     3A    -11.143869
       4A    -11.123326     5A    -11.120839     6A    -11.100521
       7A    -11.097133     8A    -11.069272     9A     -1.165462
      10A     -1.065386    11A     -0.967446    12A     -0.898845
      13A     -0.805245    14A     -0.721100    15A     -0.625875
      16A     -0.532346    17A     -0.514635    18A     -0.499972
      19A     -0.451625    20A     -0.442904    21A     -0.432338
      22A     -0.414194    23A     -0.402973    24A     -0.381590
      25A     -0.373425    26A     -0.352571    27A     -0.322825
      28A     -0.235859    29A     -0.211614    30A     -0.196009
      31A     -0.187597

  @DF-RHF Final Energy:  -382.33210865285980

   => Energetics <=

    Nuclear Repulsion Energy =            338.7545443322281358
    One-Electron Energy =               -1203.2715991788177234
    Two-Electron Energy =                 482.1849461937298429
    Total Energy =                       -382.3321086528598016
  Basis Set: (AUG-CC-PVTZ AUX)
    Blend: AUG-CC-PVTZ-RI
    Molecular point group: c1

    Geometry (in Angstrom), charge = -1, multiplicity = 1:

       Center              X                  Y                   Z               Mass
    ------------   -----------------  -----------------  -----------------  -----------------
         O           -2.780878869163    -0.918634198404    -0.553534734541    15.994914619570
         O           -2.376011569163     1.261274201596    -0.033995234541    15.994914619570
         C            2.696569130837     0.147572801596    -0.668905734541    12.000000000000
         C            1.458409130837    -0.466345198404    -0.081510734541    12.000000000000
         C            0.342903030837     0.234588001596     0.236456565459    12.000000000000
         C           -0.893808869163    -0.379706198404     0.842001265459    12.000000000000
         C            3.897188130837     0.055871801596     0.279261265459    12.000000000000
         C           -2.140448869163     0.016372801596     0.011419265459    12.000000000000
         H            2.950342130837    -0.355365198404    -1.611855734541     1.007825032230
         H            2.496890130837     1.197236801596    -0.914794734541     1.007825032230
         H            1.497419130837    -1.541055198404     0.112161265459     1.007825032230
         H            0.298893130837     1.284790801596     0.037427265459     1.007825032230
         H           -0.805398869163    -1.469575198404     0.904232265459     1.007825032230
         H           -1.025677869163     0.016039801596     1.859622265459     1.007825032230
         H            4.118302130837    -0.986632198404     0.527888265459     1.007825032230
         H            3.687686130837     0.586788801596     1.212277265459     1.007825032230
         H            4.794871130837     0.493087801596    -0.169446734541     1.007825032230

  Basis Set: AUG-CC-PVTZ
    Blend: AUG-CC-PVTZ
  Basis Set: (AUG-CC-PVTZ AUX)
    Blend: AUG-CC-PVTZ-JKFIT
	 Reference Energy          =    -382.3321086528598016 [Eh]
	 Singles Energy            =      -0.0000000000000000 [Eh]
	 Same-Spin Energy          =      -0.3909703356875418 [Eh]
	 Opposite-Spin Energy      =      -1.2597715717932902 [Eh]
	 Correlation Energy        =      -1.6507419074808320 [Eh]
	 Total Energy              =    -383.9828505603406370 [Eh]

	 ================> DF-SCS-MP2 Energies <==================
	-----------------------------------------------------------
	 SCS Same-Spin Scale       =       0.3333333333333333 [-]
	 SCS Opposite-Spin Scale   =       1.2000000000000000 [-]
	 SCS Same-Spin Energy      =      -0.1303234452291806 [Eh]
	 SCS Opposite-Spin Energy  =      -1.5117258861519483 [Eh]
	 SCS Correlation Energy    =      -1.6420493313811289 [Eh]
	 SCS Total Energy          =    -383.9741579842409465 [Eh]
	-----------------------------------------------------------

  Dipole Moment: [D]
     X:    10.6824      Y:    -0.7008      Z:     1.6521     Total:    10.8320

*** Psi4 exiting successfully. Buy a developer a beer!
