                               Psi4 1.4a3.dev225

  ==> Input File <==

--------------------------------------------------------------------------
#psi4
#
memory 32 gb

molecule  {
-1 1
  O       -3.0493610    -0.8021490    -0.5876160
  O       -2.4328600     1.2902580     0.0530700
  C        2.5553900     0.3550440    -0.5884220
  C        1.3085550    -0.3848960    -0.2000760
  C        0.2108510     0.1869800     0.3208840
  C       -1.0406500    -0.5396790     0.7060670
  C        3.7725750    -0.0944570     0.2252300
  C       -2.3014199     0.0194748    -0.0251462
  H        2.7644980     0.1992670    -1.6554110
  H        2.3954460     1.4315290    -0.4528260
  H        1.3245080    -1.4678690    -0.3463610
  H        0.1904760     1.2677450     0.4620520
  H       -0.9472880    -1.6102600     0.4951310
  H       -1.2137680    -0.4258540     1.7866990
  H        3.9502020    -1.1668590     0.0980420
  H        3.6128950     0.0963670     1.2904210
  H        4.6769210     0.4370950    -0.0868020
units angstrom
no_reorient  #important for SAPT in psi4, default
symmetry c1  #important for SAPT in psi4, default
}

set PROPERTIES_ORIGIN ["COM"]
properties('MP2/aug-cc-pvtz', properties = ['dipole'])
--------------------------------------------------------------------------

    Molecular point group: c1
  Charge       = -1
  Multiplicity = 1
  Basis Set: AUG-CC-PVTZ
    Blend: AUG-CC-PVTZ
  Basis Set: (AUG-CC-PVTZ AUX)
    Blend: AUG-CC-PVTZ-JKFIT

    Orbital Energies [Eh]
    ---------------------

    Doubly Occupied:

       1A    -20.302624     2A    -20.292500     3A    -11.144382
       4A    -11.122966     5A    -11.120210     6A    -11.098007
       7A    -11.093980     8A    -11.068399     9A     -1.170137
      10A     -1.067285    11A     -0.967854    12A     -0.899325
      13A     -0.804817    14A     -0.720894    15A     -0.621598
      16A     -0.531473    17A     -0.512140    18A     -0.501197
      19A     -0.452228    20A     -0.442140    21A     -0.433562
      22A     -0.414269    23A     -0.403290    24A     -0.382480
      25A     -0.375615    26A     -0.344235    27A     -0.326291
      28A     -0.239076    29A     -0.211969    30A     -0.197362
      31A     -0.186675

  @DF-RHF Final Energy:  -382.33394382799708

   => Energetics <=

    Nuclear Repulsion Energy =            338.6466763596365013
    One-Electron Energy =               -1203.0632829880667032
    Two-Electron Energy =                 482.0826628004330701
    Total Energy =                       -382.3339438279970750
  Basis Set: (AUG-CC-PVTZ AUX)
    Blend: AUG-CC-PVTZ-RI
    Molecular point group: c1

    Geometry (in Angstrom), charge = -1, multiplicity = 1:

       Center              X                  Y                   Z               Mass
    ------------   -----------------  -----------------  -----------------  -----------------
         O           -2.901306726099    -0.811598212983    -0.572719679084    15.994914619570
         O           -2.284805726099     1.280808787017     0.067966320916    15.994914619570
         C            2.703444273901     0.345594787017    -0.573525679084    12.000000000000
         C            1.456609273901    -0.394345212983    -0.185179679084    12.000000000000
         C            0.358905273901     0.177530787017     0.335780320916    12.000000000000
         C           -0.892595726099    -0.549128212983     0.720963320916    12.000000000000
         C            3.920629273901    -0.103906212983     0.240126320916    12.000000000000
         C           -2.153365626099     0.010025587017    -0.010249879084    12.000000000000
         H            2.912552273901     0.189817787017    -1.640514679084     1.007825032230
         H            2.543500273901     1.422079787017    -0.437929679084     1.007825032230
         H            1.472562273901    -1.477318212983    -0.331464679084     1.007825032230
         H            0.338530273901     1.258295787017     0.476948320916     1.007825032230
         H           -0.799233726099    -1.619709212983     0.510027320916     1.007825032230
         H           -1.065713726099    -0.435303212983     1.801595320916     1.007825032230
         H            4.098256273901    -1.176308212983     0.112938320916     1.007825032230
         H            3.760949273901     0.086917787017     1.305317320916     1.007825032230
         H            4.824975273901     0.427645787017    -0.071905679084     1.007825032230

  Basis Set: AUG-CC-PVTZ
    Blend: AUG-CC-PVTZ
  Basis Set: (AUG-CC-PVTZ AUX)
    Blend: AUG-CC-PVTZ-JKFIT
	 Reference Energy          =    -382.3339438279970750 [Eh]
	 Singles Energy            =      -0.0000000000000000 [Eh]
	 Same-Spin Energy          =      -0.3907511473898231 [Eh]
	 Opposite-Spin Energy      =      -1.2590478830419518 [Eh]
	 Correlation Energy        =      -1.6497990304317749 [Eh]
	 Total Energy              =    -383.9837428584288546 [Eh]

	 ================> DF-SCS-MP2 Energies <==================
	-----------------------------------------------------------
	 SCS Same-Spin Scale       =       0.3333333333333333 [-]
	 SCS Opposite-Spin Scale   =       1.2000000000000000 [-]
	 SCS Same-Spin Energy      =      -0.1302503824632744 [Eh]
	 SCS Opposite-Spin Energy  =      -1.5108574596503421 [Eh]
	 SCS Correlation Energy    =      -1.6411078421136165 [Eh]
	 SCS Total Energy          =    -383.9750516701107017 [Eh]
	-----------------------------------------------------------

  Dipole Moment: [D]
     X:    10.5990      Y:    -1.1727      Z:     1.3884     Total:    10.7537

*** Psi4 exiting successfully. Buy a developer a beer!
