                               Psi4 1.3.2 release

  ==> Input File <==

--------------------------------------------------------------------------
#psi4
#
memory 32 gb

molecule  {
-1 1
  O       -2.9259140    -0.9099280    -0.5693610
  O       -2.5318610     1.2678500    -0.0507790
  C        2.5515340     0.1562790    -0.6847320
  C        1.3133740    -0.4576390    -0.0973370
  C        0.1996320     0.2215300     0.2212070
  C       -1.0388440    -0.3710000     0.8261750
  C        3.7521530     0.0645780     0.2634350
  C       -2.2466173    -0.1709717     0.0029083
  H        2.8053070    -0.3466590    -1.6276820
  H        2.3518550     1.2059430    -0.9306210
  H        1.3523840    -1.5323490     0.0963350
  H        0.1538580     1.2934970     0.0216010
  H       -0.9504340    -1.4608690     0.8884060
  H       -1.1707130     0.0247460     1.8437960
  H        3.9732670    -0.9779260     0.5120620
  H        3.5426510     0.5954950     1.1964510
  H        4.6498360     0.5017940    -0.1852730
units angstrom
no_reorient  #important for SAPT in psi4, default
symmetry c1  #important for SAPT in psi4, default
}

set PROPERTIES_ORIGIN ["COM"]
properties('MP2/aug-cc-pvtz', properties = ['dipole'])
--------------------------------------------------------------------------

    Molecular point group: c1
  Charge       = -1
  Multiplicity = 1
  Basis Set: AUG-CC-PVTZ
    Blend: AUG-CC-PVTZ
  Basis Set: (AUG-CC-PVTZ AUX)
    Blend: AUG-CC-PVTZ-JKFIT

    Orbital Energies [Eh]
    ---------------------

    Doubly Occupied:

       1A    -20.335958     2A    -20.252390     3A    -11.142463
       4A    -11.125545     5A    -11.123733     6A    -11.103850
       7A    -11.100411     8A    -11.078512     9A     -1.225344
      10A     -0.985419    11A     -0.967995    12A     -0.905021
      13A     -0.819117    14A     -0.730929    15A     -0.628356
      16A     -0.546875    17A     -0.516400    18A     -0.506693
      19A     -0.463061    20A     -0.456404    21A     -0.448785
      22A     -0.419150    23A     -0.404323    24A     -0.388301
      25A     -0.375561    26A     -0.350221    27A     -0.335719
      28A     -0.231815    29A     -0.189450    30A     -0.169415
      31A     -0.162445

  @DF-RHF Final Energy:  -382.28052094462066

   => Energetics <=

    Nuclear Repulsion Energy =            338.9593805314820543
    One-Electron Energy =               -1203.5004832531708416
    Two-Electron Energy =                 482.2605817770680687
    Total Energy =                       -382.2805209446206618
  Basis Set: (AUG-CC-PVTZ AUX)
    Blend: AUG-CC-PVTZ-RI
    Molecular point group: c1

    Geometry (in Angstrom), charge = -1, multiplicity = 1:

       Center              X                  Y                   Z               Mass
    ------------   -----------------  -----------------  -----------------  -----------------
         O           -2.783661419018    -0.895214346953    -0.554236916484    15.994914619570
         O           -2.389608419018     1.282563653047    -0.035654916484    15.994914619570
         C            2.693786580982     0.170992653047    -0.669607916484    12.000000000000
         C            1.455626580982    -0.442925346953    -0.082212916484    12.000000000000
         C            0.341884580982     0.236243653047     0.236331083516    12.000000000000
         C           -0.896591419018    -0.356286346953     0.841299083516    12.000000000000
         C            3.894405580982     0.079291653047     0.278559083516    12.000000000000
         C           -2.104364719018    -0.156258046953     0.018032383516    12.000000000000
         H            2.947559580982    -0.331945346953    -1.612557916484     1.007825032230
         H            2.494107580982     1.220656653047    -0.915496916484     1.007825032230
         H            1.494636580982    -1.517635346953     0.111459083516     1.007825032230
         H            0.296110580982     1.308210653047     0.036725083516     1.007825032230
         H           -0.808181419018    -1.446155346953     0.903530083516     1.007825032230
         H           -1.028460419018     0.039459653047     1.858920083516     1.007825032230
         H            4.115519580982    -0.963212346953     0.527186083516     1.007825032230
         H            3.684903580982     0.610208653047     1.211575083516     1.007825032230
         H            4.792088580982     0.516507653047    -0.170148916484     1.007825032230

  Basis Set: AUG-CC-PVTZ
    Blend: AUG-CC-PVTZ
  Basis Set: (AUG-CC-PVTZ AUX)
    Blend: AUG-CC-PVTZ-JKFIT
	 Reference Energy          =    -382.2805209446206618 [Eh]
	 Singles Energy            =      -0.0000000000000000 [Eh]
	 Same-Spin Energy          =      -0.3924524501538911 [Eh]
	 Opposite-Spin Energy      =      -1.2637819787492779 [Eh]
	 Correlation Energy        =      -1.6562344289031690 [Eh]
	 Total Energy              =    -383.9367553735238516 [Eh]

	 ================> DF-SCS-MP2 Energies <==================
	-----------------------------------------------------------
	 SCS Same-Spin Scale       =       0.3333333333333333 [-]
	 SCS Opposite-Spin Scale   =       1.2000000000000000 [-]
	 SCS Same-Spin Energy      =      -0.1308174833846303 [Eh]
	 SCS Opposite-Spin Energy  =      -1.5165383744991334 [Eh]
	 SCS Correlation Energy    =      -1.6473558578837637 [Eh]
	 SCS Total Energy          =    -383.9278768025044428 [Eh]
	-----------------------------------------------------------

  Dipole Moment: [D]
     X:    11.0171      Y:    -2.6283      Z:     1.4681     Total:    11.4210

*** Psi4 exiting successfully. Buy a developer a beer!
