                               Psi4 1.3.2 release

  ==> Input File <==

--------------------------------------------------------------------------
#psi4
#
memory 32 gb

molecule  {
-1 1
  O       -2.9259140    -0.9099280    -0.5693610
  O       -2.5318610     1.2678500    -0.0507790
  C        2.5515340     0.1562790    -0.6847320
  C        1.2874774    -0.4450886    -0.1411455
  C        0.1996320     0.2215300     0.2212070
  C       -1.0388440    -0.3710000     0.8261750
  C        3.7819038     0.0895813     0.2266720
  C       -2.2854840     0.0250790    -0.0044070
  H        2.8053070    -0.3466590    -1.6276820
  H        2.3518550     1.2059430    -0.9306210
  H        1.3523840    -1.5323490     0.0963350
  H        0.1538580     1.2934970     0.0216010
  H       -0.9504340    -1.4608690     0.8884060
  H       -1.1707130     0.0247460     1.8437960
  H        3.9732670    -0.9779260     0.5120620
  H        3.5426510     0.5954950     1.1964510
  H        4.6498360     0.5017940    -0.1852730
units angstrom
no_reorient  #important for SAPT in psi4, default
symmetry c1  #important for SAPT in psi4, default
}

set PROPERTIES_ORIGIN ["COM"]
properties('MP2/aug-cc-pvtz', properties = ['dipole'])
--------------------------------------------------------------------------

    Molecular point group: c1
  Charge       = -1
  Multiplicity = 1
  Basis Set: AUG-CC-PVTZ
    Blend: AUG-CC-PVTZ
  Basis Set: (AUG-CC-PVTZ AUX)
    Blend: AUG-CC-PVTZ-JKFIT

    Orbital Energies [Eh]
    ---------------------

    Doubly Occupied:

       1A    -20.297756     2A    -20.295843     3A    -11.144087
       4A    -11.125403     5A    -11.121723     6A    -11.098568
       7A    -11.096204     8A    -11.070069     9A     -1.165559
      10A     -1.064711    11A     -0.969637    12A     -0.903114
      13A     -0.809160    14A     -0.724985    15A     -0.617899
      16A     -0.533344    17A     -0.510063    18A     -0.507173
      19A     -0.457225    20A     -0.444402    21A     -0.432820
      22A     -0.411723    23A     -0.402219    24A     -0.380914
      25A     -0.369025    26A     -0.346045    27A     -0.324165
      28A     -0.242079    29A     -0.211063    30A     -0.195497
      31A     -0.190469

  @DF-RHF Final Energy:  -382.32866693282398

   => Energetics <=

    Nuclear Repulsion Energy =            338.8026981249088294
    One-Electron Energy =               -1203.3368469487559196
    Two-Electron Energy =                 482.2054818910231120
    Total Energy =                       -382.3286669328239782
  Basis Set: (AUG-CC-PVTZ AUX)
    Blend: AUG-CC-PVTZ-RI
    Molecular point group: c1

    Geometry (in Angstrom), charge = -1, multiplicity = 1:

       Center              X                  Y                   Z               Mass
    ------------   -----------------  -----------------  -----------------  -----------------
         O           -2.779945258978    -0.920008672878    -0.544908778985    15.994914619570
         O           -2.385892258978     1.257769327122    -0.026326778985    15.994914619570
         C            2.697502741022     0.146198327122    -0.660279778985    12.000000000000
         C            1.433446141022    -0.455169272878    -0.116693278985    12.000000000000
         C            0.345600741022     0.211449327122     0.245659221015    12.000000000000
         C           -0.892875258978    -0.381080672878     0.850627221015    12.000000000000
         C            3.927872541022     0.079500627122     0.251124221015    12.000000000000
         C           -2.139515258978     0.014998327122     0.020045221015    12.000000000000
         H            2.951275741022    -0.356739672878    -1.603229778985     1.007825032230
         H            2.497823741022     1.195862327122    -0.906168778985     1.007825032230
         H            1.498352741022    -1.542429672878     0.120787221015     1.007825032230
         H            0.299826741022     1.283416327122     0.046053221015     1.007825032230
         H           -0.804465258978    -1.470949672878     0.912858221015     1.007825032230
         H           -1.024744258978     0.014665327122     1.868248221015     1.007825032230
         H            4.119235741022    -0.988006672878     0.536514221015     1.007825032230
         H            3.688619741022     0.585414327122     1.220903221015     1.007825032230
         H            4.795804741022     0.491713327122    -0.160820778985     1.007825032230

  Basis Set: AUG-CC-PVTZ
    Blend: AUG-CC-PVTZ
  Basis Set: (AUG-CC-PVTZ AUX)
    Blend: AUG-CC-PVTZ-JKFIT
	 Reference Energy          =    -382.3286669328239782 [Eh]
	 Singles Energy            =      -0.0000000000000000 [Eh]
	 Same-Spin Energy          =      -0.3909033857192984 [Eh]
	 Opposite-Spin Energy      =      -1.2594750265930621 [Eh]
	 Correlation Energy        =      -1.6503784123123606 [Eh]
	 Total Energy              =    -383.9790453451363419 [Eh]

	 ================> DF-SCS-MP2 Energies <==================
	-----------------------------------------------------------
	 SCS Same-Spin Scale       =       0.3333333333333333 [-]
	 SCS Opposite-Spin Scale   =       1.2000000000000000 [-]
	 SCS Same-Spin Energy      =      -0.1303011285730995 [Eh]
	 SCS Opposite-Spin Energy  =      -1.5113700319116745 [Eh]
	 SCS Correlation Energy    =      -1.6416711604847740 [Eh]
	 SCS Total Energy          =    -383.9703380933087260 [Eh]
	-----------------------------------------------------------

  Dipole Moment: [D]
     X:    10.7412      Y:    -0.6518      Z:     1.6698     Total:    10.8897

*** Psi4 exiting successfully. Buy a developer a beer!
