                               Psi4 1.4a3.dev225

  ==> Input File <==

--------------------------------------------------------------------------
#psi4
#
memory 32 gb

molecule  {
-1 1
  O       -3.0493610    -0.8021490    -0.5876160
  O       -2.4328600     1.2902580     0.0530700
  C        2.5553900     0.3550440    -0.5884220
  C        1.3085550    -0.3848960    -0.2000760
  C        0.2108510     0.1869800     0.3208840
  C       -1.0239360    -0.5299744     0.7009228
  C        3.7725750    -0.0944570     0.2252300
  C       -2.2894080     0.0326700    -0.0161130
  H        2.7644980     0.1992670    -1.6554110
  H        2.3954460     1.4315290    -0.4528260
  H        1.3245080    -1.4678690    -0.3463610
  H        0.1904760     1.2677450     0.4620520
  H       -0.9472880    -1.6102600     0.4951310
  H       -1.2137680    -0.4258540     1.7866990
  H        3.9502020    -1.1668590     0.0980420
  H        3.6128950     0.0963670     1.2904210
  H        4.6769210     0.4370950    -0.0868020
units angstrom
no_reorient  #important for SAPT in psi4, default
symmetry c1  #important for SAPT in psi4, default
}

set PROPERTIES_ORIGIN ["COM"]
properties('MP2/aug-cc-pvtz', properties = ['dipole'])
--------------------------------------------------------------------------

    Molecular point group: c1
  Charge       = -1
  Multiplicity = 1
  Basis Set: AUG-CC-PVTZ
    Blend: AUG-CC-PVTZ
  Basis Set: (AUG-CC-PVTZ AUX)
    Blend: AUG-CC-PVTZ-JKFIT

    Orbital Energies [Eh]
    ---------------------

    Doubly Occupied:

       1A    -20.298634     2A    -20.296250     3A    -11.145288
       4A    -11.123366     5A    -11.120674     6A    -11.097919
       7A    -11.094654     8A    -11.069399     9A     -1.166098
      10A     -1.065742    11A     -0.969223    12A     -0.902533
      13A     -0.806194    14A     -0.721124    15A     -0.622749
      16A     -0.532599    17A     -0.513012    18A     -0.501639
      19A     -0.454880    20A     -0.442242    21A     -0.432464
      22A     -0.414733    23A     -0.401280    24A     -0.382638
      25A     -0.375079    26A     -0.345155    27A     -0.325271
      28A     -0.239606    29A     -0.211915    30A     -0.196527
      31A     -0.186547

  @DF-RHF Final Energy:  -382.33302795569767

   => Energetics <=

    Nuclear Repulsion Energy =            338.8213405983881898
    One-Electron Energy =               -1203.3978700639579529
    Two-Electron Energy =                 482.2435015098721465
    Total Energy =                       -382.3330279556976734
  Basis Set: (AUG-CC-PVTZ AUX)
    Blend: AUG-CC-PVTZ-RI
    Molecular point group: c1

    Geometry (in Angstrom), charge = -1, multiplicity = 1:

       Center              X                  Y                   Z               Mass
    ------------   -----------------  -----------------  -----------------  -----------------
         O           -2.904355638393    -0.814028754123    -0.573132450134    15.994914619570
         O           -2.287854638393     1.278378245877     0.067553549866    15.994914619570
         C            2.700395361607     0.343164245877    -0.573938450134    12.000000000000
         C            1.453560361607    -0.396775754123    -0.185592450134    12.000000000000
         C            0.355856361607     0.175100245877     0.335367549866    12.000000000000
         C           -0.878930638393    -0.541854154123     0.715406349866    12.000000000000
         C            3.917580361607    -0.106336754123     0.239713549866    12.000000000000
         C           -2.144402638393     0.020790245877    -0.001629450134    12.000000000000
         H            2.909503361607     0.187387245877    -1.640927450134     1.007825032230
         H            2.540451361607     1.419649245877    -0.438342450134     1.007825032230
         H            1.469513361607    -1.479748754123    -0.331877450134     1.007825032230
         H            0.335481361607     1.255865245877     0.476535549866     1.007825032230
         H           -0.802282638393    -1.622139754123     0.509614549866     1.007825032230
         H           -1.068762638393    -0.437733754123     1.801182549866     1.007825032230
         H            4.095207361607    -1.178738754123     0.112525549866     1.007825032230
         H            3.757900361607     0.084487245877     1.304904549866     1.007825032230
         H            4.821926361607     0.425215245877    -0.072318450134     1.007825032230

  Basis Set: AUG-CC-PVTZ
    Blend: AUG-CC-PVTZ
  Basis Set: (AUG-CC-PVTZ AUX)
    Blend: AUG-CC-PVTZ-JKFIT
	 Reference Energy          =    -382.3330279556976734 [Eh]
	 Singles Energy            =      -0.0000000000000000 [Eh]
	 Same-Spin Energy          =      -0.3911240934835625 [Eh]
	 Opposite-Spin Energy      =      -1.2596035890167072 [Eh]
	 Correlation Energy        =      -1.6507276825002697 [Eh]
	 Total Energy              =    -383.9837556381979198 [Eh]

	 ================> DF-SCS-MP2 Energies <==================
	-----------------------------------------------------------
	 SCS Same-Spin Scale       =       0.3333333333333333 [-]
	 SCS Opposite-Spin Scale   =       1.2000000000000000 [-]
	 SCS Same-Spin Energy      =      -0.1303746978278542 [Eh]
	 SCS Opposite-Spin Energy  =      -1.5115243068200486 [Eh]
	 SCS Correlation Energy    =      -1.6418990046479027 [Eh]
	 SCS Total Energy          =    -383.9749269603455559 [Eh]
	-----------------------------------------------------------

  Dipole Moment: [D]
     X:    10.6990      Y:    -1.0047      Z:     1.4544     Total:    10.8441

*** Psi4 exiting successfully. Buy a developer a beer!
