                               Psi4 1.4a3.dev225

  ==> Input File <==

--------------------------------------------------------------------------
#psi4
#
memory 32 gb

molecule  {
-1 1
  O       -3.0493610    -0.8021490    -0.5876160
  O       -2.4328600     1.2902580     0.0530700
  C        2.5553900     0.3550440    -0.5884220
  C        1.3085550    -0.3848960    -0.2000760
  C        0.2108510     0.1869800     0.3208840
  C       -1.0406500    -0.5396790     0.7060670
  C        3.7725750    -0.0944570     0.2252300
  C       -2.2894080     0.0326700    -0.0161130
  H        2.7644980     0.1992670    -1.6554110
  H        2.3954460     1.4315290    -0.4528260
  H        1.3245080    -1.4678690    -0.3463610
  H        0.1901022     1.2875731     0.4646419
  H       -0.9472880    -1.6102600     0.4951310
  H       -1.2137680    -0.4258540     1.7866990
  H        3.9502020    -1.1668590     0.0980420
  H        3.6128950     0.0963670     1.2904210
  H        4.6769210     0.4370950    -0.0868020
units angstrom
no_reorient  #important for SAPT in psi4, default
symmetry c1  #important for SAPT in psi4, default
}

set PROPERTIES_ORIGIN ["COM"]
properties('MP2/aug-cc-pvtz', properties = ['dipole'])
--------------------------------------------------------------------------

    Molecular point group: c1
  Charge       = -1
  Multiplicity = 1
  Basis Set: AUG-CC-PVTZ
    Blend: AUG-CC-PVTZ
  Basis Set: (AUG-CC-PVTZ AUX)
    Blend: AUG-CC-PVTZ-JKFIT

    Orbital Energies [Eh]
    ---------------------

    Doubly Occupied:

       1A    -20.297959     2A    -20.296116     3A    -11.144507
       4A    -11.123394     5A    -11.120716     6A    -11.101006
       7A    -11.095034     8A    -11.069573     9A     -1.166009
      10A     -1.065489    11A     -0.968384    12A     -0.900143
      13A     -0.806507    14A     -0.721701    15A     -0.620057
      16A     -0.532513    17A     -0.512564    18A     -0.500835
      19A     -0.453180    20A     -0.442505    21A     -0.433284
      22A     -0.414607    23A     -0.400829    24A     -0.382839
      25A     -0.375661    26A     -0.343489    27A     -0.324258
      28A     -0.238917    29A     -0.211860    30A     -0.196280
      31A     -0.188028

  @DF-RHF Final Energy:  -382.33305003645756

   => Energetics <=

    Nuclear Repulsion Energy =            338.5913110523227374
    One-Electron Energy =               -1202.9522319897682792
    Two-Electron Energy =                 482.0278709009880345
    Total Energy =                       -382.3330500364575641
  Basis Set: (AUG-CC-PVTZ AUX)
    Blend: AUG-CC-PVTZ-RI
    Molecular point group: c1

    Geometry (in Angstrom), charge = -1, multiplicity = 1:

       Center              X                  Y                   Z               Mass
    ------------   -----------------  -----------------  -----------------  -----------------
         O           -2.902578314206    -0.813175475092    -0.573701532225    15.994914619570
         O           -2.286077314206     1.279231524908     0.066984467775    15.994914619570
         C            2.702172685794     0.344017524908    -0.574507532225    12.000000000000
         C            1.455337685794    -0.395922475092    -0.186161532225    12.000000000000
         C            0.357633685794     0.175953524908     0.334798467775    12.000000000000
         C           -0.893867314206    -0.550705475092     0.719981467775    12.000000000000
         C            3.919357685794    -0.105483475092     0.239144467775    12.000000000000
         C           -2.142625314206     0.021643524908    -0.002198532225    12.000000000000
         H            2.911280685794     0.188240524908    -1.641496532225     1.007825032230
         H            2.542228685794     1.420502524908    -0.438911532225     1.007825032230
         H            1.471290685794    -1.478895475092    -0.332446532225     1.007825032230
         H            0.336884885794     1.276546624908     0.478556367775     1.007825032230
         H           -0.800505314206    -1.621286475092     0.509045467775     1.007825032230
         H           -1.066985314206    -0.436880475092     1.800613467775     1.007825032230
         H            4.096984685794    -1.177885475092     0.111956467775     1.007825032230
         H            3.759677685794     0.085340524908     1.304335467775     1.007825032230
         H            4.823703685794     0.426068524908    -0.072887532225     1.007825032230

  Basis Set: AUG-CC-PVTZ
    Blend: AUG-CC-PVTZ
  Basis Set: (AUG-CC-PVTZ AUX)
    Blend: AUG-CC-PVTZ-JKFIT
	 Reference Energy          =    -382.3330500364575641 [Eh]
	 Singles Energy            =      -0.0000000000000000 [Eh]
	 Same-Spin Energy          =      -0.3909612405820593 [Eh]
	 Opposite-Spin Energy      =      -1.2595639828570009 [Eh]
	 Correlation Energy        =      -1.6505252234390602 [Eh]
	 Total Energy              =    -383.9835752598966110 [Eh]

	 ================> DF-SCS-MP2 Energies <==================
	-----------------------------------------------------------
	 SCS Same-Spin Scale       =       0.3333333333333333 [-]
	 SCS Opposite-Spin Scale   =       1.2000000000000000 [-]
	 SCS Same-Spin Energy      =      -0.1303204135273531 [Eh]
	 SCS Opposite-Spin Energy  =      -1.5114767794284010 [Eh]
	 SCS Correlation Energy    =      -1.6417971929557540 [Eh]
	 SCS Total Energy          =    -383.9748472294133421 [Eh]
	-----------------------------------------------------------

  Dipole Moment: [D]
     X:    10.7178      Y:    -1.0263      Z:     1.4683     Total:    10.8665

*** Psi4 exiting successfully. Buy a developer a beer!
