                               Psi4 1.3.2 release

  ==> Input File <==

--------------------------------------------------------------------------
#psi4
#
memory 32 gb

molecule  {
-1 1
  O       -2.9259140    -0.9099280    -0.5693610
  O       -2.5318610     1.2678500    -0.0507790
  C        2.5515340     0.1562790    -0.6847320
  C        1.2309210    -0.4985218    -0.0582205
  C        0.1996320     0.2215300     0.2212070
  C       -1.0388440    -0.3710000     0.8261750
  C        3.7521530     0.0645780     0.2634350
  C       -2.2854840     0.0250790    -0.0044070
  H        2.8053070    -0.3466590    -1.6276820
  H        2.3518550     1.2059430    -0.9306210
  H        1.3523840    -1.5323490     0.0963350
  H        0.1538580     1.2934970     0.0216010
  H       -0.9504340    -1.4608690     0.8884060
  H       -1.1707130     0.0247460     1.8437960
  H        3.9732670    -0.9779260     0.5120620
  H        3.5426510     0.5954950     1.1964510
  H        4.6498360     0.5017940    -0.1852730
units angstrom
no_reorient  #important for SAPT in psi4, default
symmetry c1  #important for SAPT in psi4, default
}

set PROPERTIES_ORIGIN ["COM"]
properties('MP2/aug-cc-pvtz', properties = ['dipole'])
--------------------------------------------------------------------------

    Molecular point group: c1
  Charge       = -1
  Multiplicity = 1
  Basis Set: AUG-CC-PVTZ
    Blend: AUG-CC-PVTZ
  Basis Set: (AUG-CC-PVTZ AUX)
    Blend: AUG-CC-PVTZ-JKFIT

    Orbital Energies [Eh]
    ---------------------

    Doubly Occupied:

       1A    -20.296687     2A    -20.295032     3A    -11.142407
       4A    -11.123503     5A    -11.122835     6A    -11.092494
       7A    -11.090303     8A    -11.066480     9A     -1.164577
      10A     -1.063780    11A     -0.964876    12A     -0.905079
      13A     -0.802017    14A     -0.720742    15A     -0.628502
      16A     -0.531024    17A     -0.511330    18A     -0.497205
      19A     -0.460592    20A     -0.444274    21A     -0.432133
      22A     -0.411122    23A     -0.403315    24A     -0.385666
      25A     -0.365131    26A     -0.344400    27A     -0.313704
      28A     -0.248480    29A     -0.210219    30A     -0.194843
      31A     -0.192302

  @DF-RHF Final Energy:  -382.32533922373301

   => Energetics <=

    Nuclear Repulsion Energy =            338.9885653044062224
    One-Electron Energy =               -1203.7776965769764956
    Two-Electron Energy =                 482.4637920488373197
    Total Energy =                       -382.3253392237330104
  Basis Set: (AUG-CC-PVTZ AUX)
    Blend: AUG-CC-PVTZ-RI
    Molecular point group: c1

    Geometry (in Angstrom), charge = -1, multiplicity = 1:

       Center              X                  Y                   Z               Mass
    ------------   -----------------  -----------------  -----------------  -----------------
         O           -2.770784777213    -0.911683572215    -0.557612235261    15.994914619570
         O           -2.376731777213     1.266094427785    -0.039030235261    15.994914619570
         C            2.706663222787     0.154523427785    -0.672983235261    12.000000000000
         C            1.386050222787    -0.500277372215    -0.046471735261    12.000000000000
         C            0.354761222787     0.219774427785     0.232955764739    12.000000000000
         C           -0.883714777213    -0.372755572215     0.837923764739    12.000000000000
         C            3.907282222787     0.062822427785     0.275183764739    12.000000000000
         C           -2.130354777213     0.023323427785     0.007341764739    12.000000000000
         H            2.960436222787    -0.348414572215    -1.615933235261     1.007825032230
         H            2.506984222787     1.204187427785    -0.918872235261     1.007825032230
         H            1.507513222787    -1.534104572215     0.108083764739     1.007825032230
         H            0.308987222787     1.291741427785     0.033349764739     1.007825032230
         H           -0.795304777213    -1.462624572215     0.900154764739     1.007825032230
         H           -1.015583777213     0.022990427785     1.855544764739     1.007825032230
         H            4.128396222787    -0.979681572215     0.523810764739     1.007825032230
         H            3.697780222787     0.593739427785     1.208199764739     1.007825032230
         H            4.804965222787     0.500038427785    -0.173524235261     1.007825032230

  Basis Set: AUG-CC-PVTZ
    Blend: AUG-CC-PVTZ
  Basis Set: (AUG-CC-PVTZ AUX)
    Blend: AUG-CC-PVTZ-JKFIT
	 Reference Energy          =    -382.3253392237330104 [Eh]
	 Singles Energy            =      -0.0000000000000000 [Eh]
	 Same-Spin Energy          =      -0.3899475045190804 [Eh]
	 Opposite-Spin Energy      =      -1.2581679835449240 [Eh]
	 Correlation Energy        =      -1.6481154880640045 [Eh]
	 Total Energy              =    -383.9734547117969896 [Eh]

	 ================> DF-SCS-MP2 Energies <==================
	-----------------------------------------------------------
	 SCS Same-Spin Scale       =       0.3333333333333333 [-]
	 SCS Opposite-Spin Scale   =       1.2000000000000000 [-]
	 SCS Same-Spin Energy      =      -0.1299825015063601 [Eh]
	 SCS Opposite-Spin Energy  =      -1.5098015802539086 [Eh]
	 SCS Correlation Energy    =      -1.6397840817602689 [Eh]
	 SCS Total Energy          =    -383.9651233054933073 [Eh]
	-----------------------------------------------------------

  Dipole Moment: [D]
     X:    10.6910      Y:    -0.7736      Z:     1.7117     Total:    10.8548

*** Psi4 exiting successfully. Buy a developer a beer!
