                               Psi4 1.3.2 release

  ==> Input File <==

--------------------------------------------------------------------------
#psi4
#
memory 32 gb

molecule  {
-1 1
  O       -2.9259140    -0.9099280    -0.5693610
  O       -2.5318610     1.2678500    -0.0507790
  C        2.5147808     0.2257753    -0.6843081
  C        1.3133740    -0.4576390    -0.0973370
  C        0.1996320     0.2215300     0.2212070
  C       -1.0388440    -0.3710000     0.8261750
  C        3.7521530     0.0645780     0.2634350
  C       -2.2854840     0.0250790    -0.0044070
  H        2.8053070    -0.3466590    -1.6276820
  H        2.3518550     1.2059430    -0.9306210
  H        1.2987578    -1.5292267     0.1160135
  H        0.1538580     1.2934970     0.0216010
  H       -0.9504340    -1.4608690     0.8884060
  H       -1.1707130     0.0247460     1.8437960
  H        3.9732670    -0.9779260     0.5120620
  H        3.5426510     0.5954950     1.1964510
  H        4.6498360     0.5017940    -0.1852730
units angstrom
no_reorient  #important for SAPT in psi4, default
symmetry c1  #important for SAPT in psi4, default
}

set PROPERTIES_ORIGIN ["COM"]
properties('MP2/aug-cc-pvtz', properties = ['dipole'])
--------------------------------------------------------------------------

    Molecular point group: c1
  Charge       = -1
  Multiplicity = 1
  Basis Set: AUG-CC-PVTZ
    Blend: AUG-CC-PVTZ
  Basis Set: (AUG-CC-PVTZ AUX)
    Blend: AUG-CC-PVTZ-JKFIT

    Orbital Energies [Eh]
    ---------------------

    Doubly Occupied:

       1A    -20.297484     2A    -20.295621     3A    -11.143678
       4A    -11.124809     5A    -11.122555     6A    -11.097997
       7A    -11.095375     8A    -11.068962     9A     -1.165295
      10A     -1.064468    11A     -0.967810    12A     -0.897705
      13A     -0.806440    14A     -0.725479    15A     -0.624798
      16A     -0.532331    17A     -0.514143    18A     -0.499161
      19A     -0.453978    20A     -0.440435    21A     -0.431759
      22A     -0.412611    23A     -0.399410    24A     -0.387677
      25A     -0.375815    26A     -0.349451    27A     -0.323201
      28A     -0.236400    29A     -0.210835    30A     -0.195326
      31A     -0.187869

  @DF-RHF Final Energy:  -382.32535782849482

   => Energetics <=

    Nuclear Repulsion Energy =            338.8802743781742493
    One-Electron Energy =               -1203.5135131849644949
    Two-Electron Energy =                 482.3078809782954295
    Total Energy =                       -382.3253578284948162
  Basis Set: (AUG-CC-PVTZ AUX)
    Blend: AUG-CC-PVTZ-RI
    Molecular point group: c1

    Geometry (in Angstrom), charge = -1, multiplicity = 1:

       Center              X                  Y                   Z               Mass
    ------------   -----------------  -----------------  -----------------  -----------------
         O           -2.775157240156    -0.923426831927    -0.553680891599    15.994914619570
         O           -2.381104240156     1.254351168073    -0.035098891599    15.994914619570
         C            2.665537559844     0.212276468073    -0.668627991599    12.000000000000
         C            1.464130759844    -0.471137831927    -0.081656891599    12.000000000000
         C            0.350388759844     0.208031168073     0.236887108401    12.000000000000
         C           -0.888087240156    -0.384498831927     0.841855108401    12.000000000000
         C            3.902909759844     0.051079168073     0.279115108401    12.000000000000
         C           -2.134727240156     0.011580168073     0.011273108401    12.000000000000
         H            2.956063759844    -0.360157831927    -1.612001891599     1.007825032230
         H            2.502611759844     1.192444168073    -0.914940891599     1.007825032230
         H            1.449514559844    -1.542725531927     0.131693608401     1.007825032230
         H            0.304614759844     1.279998168073     0.037281108401     1.007825032230
         H           -0.799677240156    -1.474367831927     0.904086108401     1.007825032230
         H           -1.019956240156     0.011247168073     1.859476108401     1.007825032230
         H            4.124023759844    -0.991424831927     0.527742108401     1.007825032230
         H            3.693407759844     0.581996168073     1.212131108401     1.007825032230
         H            4.800592759844     0.488295168073    -0.169592891599     1.007825032230

  Basis Set: AUG-CC-PVTZ
    Blend: AUG-CC-PVTZ
  Basis Set: (AUG-CC-PVTZ AUX)
    Blend: AUG-CC-PVTZ-JKFIT
	 Reference Energy          =    -382.3253578284948162 [Eh]
	 Singles Energy            =      -0.0000000000000000 [Eh]
	 Same-Spin Energy          =      -0.3909705986682632 [Eh]
	 Opposite-Spin Energy      =      -1.2597234353717370 [Eh]
	 Correlation Energy        =      -1.6506940340400003 [Eh]
	 Total Energy              =    -383.9760518625348027 [Eh]

	 ================> DF-SCS-MP2 Energies <==================
	-----------------------------------------------------------
	 SCS Same-Spin Scale       =       0.3333333333333333 [-]
	 SCS Opposite-Spin Scale   =       1.2000000000000000 [-]
	 SCS Same-Spin Energy      =      -0.1303235328894211 [Eh]
	 SCS Opposite-Spin Energy  =      -1.5116681224460844 [Eh]
	 SCS Correlation Energy    =      -1.6419916553355054 [Eh]
	 SCS Total Energy          =    -383.9673494838303327 [Eh]
	-----------------------------------------------------------

  Dipole Moment: [D]
     X:    10.6773      Y:    -0.6514      Z:     1.6735     Total:    10.8272

*** Psi4 exiting successfully. Buy a developer a beer!
