                               Psi4 1.3.2 release

  ==> Input File <==

--------------------------------------------------------------------------
#psi4
#
memory 32 gb

molecule  {
-1 1
  O       -2.9259140    -0.9099280    -0.5693610
  O       -2.5318610     1.2678500    -0.0507790
  C        2.5515340     0.1562790    -0.6847320
  C        1.3133740    -0.4576390    -0.0973370
  C        0.1996320     0.2215300     0.2212070
  C       -1.0388440    -0.3710000     0.8261750
  C        3.7521530     0.0645780     0.2634350
  C       -2.2854840     0.0250790    -0.0044070
  H        2.8053070    -0.3466590    -1.6276820
  H        2.3518550     1.2059430    -0.9306210
  H        1.3523840    -1.5323490     0.0963350
  H        0.1496638     1.3917207     0.0033112
  H       -0.9504340    -1.4608690     0.8884060
  H       -1.1707130     0.0247460     1.8437960
  H        3.9732670    -0.9779260     0.5120620
  H        3.5426510     0.5954950     1.1964510
  H        4.6498360     0.5017940    -0.1852730
units angstrom
no_reorient  #important for SAPT in psi4, default
symmetry c1  #important for SAPT in psi4, default
}

set PROPERTIES_ORIGIN ["COM"]
properties('MP2/aug-cc-pvtz', properties = ['dipole'])
--------------------------------------------------------------------------

    Molecular point group: c1
  Charge       = -1
  Multiplicity = 1
  Basis Set: AUG-CC-PVTZ
    Blend: AUG-CC-PVTZ
  Basis Set: (AUG-CC-PVTZ AUX)
    Blend: AUG-CC-PVTZ-JKFIT

    Orbital Energies [Eh]
    ---------------------

    Doubly Occupied:

       1A    -20.297902     2A    -20.295705     3A    -11.144188
       4A    -11.123582     5A    -11.121227     6A    -11.111184
       7A    -11.096646     8A    -11.070928     9A     -1.165578
      10A     -1.064730    11A     -0.968001    12A     -0.899174
      13A     -0.807432    14A     -0.721712    15A     -0.611952
      16A     -0.532766    17A     -0.512249    18A     -0.497037
      19A     -0.453355    20A     -0.442331    21A     -0.433165
      22A     -0.414834    23A     -0.397552    24A     -0.383151
      25A     -0.373610    26A     -0.340736    27A     -0.323977
      28A     -0.238760    29A     -0.211073    30A     -0.195416
      31A     -0.189461

  @DF-RHF Final Energy:  -382.32576013404253

   => Energetics <=

    Nuclear Repulsion Energy =            338.4088674707585938
    One-Electron Energy =               -1202.5904242722103845
    Two-Electron Energy =                 481.8557966674092086
    Total Energy =                       -382.3257601340425254
  Basis Set: (AUG-CC-PVTZ AUX)
    Blend: AUG-CC-PVTZ-RI
    Molecular point group: c1

    Geometry (in Angstrom), charge = -1, multiplicity = 1:

       Center              X                  Y                   Z               Mass
    ------------   -----------------  -----------------  -----------------  -----------------
         O           -2.779498794215    -0.916898365920    -0.553297448245    15.994914619570
         O           -2.385445794215     1.260879634080    -0.034715448245    15.994914619570
         C            2.697949205785     0.149308634080    -0.668668448245    12.000000000000
         C            1.459789205785    -0.464609365920    -0.081273448245    12.000000000000
         C            0.346047205785     0.214559634080     0.237270551755    12.000000000000
         C           -0.892428794215    -0.377970365920     0.842238551755    12.000000000000
         C            3.898568205785     0.057607634080     0.279498551755    12.000000000000
         C           -2.139068794215     0.018108634080     0.011656551755    12.000000000000
         H            2.951722205785    -0.353629365920    -1.611618448245     1.007825032230
         H            2.498270205785     1.198972634080    -0.914557448245     1.007825032230
         H            1.498799205785    -1.539319365920     0.112398551755     1.007825032230
         H            0.296079005785     1.384750334080     0.019374751755     1.007825032230
         H           -0.804018794215    -1.467839365920     0.904469551755     1.007825032230
         H           -1.024297794215     0.017775634080     1.859859551755     1.007825032230
         H            4.119682205785    -0.984896365920     0.528125551755     1.007825032230
         H            3.689066205785     0.588524634080     1.212514551755     1.007825032230
         H            4.796251205785     0.494823634080    -0.169209448245     1.007825032230

  Basis Set: AUG-CC-PVTZ
    Blend: AUG-CC-PVTZ
  Basis Set: (AUG-CC-PVTZ AUX)
    Blend: AUG-CC-PVTZ-JKFIT
	 Reference Energy          =    -382.3257601340425254 [Eh]
	 Singles Energy            =      -0.0000000000000000 [Eh]
	 Same-Spin Energy          =      -0.3912661164801223 [Eh]
	 Opposite-Spin Energy      =      -1.2605597340347146 [Eh]
	 Correlation Energy        =      -1.6518258505148369 [Eh]
	 Total Energy              =    -383.9775859845573791 [Eh]

	 ================> DF-SCS-MP2 Energies <==================
	-----------------------------------------------------------
	 SCS Same-Spin Scale       =       0.3333333333333333 [-]
	 SCS Opposite-Spin Scale   =       1.2000000000000000 [-]
	 SCS Same-Spin Energy      =      -0.1304220388267074 [Eh]
	 SCS Opposite-Spin Energy  =      -1.5126716808416574 [Eh]
	 SCS Correlation Energy    =      -1.6430937196683648 [Eh]
	 SCS Total Energy          =    -383.9688538537108684 [Eh]
	-----------------------------------------------------------

  Dipole Moment: [D]
     X:    10.6761      Y:    -0.7565      Z:     1.6735     Total:    10.8329

*** Psi4 exiting successfully. Buy a developer a beer!
