                               Psi4 1.3.2 release

  ==> Input File <==

--------------------------------------------------------------------------
#psi4
#
memory 32 gb

molecule  {
-1 1
  O       -2.9259140    -0.9099280    -0.5693610
  O       -2.5318610     1.2678500    -0.0507790
  C        2.5573322     0.1445275    -0.6846461
  C        1.3133740    -0.4576390    -0.0973370
  C        0.1996320     0.2215300     0.2212070
  C       -1.0388440    -0.3710000     0.8261750
  C        3.7521530     0.0645780     0.2634350
  C       -2.2854840     0.0250790    -0.0044070
  H        2.8053070    -0.3466590    -1.6276820
  H        2.3518550     1.2059430    -0.9306210
  H        1.3613153    -1.5325831     0.0930022
  H        0.1538580     1.2934970     0.0216010
  H       -0.9504340    -1.4608690     0.8884060
  H       -1.1707130     0.0247460     1.8437960
  H        3.9732670    -0.9779260     0.5120620
  H        3.5426510     0.5954950     1.1964510
  H        4.6498360     0.5017940    -0.1852730
units angstrom
no_reorient  #important for SAPT in psi4, default
symmetry c1  #important for SAPT in psi4, default
}

set PROPERTIES_ORIGIN ["COM"]
properties('MP2/aug-cc-pvtz', properties = ['dipole'])
--------------------------------------------------------------------------

    Molecular point group: c1
  Charge       = -1
  Multiplicity = 1
  Basis Set: AUG-CC-PVTZ
    Blend: AUG-CC-PVTZ
  Basis Set: (AUG-CC-PVTZ AUX)
    Blend: AUG-CC-PVTZ-JKFIT

    Orbital Energies [Eh]
    ---------------------

    Doubly Occupied:

       1A    -20.297692     2A    -20.295839     3A    -11.143952
       4A    -11.123612     5A    -11.121429     6A    -11.100558
       7A    -11.095815     8A    -11.069619     9A     -1.165511
      10A     -1.064675    11A     -0.969161    12A     -0.901243
      13A     -0.807019    14A     -0.722330    15A     -0.622059
      16A     -0.533474    17A     -0.514377    18A     -0.500749
      19A     -0.452729    20A     -0.443776    21A     -0.433089
      22A     -0.416757    23A     -0.401196    24A     -0.382635
      25A     -0.371127    26A     -0.348088    27A     -0.324038
      28A     -0.238459    29A     -0.211028    30A     -0.195489
      31A     -0.189213

  @DF-RHF Final Energy:  -382.33272085798740

   => Energetics <=

    Nuclear Repulsion Energy =            338.8321358335291507
    One-Electron Energy =               -1203.4162306890191303
    Two-Electron Energy =                 482.2513739975025828
    Total Energy =                       -382.3327208579873968
  Basis Set: (AUG-CC-PVTZ AUX)
    Blend: AUG-CC-PVTZ-RI
    Molecular point group: c1

    Geometry (in Angstrom), charge = -1, multiplicity = 1:

       Center              X                  Y                   Z               Mass
    ------------   -----------------  -----------------  -----------------  -----------------
         O           -2.780231205510    -0.914773426113    -0.553439892989    15.994914619570
         O           -2.386178205510     1.263004573887    -0.034857892989    15.994914619570
         C            2.703014994490     0.139682073887    -0.668724992989    12.000000000000
         C            1.459056794490    -0.462484426113    -0.081415892989    12.000000000000
         C            0.345314794490     0.216684573887     0.237128107011    12.000000000000
         C           -0.893161205510    -0.375845426113     0.842096107011    12.000000000000
         C            3.897835794490     0.059732573887     0.279356107011    12.000000000000
         C           -2.139801205510     0.020233573887     0.011514107011    12.000000000000
         H            2.950989794490    -0.351504426113    -1.611760892989     1.007825032230
         H            2.497537794490     1.201097573887    -0.914699892989     1.007825032230
         H            1.506998094490    -1.537428526113     0.108923307011     1.007825032230
         H            0.299540794490     1.288651573887     0.037522107011     1.007825032230
         H           -0.804751205510    -1.465714426113     0.904327107011     1.007825032230
         H           -1.025030205510     0.019900573887     1.859717107011     1.007825032230
         H            4.118949794490    -0.982771426113     0.527983107011     1.007825032230
         H            3.688333794490     0.590649573887     1.212372107011     1.007825032230
         H            4.795518794490     0.496948573887    -0.169351892989     1.007825032230

  Basis Set: AUG-CC-PVTZ
    Blend: AUG-CC-PVTZ
  Basis Set: (AUG-CC-PVTZ AUX)
    Blend: AUG-CC-PVTZ-JKFIT
	 Reference Energy          =    -382.3327208579873968 [Eh]
	 Singles Energy            =      -0.0000000000000000 [Eh]
	 Same-Spin Energy          =      -0.3909703779028212 [Eh]
	 Opposite-Spin Energy      =      -1.2596382724578667 [Eh]
	 Correlation Energy        =      -1.6506086503606880 [Eh]
	 Total Energy              =    -383.9833295083481062 [Eh]

	 ================> DF-SCS-MP2 Energies <==================
	-----------------------------------------------------------
	 SCS Same-Spin Scale       =       0.3333333333333333 [-]
	 SCS Opposite-Spin Scale   =       1.2000000000000000 [-]
	 SCS Same-Spin Energy      =      -0.1303234593009404 [Eh]
	 SCS Opposite-Spin Energy  =      -1.5115659269494401 [Eh]
	 SCS Correlation Energy    =      -1.6418893862503805 [Eh]
	 SCS Total Energy          =    -383.9746102442377946 [Eh]
	-----------------------------------------------------------

  Dipole Moment: [D]
     X:    10.7163      Y:    -0.7266      Z:     1.6635     Total:    10.8689

*** Psi4 exiting successfully. Buy a developer a beer!
