                               Psi4 1.3.2 release

  ==> Input File <==

--------------------------------------------------------------------------
#psi4
#
memory 32 gb

molecule  {
-1 1
  O       -2.9354128    -0.9048528    -0.5668846
  O       -2.5318610     1.2678500    -0.0507790
  C        2.5515340     0.1562790    -0.6847320
  C        1.3133740    -0.4576390    -0.0973370
  C        0.1970730     0.2404013     0.2319052
  C       -1.0388440    -0.3710000     0.8261750
  C        3.7521530     0.0645780     0.2634350
  C       -2.2854840     0.0250790    -0.0044070
  H        2.8053070    -0.3466590    -1.6276820
  H        2.3518550     1.2059430    -0.9306210
  H        1.3523840    -1.5323490     0.0963350
  H        0.1538580     1.2934970     0.0216010
  H       -0.9504340    -1.4608690     0.8884060
  H       -1.1707130     0.0247460     1.8437960
  H        3.9732670    -0.9779260     0.5120620
  H        3.5426510     0.5954950     1.1964510
  H        4.6498360     0.5017940    -0.1852730
units angstrom
no_reorient  #important for SAPT in psi4, default
symmetry c1  #important for SAPT in psi4, default
}

set PROPERTIES_ORIGIN ["COM"]
properties('MP2/aug-cc-pvtz', properties = ['dipole'])
--------------------------------------------------------------------------

    Molecular point group: c1
  Charge       = -1
  Multiplicity = 1
  Basis Set: AUG-CC-PVTZ
    Blend: AUG-CC-PVTZ
  Basis Set: (AUG-CC-PVTZ AUX)
    Blend: AUG-CC-PVTZ-JKFIT

    Orbital Energies [Eh]
    ---------------------

    Doubly Occupied:

       1A    -20.297504     2A    -20.295315     3A    -11.143765
       4A    -11.123586     5A    -11.121315     6A    -11.101402
       7A    -11.097775     8A    -11.070084     9A     -1.165488
      10A     -1.064008    11A     -0.967728    12A     -0.900006
      13A     -0.806201    14A     -0.721496    15A     -0.625496
      16A     -0.533144    17A     -0.514796    18A     -0.500077
      19A     -0.451991    20A     -0.443298    21A     -0.432731
      22A     -0.414680    23A     -0.402234    24A     -0.381935
      25A     -0.373503    26A     -0.352465    27A     -0.323478
      28A     -0.236237    29A     -0.210421    30A     -0.195107
      31A     -0.188141

  @DF-RHF Final Energy:  -382.33198988659706

   => Energetics <=

    Nuclear Repulsion Energy =            338.6416301915560325
    One-Electron Energy =               -1203.0364318813315094
    Two-Electron Energy =                 482.0628118031784197
    Total Energy =                       -382.3319898865970572
  Basis Set: (AUG-CC-PVTZ AUX)
    Blend: AUG-CC-PVTZ-RI
    Molecular point group: c1

    Geometry (in Angstrom), charge = -1, multiplicity = 1:

       Center              X                  Y                   Z               Mass
    ------------   -----------------  -----------------  -----------------  -----------------
         O           -2.787419555354    -0.913668559669    -0.552469913495    15.994914619570
         O           -2.383867755354     1.259034240331    -0.036364313495    15.994914619570
         C            2.699527244646     0.147463240331    -0.670317313495    12.000000000000
         C            1.461367244646    -0.466454759669    -0.082922313495    12.000000000000
         C            0.345066244646     0.231585540331     0.246319886505    12.000000000000
         C           -0.890850755354    -0.379815759669     0.840589686505    12.000000000000
         C            3.900146244646     0.055762240331     0.277849686505    12.000000000000
         C           -2.137490755354     0.016263240331     0.010007686505    12.000000000000
         H            2.953300244646    -0.355474759669    -1.613267313495     1.007825032230
         H            2.499848244646     1.197127240331    -0.916206313495     1.007825032230
         H            1.500377244646    -1.541164759669     0.110749686505     1.007825032230
         H            0.301851244646     1.284681240331     0.036015686505     1.007825032230
         H           -0.802440755354    -1.469684759669     0.902820686505     1.007825032230
         H           -1.022719755354     0.015930240331     1.858210686505     1.007825032230
         H            4.121260244646    -0.986741759669     0.526476686505     1.007825032230
         H            3.690644244646     0.586679240331     1.210865686505     1.007825032230
         H            4.797829244646     0.492978240331    -0.170858313495     1.007825032230

  Basis Set: AUG-CC-PVTZ
    Blend: AUG-CC-PVTZ
  Basis Set: (AUG-CC-PVTZ AUX)
    Blend: AUG-CC-PVTZ-JKFIT
	 Reference Energy          =    -382.3319898865970572 [Eh]
	 Singles Energy            =      -0.0000000000000000 [Eh]
	 Same-Spin Energy          =      -0.3910266526567859 [Eh]
	 Opposite-Spin Energy      =      -1.2598401309615737 [Eh]
	 Correlation Energy        =      -1.6508667836183597 [Eh]
	 Total Energy              =    -383.9828566702154262 [Eh]

	 ================> DF-SCS-MP2 Energies <==================
	-----------------------------------------------------------
	 SCS Same-Spin Scale       =       0.3333333333333333 [-]
	 SCS Opposite-Spin Scale   =       1.2000000000000000 [-]
	 SCS Same-Spin Energy      =      -0.1303422175522620 [Eh]
	 SCS Opposite-Spin Energy  =      -1.5118081571538884 [Eh]
	 SCS Correlation Energy    =      -1.6421503747061503 [Eh]
	 SCS Total Energy          =    -383.9741402613032051 [Eh]
	-----------------------------------------------------------

  Dipole Moment: [D]
     X:    10.7255      Y:    -0.7142      Z:     1.6575     Total:    10.8763

*** Psi4 exiting successfully. Buy a developer a beer!
