                               Psi4 1.4a3.dev225

  ==> Input File <==

--------------------------------------------------------------------------
#psi4
#
memory 32 gb

molecule  {
-1 1
  O       -3.0493610    -0.8021490    -0.5876160
  O       -2.4328600     1.2902580     0.0530700
  C        2.5553900     0.3550440    -0.5884220
  C        1.2670208    -0.4095447    -0.1871395
  C        0.2108510     0.1869800     0.3208840
  C       -1.0406500    -0.5396790     0.7060670
  C        3.7725750    -0.0944570     0.2252300
  C       -2.2894080     0.0326700    -0.0161130
  H        2.7644980     0.1992670    -1.6554110
  H        2.3954460     1.4315290    -0.4528260
  H        1.3245080    -1.4678690    -0.3463610
  H        0.1904760     1.2677450     0.4620520
  H       -0.9472880    -1.6102600     0.4951310
  H       -1.2137680    -0.4258540     1.7866990
  H        3.9502020    -1.1668590     0.0980420
  H        3.6128950     0.0963670     1.2904210
  H        4.6769210     0.4370950    -0.0868020
units angstrom
no_reorient  #important for SAPT in psi4, default
symmetry c1  #important for SAPT in psi4, default
}

set PROPERTIES_ORIGIN ["COM"]
properties('MP2/aug-cc-pvtz', properties = ['dipole'])
--------------------------------------------------------------------------

    Molecular point group: c1
  Charge       = -1
  Multiplicity = 1
  Basis Set: AUG-CC-PVTZ
    Blend: AUG-CC-PVTZ
  Basis Set: (AUG-CC-PVTZ AUX)
    Blend: AUG-CC-PVTZ-JKFIT

    Orbital Energies [Eh]
    ---------------------

    Doubly Occupied:

       1A    -20.297345     2A    -20.295735     3A    -11.143645
       4A    -11.123177     5A    -11.121936     6A    -11.094543
       7A    -11.092057     8A    -11.067707     9A     -1.165487
      10A     -1.064993    11A     -0.965590    12A     -0.903005
      13A     -0.803780    14A     -0.721208    15A     -0.625175
      16A     -0.531407    17A     -0.511468    18A     -0.499669
      19A     -0.455046    20A     -0.444536    21A     -0.432860
      22A     -0.412616    23A     -0.402379    24A     -0.384211
      25A     -0.371455    26A     -0.342845    27A     -0.320606
      28A     -0.243625    29A     -0.211442    30A     -0.195936
      31A     -0.189921

  @DF-RHF Final Energy:  -382.33261258259165

   => Energetics <=

    Nuclear Repulsion Energy =            338.7418747426335131
    One-Electron Energy =               -1203.2781629248136142
    Two-Electron Energy =                 482.2036755995884505
    Total Energy =                       -382.3326125825916506
  Basis Set: (AUG-CC-PVTZ AUX)
    Blend: AUG-CC-PVTZ-RI
    Molecular point group: c1

    Geometry (in Angstrom), charge = -1, multiplicity = 1:

       Center              X                  Y                   Z               Mass
    ------------   -----------------  -----------------  -----------------  -----------------
         O           -2.898173285426    -0.810382560315    -0.575051501183    15.994914619570
         O           -2.281672285426     1.282024439685     0.065634498817    15.994914619570
         C            2.706577714574     0.346810439685    -0.575857501183    12.000000000000
         C            1.418208514574    -0.417778260315    -0.174575001183    12.000000000000
         C            0.362038714574     0.178746439685     0.333448498817    12.000000000000
         C           -0.889462285426    -0.547912560315     0.718631498817    12.000000000000
         C            3.923762714574    -0.102690560315     0.237794498817    12.000000000000
         C           -2.138220285426     0.024436439685    -0.003548501183    12.000000000000
         H            2.915685714574     0.191033439685    -1.642846501183     1.007825032230
         H            2.546633714574     1.423295439685    -0.440261501183     1.007825032230
         H            1.475695714574    -1.476102560315    -0.333796501183     1.007825032230
         H            0.341663714574     1.259511439685     0.474616498817     1.007825032230
         H           -0.796100285426    -1.618493560315     0.507695498817     1.007825032230
         H           -1.062580285426    -0.434087560315     1.799263498817     1.007825032230
         H            4.101389714574    -1.175092560315     0.110606498817     1.007825032230
         H            3.764082714574     0.088133439685     1.302985498817     1.007825032230
         H            4.828108714574     0.428861439685    -0.074237501183     1.007825032230

  Basis Set: AUG-CC-PVTZ
    Blend: AUG-CC-PVTZ
  Basis Set: (AUG-CC-PVTZ AUX)
    Blend: AUG-CC-PVTZ-JKFIT
	 Reference Energy          =    -382.3326125825916506 [Eh]
	 Singles Energy            =      -0.0000000000000000 [Eh]
	 Same-Spin Energy          =      -0.3902810548425892 [Eh]
	 Opposite-Spin Energy      =      -1.2584947954627324 [Eh]
	 Correlation Energy        =      -1.6487758503053216 [Eh]
	 Total Energy              =    -383.9813884328969493 [Eh]

	 ================> DF-SCS-MP2 Energies <==================
	-----------------------------------------------------------
	 SCS Same-Spin Scale       =       0.3333333333333333 [-]
	 SCS Opposite-Spin Scale   =       1.2000000000000000 [-]
	 SCS Same-Spin Energy      =      -0.1300936849475297 [Eh]
	 SCS Opposite-Spin Energy  =      -1.5101937545552788 [Eh]
	 SCS Correlation Energy    =      -1.6402874395028086 [Eh]
	 SCS Total Energy          =    -383.9729000220944499 [Eh]
	-----------------------------------------------------------

  Dipole Moment: [D]
     X:    10.7211      Y:    -1.0522      Z:     1.4838     Total:    10.8743

*** Psi4 exiting successfully. Buy a developer a beer!
