                               Psi4 1.4a3.dev225

  ==> Input File <==

--------------------------------------------------------------------------
#psi4
#
memory 32 gb

molecule  {
-1 1
  O       -3.0493610    -0.8021490    -0.5876160
  O       -2.4328600     1.2902580     0.0530700
  C        2.5553900     0.3550440    -0.5884220
  C        1.3085550    -0.3848960    -0.2000760
  C        0.2108510     0.1869800     0.3208840
  C       -1.0406500    -0.5396790     0.7060670
  C        3.7725750    -0.0944570     0.2252300
  C       -2.2773961     0.0458652    -0.0070798
  H        2.7644980     0.1992670    -1.6554110
  H        2.3954460     1.4315290    -0.4528260
  H        1.3245080    -1.4678690    -0.3463610
  H        0.1904760     1.2677450     0.4620520
  H       -0.9472880    -1.6102600     0.4951310
  H       -1.2137680    -0.4258540     1.7866990
  H        3.9502020    -1.1668590     0.0980420
  H        3.6128950     0.0963670     1.2904210
  H        4.6769210     0.4370950    -0.0868020
units angstrom
no_reorient  #important for SAPT in psi4, default
symmetry c1  #important for SAPT in psi4, default
}

set PROPERTIES_ORIGIN ["COM"]
properties('MP2/aug-cc-pvtz', properties = ['dipole'])
--------------------------------------------------------------------------

    Molecular point group: c1
  Charge       = -1
  Multiplicity = 1
  Basis Set: AUG-CC-PVTZ
    Blend: AUG-CC-PVTZ
  Basis Set: (AUG-CC-PVTZ AUX)
    Blend: AUG-CC-PVTZ-JKFIT

    Orbital Energies [Eh]
    ---------------------

    Doubly Occupied:

       1A    -20.299803     2A    -20.293257     3A    -11.144442
       4A    -11.123867     5A    -11.121293     6A    -11.099509
       7A    -11.095642     8A    -11.070186     9A     -1.165223
      10A     -1.060900    11A     -0.969322    12A     -0.901714
      13A     -0.807998    14A     -0.722930    15A     -0.623178
      16A     -0.533980    17A     -0.514010    18A     -0.501879
      19A     -0.454045    20A     -0.443299    21A     -0.433660
      22A     -0.415103    23A     -0.399962    24A     -0.383312
      25A     -0.375554    26A     -0.345607    27A     -0.322843
      28A     -0.238796    29A     -0.211098    30A     -0.194604
      31A     -0.188588

  @DF-RHF Final Energy:  -382.33229698395479

   => Energetics <=

    Nuclear Repulsion Energy =            338.7257272566422444
    One-Electron Energy =               -1203.2048397936919173
    Two-Electron Energy =                 482.1468155530948820
    Total Energy =                       -382.3322969839547909
  Basis Set: (AUG-CC-PVTZ AUX)
    Blend: AUG-CC-PVTZ-RI
    Molecular point group: c1

    Geometry (in Angstrom), charge = -1, multiplicity = 1:

       Center              X                  Y                   Z               Mass
    ------------   -----------------  -----------------  -----------------  -----------------
         O           -2.903856566458    -0.814399239757    -0.574637212358    15.994914619570
         O           -2.287355566458     1.278007760243     0.066048787642    15.994914619570
         C            2.700894433542     0.342793760243    -0.575443212358    12.000000000000
         C            1.454059433542    -0.397146239757    -0.187097212358    12.000000000000
         C            0.356355433542     0.174729760243     0.333862787642    12.000000000000
         C           -0.895145566458    -0.551929239757     0.719045787642    12.000000000000
         C            3.918079433542    -0.106707239757     0.238208787642    12.000000000000
         C           -2.131891666458     0.033614960243     0.005898987642    12.000000000000
         H            2.910002433542     0.187016760243    -1.642432212358     1.007825032230
         H            2.540950433542     1.419278760243    -0.439847212358     1.007825032230
         H            1.470012433542    -1.480119239757    -0.333382212358     1.007825032230
         H            0.335980433542     1.255494760243     0.475030787642     1.007825032230
         H           -0.801783566458    -1.622510239757     0.508109787642     1.007825032230
         H           -1.068263566458    -0.438104239757     1.799677787642     1.007825032230
         H            4.095706433542    -1.179109239757     0.111020787642     1.007825032230
         H            3.758399433542     0.084116760243     1.303399787642     1.007825032230
         H            4.822425433542     0.424844760243    -0.073823212358     1.007825032230

  Basis Set: AUG-CC-PVTZ
    Blend: AUG-CC-PVTZ
  Basis Set: (AUG-CC-PVTZ AUX)
    Blend: AUG-CC-PVTZ-JKFIT
	 Reference Energy          =    -382.3322969839547909 [Eh]
	 Singles Energy            =      -0.0000000000000000 [Eh]
	 Same-Spin Energy          =      -0.3910596459503090 [Eh]
	 Opposite-Spin Energy      =      -1.2597629717768428 [Eh]
	 Correlation Energy        =      -1.6508226177271519 [Eh]
	 Total Energy              =    -383.9831196016819490 [Eh]

	 ================> DF-SCS-MP2 Energies <==================
	-----------------------------------------------------------
	 SCS Same-Spin Scale       =       0.3333333333333333 [-]
	 SCS Opposite-Spin Scale   =       1.2000000000000000 [-]
	 SCS Same-Spin Energy      =      -0.1303532153167697 [Eh]
	 SCS Opposite-Spin Energy  =      -1.5117155661322113 [Eh]
	 SCS Correlation Energy    =      -1.6420687814489809 [Eh]
	 SCS Total Energy          =    -383.9743657654037747 [Eh]
	-----------------------------------------------------------

  Dipole Moment: [D]
     X:    10.8490      Y:    -0.8671      Z:     1.5491     Total:    10.9932

*** Psi4 exiting successfully. Buy a developer a beer!
