                               Psi4 1.3.2 release

  ==> Input File <==

--------------------------------------------------------------------------
#psi4
#
memory 32 gb

molecule  {
-1 1
  O       -2.9535230    -0.8797974    -0.5862010
  O       -2.5665331     1.2592143    -0.0768856
  C        2.5515340     0.1562790    -0.6847320
  C        1.3133740    -0.4576390    -0.0973370
  C        0.1996320     0.2215300     0.2212070
  C       -1.0388440    -0.3710000     0.8261750
  C        3.7521530     0.0645780     0.2634350
  C       -2.2854840     0.0250790    -0.0044070
  H        2.8053070    -0.3466590    -1.6276820
  H        2.3518550     1.2059430    -0.9306210
  H        1.3523840    -1.5323490     0.0963350
  H        0.1538580     1.2934970     0.0216010
  H       -0.9504340    -1.4608690     0.8884060
  H       -1.1707130     0.0247460     1.8437960
  H        3.9732670    -0.9779260     0.5120620
  H        3.5426510     0.5954950     1.1964510
  H        4.6498360     0.5017940    -0.1852730
units angstrom
no_reorient  #important for SAPT in psi4, default
symmetry c1  #important for SAPT in psi4, default
}

set PROPERTIES_ORIGIN ["COM"]
properties('MP2/aug-cc-pvtz', properties = ['dipole'])
--------------------------------------------------------------------------

    Molecular point group: c1
  Charge       = -1
  Multiplicity = 1
  Basis Set: AUG-CC-PVTZ
    Blend: AUG-CC-PVTZ
  Basis Set: (AUG-CC-PVTZ AUX)
    Blend: AUG-CC-PVTZ-JKFIT

    Orbital Energies [Eh]
    ---------------------

    Doubly Occupied:

       1A    -20.293375     2A    -20.291543     3A    -11.141719
       4A    -11.124842     5A    -11.122779     6A    -11.102374
       7A    -11.097939     8A    -11.074354     9A     -1.164759
      10A     -1.056588    11A     -0.970655    12A     -0.903110
      13A     -0.809569    14A     -0.724438    15A     -0.624335
      16A     -0.533730    17A     -0.515716    18A     -0.501606
      19A     -0.454561    20A     -0.444457    21A     -0.432915
      22A     -0.415894    23A     -0.400104    24A     -0.384014
      25A     -0.372849    26A     -0.349402    27A     -0.323635
      28A     -0.239828    29A     -0.203731    30A     -0.192367
      31A     -0.190078

  @DF-RHF Final Energy:  -382.33112176557387

   => Energetics <=

    Nuclear Repulsion Energy =            338.4754574619560685
    One-Electron Energy =               -1202.6986269222404644
    Two-Electron Energy =                 481.8920476947105840
    Total Energy =                       -382.3311217655738687
  Basis Set: (AUG-CC-PVTZ AUX)
    Blend: AUG-CC-PVTZ-RI
    Molecular point group: c1

    Geometry (in Angstrom), charge = -1, multiplicity = 1:

       Center              X                  Y                   Z               Mass
    ------------   -----------------  -----------------  -----------------  -----------------
         O           -2.798334119847    -0.888933131526    -0.564224722462    15.994914619570
         O           -2.411344219847     1.250078568474    -0.054909322462    15.994914619570
         C            2.706722880153     0.147143268474    -0.662755722462    12.000000000000
         C            1.468562880153    -0.466774731526    -0.075360722462    12.000000000000
         C            0.354820880153     0.212394268474     0.243183277538    12.000000000000
         C           -0.883655119847    -0.380135731526     0.848151277538    12.000000000000
         C            3.907341880153     0.055442268474     0.285411277538    12.000000000000
         C           -2.130295119847     0.015943268474     0.017569277538    12.000000000000
         H            2.960495880153    -0.355794731526    -1.605705722462     1.007825032230
         H            2.507043880153     1.196807268474    -0.908644722462     1.007825032230
         H            1.507572880153    -1.541484731526     0.118311277538     1.007825032230
         H            0.309046880153     1.284361268474     0.043577277538     1.007825032230
         H           -0.795245119847    -1.470004731526     0.910382277538     1.007825032230
         H           -1.015524119847     0.015610268474     1.865772277538     1.007825032230
         H            4.128455880153    -0.987061731526     0.534038277538     1.007825032230
         H            3.697839880153     0.586359268474     1.218427277538     1.007825032230
         H            4.805024880153     0.492658268474    -0.163296722462     1.007825032230

  Basis Set: AUG-CC-PVTZ
    Blend: AUG-CC-PVTZ
  Basis Set: (AUG-CC-PVTZ AUX)
    Blend: AUG-CC-PVTZ-JKFIT
	 Reference Energy          =    -382.3311217655738687 [Eh]
	 Singles Energy            =      -0.0000000000000000 [Eh]
	 Same-Spin Energy          =      -0.3908364258599040 [Eh]
	 Opposite-Spin Energy      =      -1.2594892926310399 [Eh]
	 Correlation Energy        =      -1.6503257184909439 [Eh]
	 Total Energy              =    -383.9814474840648018 [Eh]

	 ================> DF-SCS-MP2 Energies <==================
	-----------------------------------------------------------
	 SCS Same-Spin Scale       =       0.3333333333333333 [-]
	 SCS Opposite-Spin Scale   =       1.2000000000000000 [-]
	 SCS Same-Spin Energy      =      -0.1302788086199680 [Eh]
	 SCS Opposite-Spin Energy  =      -1.5113871511572479 [Eh]
	 SCS Correlation Energy    =      -1.6416659597772159 [Eh]
	 SCS Total Energy          =    -383.9727877253511110 [Eh]
	-----------------------------------------------------------

  Dipole Moment: [D]
     X:    10.9535      Y:    -0.7759      Z:     1.7720     Total:    11.1230

*** Psi4 exiting successfully. Buy a developer a beer!
