                               Psi4 1.3.2 release

  ==> Input File <==

--------------------------------------------------------------------------
#psi4
#
memory 32 gb

molecule  {
-1 1
  O       -2.9259140    -0.9099280    -0.5693610
  O       -2.5318610     1.2678500    -0.0507790
  C        2.5515340     0.1562790    -0.6847320
  C        1.3140977    -0.4493064    -0.0872489
  C        0.1996320     0.2215300     0.2212070
  C       -1.0388440    -0.3710000     0.8261750
  C        3.7521530     0.0645780     0.2634350
  C       -2.2854840     0.0250790    -0.0044070
  H        2.8129002    -0.3408922    -1.6286655
  H        2.3518550     1.2059430    -0.9306210
  H        1.3523840    -1.5323490     0.0963350
  H        0.1538580     1.2934970     0.0216010
  H       -0.9504340    -1.4608690     0.8884060
  H       -1.1707130     0.0247460     1.8437960
  H        3.9732670    -0.9779260     0.5120620
  H        3.5426510     0.5954950     1.1964510
  H        4.6498360     0.5017940    -0.1852730
units angstrom
no_reorient  #important for SAPT in psi4, default
symmetry c1  #important for SAPT in psi4, default
}

set PROPERTIES_ORIGIN ["COM"]
properties('MP2/aug-cc-pvtz', properties = ['dipole'])
--------------------------------------------------------------------------

    Molecular point group: c1
  Charge       = -1
  Multiplicity = 1
  Basis Set: AUG-CC-PVTZ
    Blend: AUG-CC-PVTZ
  Basis Set: (AUG-CC-PVTZ AUX)
    Blend: AUG-CC-PVTZ-JKFIT

    Orbital Energies [Eh]
    ---------------------

    Doubly Occupied:

       1A    -20.297691     2A    -20.295815     3A    -11.143932
       4A    -11.123556     5A    -11.121515     6A    -11.099353
       7A    -11.095576     8A    -11.069579     9A     -1.165503
      10A     -1.064666    11A     -0.969401    12A     -0.901341
      13A     -0.806870    14A     -0.723094    15A     -0.621284
      16A     -0.533572    17A     -0.514208    18A     -0.501097
      19A     -0.452726    20A     -0.442685    21A     -0.432975
      22A     -0.414606    23A     -0.401473    24A     -0.383801
      25A     -0.372630    26A     -0.347722    27A     -0.324057
      28A     -0.238983    29A     -0.211017    30A     -0.195479
      31A     -0.189736

  @DF-RHF Final Energy:  -382.33312654613985

   => Energetics <=

    Nuclear Repulsion Energy =            338.9088055876791259
    One-Electron Energy =               -1203.5719773159019041
    Two-Electron Energy =                 482.3300451820829267
    Total Energy =                       -382.3331265461398516
  Basis Set: (AUG-CC-PVTZ AUX)
    Blend: AUG-CC-PVTZ-RI
    Molecular point group: c1

    Geometry (in Angstrom), charge = -1, multiplicity = 1:

       Center              X                  Y                   Z               Mass
    ------------   -----------------  -----------------  -----------------  -----------------
         O           -2.779680679855    -0.916958606557    -0.554522449223    15.994914619570
         O           -2.385627679855     1.260819393443    -0.035940449223    15.994914619570
         C            2.697767320145     0.149248393443    -0.669893449223    12.000000000000
         C            1.460331020145    -0.456337006557    -0.072410349223    12.000000000000
         C            0.345865320145     0.214499393443     0.236045550777    12.000000000000
         C           -0.892610679855    -0.378030606557     0.841013550777    12.000000000000
         C            3.898386320145     0.057547393443     0.278273550777    12.000000000000
         C           -2.139250679855     0.018048393443     0.010431550777    12.000000000000
         H            2.959133520145    -0.347922806557    -1.613826949223     1.007825032230
         H            2.498088320145     1.198912393443    -0.915782449223     1.007825032230
         H            1.498617320145    -1.539379606557     0.111173550777     1.007825032230
         H            0.300091320145     1.286466393443     0.036439550777     1.007825032230
         H           -0.804200679855    -1.467899606557     0.903244550777     1.007825032230
         H           -1.024479679855     0.017715393443     1.858634550777     1.007825032230
         H            4.119500320145    -0.984956606557     0.526900550777     1.007825032230
         H            3.688884320145     0.588464393443     1.211289550777     1.007825032230
         H            4.796069320145     0.494763393443    -0.170434449223     1.007825032230

  Basis Set: AUG-CC-PVTZ
    Blend: AUG-CC-PVTZ
  Basis Set: (AUG-CC-PVTZ AUX)
    Blend: AUG-CC-PVTZ-JKFIT
	 Reference Energy          =    -382.3331265461398516 [Eh]
	 Singles Energy            =      -0.0000000000000000 [Eh]
	 Same-Spin Energy          =      -0.3908985152577855 [Eh]
	 Opposite-Spin Energy      =      -1.2594623271270315 [Eh]
	 Correlation Energy        =      -1.6503608423848171 [Eh]
	 Total Energy              =    -383.9834873885246793 [Eh]

	 ================> DF-SCS-MP2 Energies <==================
	-----------------------------------------------------------
	 SCS Same-Spin Scale       =       0.3333333333333333 [-]
	 SCS Opposite-Spin Scale   =       1.2000000000000000 [-]
	 SCS Same-Spin Energy      =      -0.1302995050859285 [Eh]
	 SCS Opposite-Spin Energy  =      -1.5113547925524378 [Eh]
	 SCS Correlation Energy    =      -1.6416542976383663 [Eh]
	 SCS Total Energy          =    -383.9747808437782055 [Eh]
	-----------------------------------------------------------

  Dipole Moment: [D]
     X:    10.7081      Y:    -0.7086      Z:     1.6532     Total:    10.8581

*** Psi4 exiting successfully. Buy a developer a beer!
