                               Psi4 1.3.2 release

  ==> Input File <==

--------------------------------------------------------------------------
#psi4
#
memory 32 gb

molecule  {
-1 1
  O       -2.9259140    -0.9099280    -0.5693610
  O       -2.5318610     1.2678500    -0.0507790
  C        2.5515340     0.1562790    -0.6847320
  C        1.3133740    -0.4576390    -0.0973370
  C        0.1996320     0.2215300     0.2212070
  C       -1.0152477    -0.4177496     0.8264259
  C        3.7521530     0.0645780     0.2634350
  C       -2.2854840     0.0250790    -0.0044070
  H        2.8053070    -0.3466590    -1.6276820
  H        2.3518550     1.2059430    -0.9306210
  H        1.3523840    -1.5323490     0.0963350
  H        0.1894113     1.2918109     0.0080278
  H       -0.9504340    -1.4608690     0.8884060
  H       -1.1707130     0.0247460     1.8437960
  H        3.9732670    -0.9779260     0.5120620
  H        3.5426510     0.5954950     1.1964510
  H        4.6498360     0.5017940    -0.1852730
units angstrom
no_reorient  #important for SAPT in psi4, default
symmetry c1  #important for SAPT in psi4, default
}

set PROPERTIES_ORIGIN ["COM"]
properties('MP2/aug-cc-pvtz', properties = ['dipole'])
--------------------------------------------------------------------------

    Molecular point group: c1
  Charge       = -1
  Multiplicity = 1
  Basis Set: AUG-CC-PVTZ
    Blend: AUG-CC-PVTZ
  Basis Set: (AUG-CC-PVTZ AUX)
    Blend: AUG-CC-PVTZ-JKFIT

    Orbital Energies [Eh]
    ---------------------

    Doubly Occupied:

       1A    -20.297678     2A    -20.297446     3A    -11.146273
       4A    -11.123188     5A    -11.120630     6A    -11.099798
       7A    -11.093447     8A    -11.068765     9A     -1.165034
      10A     -1.064870    11A     -0.968645    12A     -0.900567
      13A     -0.805167    14A     -0.721478    15A     -0.622379
      16A     -0.531223    17A     -0.514472    18A     -0.498148
      19A     -0.454077    20A     -0.442808    21A     -0.428904
      22A     -0.413958    23A     -0.401418    24A     -0.381592
      25A     -0.376828    26A     -0.356423    27A     -0.323821
      28A     -0.237787    29A     -0.212340    30A     -0.196158
      31A     -0.184161

  @DF-RHF Final Energy:  -382.32992251395382

   => Energetics <=

    Nuclear Repulsion Energy =            338.5316832668640359
    One-Electron Energy =               -1202.8242444534355400
    Two-Electron Energy =                 481.9626386726176293
    Total Energy =                       -382.3299225139538180
  Basis Set: (AUG-CC-PVTZ AUX)
    Blend: AUG-CC-PVTZ-RI
    Molecular point group: c1

    Geometry (in Angstrom), charge = -1, multiplicity = 1:

       Center              X                  Y                   Z               Mass
    ------------   -----------------  -----------------  -----------------  -----------------
         O           -2.782357571836    -0.911045851257    -0.553366122312    15.994914619570
         O           -2.388304571836     1.266732148743    -0.034784122312    15.994914619570
         C            2.695090428164     0.155161148743    -0.668737122312    12.000000000000
         C            1.456930428164    -0.458756851257    -0.081342122312    12.000000000000
         C            0.343188428164     0.220412148743     0.237201877688    12.000000000000
         C           -0.871691271836    -0.418867451257     0.842420777688    12.000000000000
         C            3.895709428164     0.063460148743     0.279429877688    12.000000000000
         C           -2.141927571836     0.023961148743     0.011587877688    12.000000000000
         H            2.948863428164    -0.347776851257    -1.611687122312     1.007825032230
         H            2.495411428164     1.204825148743    -0.914626122312     1.007825032230
         H            1.495940428164    -1.533466851257     0.112329877688     1.007825032230
         H            0.332967728164     1.290693048743     0.024022677688     1.007825032230
         H           -0.806877571836    -1.461986851257     0.904400877688     1.007825032230
         H           -1.027156571836     0.023628148743     1.859790877688     1.007825032230
         H            4.116823428164    -0.979043851257     0.528056877688     1.007825032230
         H            3.686207428164     0.594377148743     1.212445877688     1.007825032230
         H            4.793392428164     0.500676148743    -0.169278122312     1.007825032230

  Basis Set: AUG-CC-PVTZ
    Blend: AUG-CC-PVTZ
  Basis Set: (AUG-CC-PVTZ AUX)
    Blend: AUG-CC-PVTZ-JKFIT
	 Reference Energy          =    -382.3299225139538180 [Eh]
	 Singles Energy            =      -0.0000000000000000 [Eh]
	 Same-Spin Energy          =      -0.3910642456897478 [Eh]
	 Opposite-Spin Energy      =      -1.2596275854658885 [Eh]
	 Correlation Energy        =      -1.6506918311556364 [Eh]
	 Total Energy              =    -383.9806143451094727 [Eh]

	 ================> DF-SCS-MP2 Energies <==================
	-----------------------------------------------------------
	 SCS Same-Spin Scale       =       0.3333333333333333 [-]
	 SCS Opposite-Spin Scale   =       1.2000000000000000 [-]
	 SCS Same-Spin Energy      =      -0.1303547485632493 [Eh]
	 SCS Opposite-Spin Energy  =      -1.5115531025590661 [Eh]
	 SCS Correlation Energy    =      -1.6419078511223153 [Eh]
	 SCS Total Energy          =    -383.9718303650761300 [Eh]
	-----------------------------------------------------------

  Dipole Moment: [D]
     X:    10.6468      Y:    -0.7512      Z:     1.6319     Total:    10.7973

*** Psi4 exiting successfully. Buy a developer a beer!
