                               Psi4 1.3.2 release

  ==> Input File <==

--------------------------------------------------------------------------
#psi4
#
memory 32 gb

molecule  {
-1 1
  O       -2.9259140    -0.9099280    -0.5693610
  O       -2.5318610     1.2678500    -0.0507790
  C        2.5515340     0.1562790    -0.6847320
  C        1.3060710    -0.3271996    -0.1186877
  C        0.2317026     0.1498309     0.2217353
  C       -1.0388440    -0.3710000     0.8261750
  C        3.7521530     0.0645780     0.2634350
  C       -2.2854840     0.0250790    -0.0044070
  H        2.8053070    -0.3466590    -1.6276820
  H        2.3518550     1.2059430    -0.9306210
  H        1.3523840    -1.5323490     0.0963350
  H        0.1538580     1.2934970     0.0216010
  H       -0.9504340    -1.4608690     0.8884060
  H       -1.1707130     0.0247460     1.8437960
  H        3.9732670    -0.9779260     0.5120620
  H        3.5426510     0.5954950     1.1964510
  H        4.6498360     0.5017940    -0.1852730
units angstrom
no_reorient  #important for SAPT in psi4, default
symmetry c1  #important for SAPT in psi4, default
}

set PROPERTIES_ORIGIN ["COM"]
properties('MP2/aug-cc-pvtz', properties = ['dipole'])
--------------------------------------------------------------------------

    Molecular point group: c1
  Charge       = -1
  Multiplicity = 1
  Basis Set: AUG-CC-PVTZ
    Blend: AUG-CC-PVTZ
  Basis Set: (AUG-CC-PVTZ AUX)
    Blend: AUG-CC-PVTZ-JKFIT

    Orbital Energies [Eh]
    ---------------------

    Doubly Occupied:

       1A    -20.298577     2A    -20.296187     3A    -11.145486
       4A    -11.127656     5A    -11.124190     6A    -11.092316
       7A    -11.087366     8A    -11.073471     9A     -1.166034
      10A     -1.065150    11A     -0.989526    12A     -0.912902
      13A     -0.817129    14A     -0.743001    15A     -0.592807
      16A     -0.540193    17A     -0.518853    18A     -0.505656
      19A     -0.459026    20A     -0.439520    21A     -0.436097
      22A     -0.422817    23A     -0.408445    24A     -0.392250
      25A     -0.362833    26A     -0.333243    27A     -0.295936
      28A     -0.262362    29A     -0.211319    30A     -0.199184
      31A     -0.195365

  @DF-RHF Final Energy:  -382.29672238850748

   => Energetics <=

    Nuclear Repulsion Energy =            340.4587793822033177
    One-Electron Energy =               -1206.4812112555812291
    Two-Electron Energy =                 483.7257094848703787
    Total Energy =                       -382.2967223885074759
  Basis Set: (AUG-CC-PVTZ AUX)
    Blend: AUG-CC-PVTZ-RI
    Molecular point group: c1

    Geometry (in Angstrom), charge = -1, multiplicity = 1:

       Center              X                  Y                   Z               Mass
    ------------   -----------------  -----------------  -----------------  -----------------
         O           -2.782164967407    -0.922257378235    -0.551250434618    15.994914619570
         O           -2.388111967407     1.255520621765    -0.032668434618    15.994914619570
         C            2.695283032593     0.143949621765    -0.666621434618    12.000000000000
         C            1.449820032593    -0.339528978235    -0.100577134618    12.000000000000
         C            0.375451632593     0.137501521765     0.239845865382    12.000000000000
         C           -0.895094967407    -0.383329378235     0.844285565382    12.000000000000
         C            3.895902032593     0.052248621765     0.281545565382    12.000000000000
         C           -2.141734967407     0.012749621765     0.013703565382    12.000000000000
         H            2.949056032593    -0.358988378235    -1.609571434618     1.007825032230
         H            2.495604032593     1.193613621765    -0.912510434618     1.007825032230
         H            1.496133032593    -1.544678378235     0.114445565382     1.007825032230
         H            0.297607032593     1.281167621765     0.039711565382     1.007825032230
         H           -0.806684967407    -1.473198378235     0.906516565382     1.007825032230
         H           -1.026963967407     0.012416621765     1.861906565382     1.007825032230
         H            4.117016032593    -0.990255378235     0.530172565382     1.007825032230
         H            3.686400032593     0.583165621765     1.214561565382     1.007825032230
         H            4.793585032593     0.489464621765    -0.167162434618     1.007825032230

  Basis Set: AUG-CC-PVTZ
    Blend: AUG-CC-PVTZ
  Basis Set: (AUG-CC-PVTZ AUX)
    Blend: AUG-CC-PVTZ-JKFIT
	 Reference Energy          =    -382.2967223885074759 [Eh]
	 Singles Energy            =      -0.0000000000000000 [Eh]
	 Same-Spin Energy          =      -0.3914821807186666 [Eh]
	 Opposite-Spin Energy      =      -1.2597776087749601 [Eh]
	 Correlation Energy        =      -1.6512597894936267 [Eh]
	 Total Energy              =    -383.9479821780010980 [Eh]

	 ================> DF-SCS-MP2 Energies <==================
	-----------------------------------------------------------
	 SCS Same-Spin Scale       =       0.3333333333333333 [-]
	 SCS Opposite-Spin Scale   =       1.2000000000000000 [-]
	 SCS Same-Spin Energy      =      -0.1304940602395555 [Eh]
	 SCS Opposite-Spin Energy  =      -1.5117331305299522 [Eh]
	 SCS Correlation Energy    =      -1.6422271907695076 [Eh]
	 SCS Total Energy          =    -383.9389495792769935 [Eh]
	-----------------------------------------------------------

  Dipole Moment: [D]
     X:    10.7964      Y:    -0.5741      Z:     1.6211     Total:    10.9325

*** Psi4 exiting successfully. Buy a developer a beer!
