                               Psi4 1.3.2 release

  ==> Input File <==

--------------------------------------------------------------------------
#psi4
#
memory 32 gb

molecule  {
-1 1
  O       -2.9259140    -0.9099280    -0.5693610
  O       -2.5318610     1.2678500    -0.0507790
  C        2.5515340     0.1562790    -0.6847320
  C        1.3133740    -0.4576390    -0.0973370
  C        0.1996320     0.2215300     0.2212070
  C       -1.0531196    -0.3599463     0.8072100
  C        3.7521530     0.0645780     0.2634350
  C       -2.2863923     0.0001998     0.0314910
  H        2.8053070    -0.3466590    -1.6276820
  H        2.3518550     1.2059430    -0.9306210
  H        1.3523840    -1.5323490     0.0963350
  H        0.1538580     1.2934970     0.0216010
  H       -0.9504340    -1.4608690     0.8884060
  H       -1.1707130     0.0247460     1.8437960
  H        3.9732670    -0.9779260     0.5120620
  H        3.5426510     0.5954950     1.1964510
  H        4.6498360     0.5017940    -0.1852730
units angstrom
no_reorient  #important for SAPT in psi4, default
symmetry c1  #important for SAPT in psi4, default
}

set PROPERTIES_ORIGIN ["COM"]
properties('MP2/aug-cc-pvtz', properties = ['dipole'])
--------------------------------------------------------------------------

    Molecular point group: c1
  Charge       = -1
  Multiplicity = 1
  Basis Set: AUG-CC-PVTZ
    Blend: AUG-CC-PVTZ
  Basis Set: (AUG-CC-PVTZ AUX)
    Blend: AUG-CC-PVTZ-JKFIT

    Orbital Energies [Eh]
    ---------------------

    Doubly Occupied:

       1A    -20.299993     2A    -20.290234     3A    -11.142735
       4A    -11.124730     5A    -11.122866     6A    -11.102361
       7A    -11.098320     8A    -11.073595     9A     -1.160185
      10A     -1.054767    11A     -0.970506    12A     -0.903252
      13A     -0.812091    14A     -0.726458    15A     -0.624964
      16A     -0.539417    17A     -0.515019    18A     -0.501902
      19A     -0.454607    20A     -0.443859    21A     -0.431954
      22A     -0.416308    23A     -0.401293    24A     -0.384489
      25A     -0.371388    26A     -0.343440    27A     -0.317962
      28A     -0.238649    29A     -0.205463    30A     -0.196378
      31A     -0.190925

  @DF-RHF Final Energy:  -382.32768670901442

   => Energetics <=

    Nuclear Repulsion Energy =            338.9851672350694685
    One-Electron Energy =               -1203.7054900880143578
    Two-Electron Energy =                 482.3926361439305310
    Total Energy =                       -382.3276867090144151
  Basis Set: (AUG-CC-PVTZ AUX)
    Blend: AUG-CC-PVTZ-RI
    Molecular point group: c1

    Geometry (in Angstrom), charge = -1, multiplicity = 1:

       Center              X                  Y                   Z               Mass
    ------------   -----------------  -----------------  -----------------  -----------------
         O           -2.777924591318    -0.914555382484    -0.555257720838    15.994914619570
         O           -2.383871591318     1.263222617516    -0.036675720838    15.994914619570
         C            2.699523408682     0.151651617516    -0.670628720838    12.000000000000
         C            1.461363408682    -0.462266382484    -0.083233720838    12.000000000000
         C            0.347621408682     0.216902617516     0.235310279162    12.000000000000
         C           -0.905130191318    -0.364573682484     0.821313279162    12.000000000000
         C            3.900142408682     0.059950617516     0.277538279162    12.000000000000
         C           -2.138402891318    -0.004427582484     0.045594279162    12.000000000000
         H            2.953296408682    -0.351286382484    -1.613578720838     1.007825032230
         H            2.499844408682     1.201315617516    -0.916517720838     1.007825032230
         H            1.500373408682    -1.536976382484     0.110438279162     1.007825032230
         H            0.301847408682     1.288869617516     0.035704279162     1.007825032230
         H           -0.802444591318    -1.465496382484     0.902509279162     1.007825032230
         H           -1.022723591318     0.020118617516     1.857899279162     1.007825032230
         H            4.121256408682    -0.982553382484     0.526165279162     1.007825032230
         H            3.690640408682     0.590867617516     1.210554279162     1.007825032230
         H            4.797825408682     0.497166617516    -0.171169720838     1.007825032230

  Basis Set: AUG-CC-PVTZ
    Blend: AUG-CC-PVTZ
  Basis Set: (AUG-CC-PVTZ AUX)
    Blend: AUG-CC-PVTZ-JKFIT
	 Reference Energy          =    -382.3276867090144151 [Eh]
	 Singles Energy            =      -0.0000000000000000 [Eh]
	 Same-Spin Energy          =      -0.3914245384594960 [Eh]
	 Opposite-Spin Energy      =      -1.2608521764015022 [Eh]
	 Correlation Energy        =      -1.6522767148609980 [Eh]
	 Total Energy              =    -383.9799634238754038 [Eh]

	 ================> DF-SCS-MP2 Energies <==================
	-----------------------------------------------------------
	 SCS Same-Spin Scale       =       0.3333333333333333 [-]
	 SCS Opposite-Spin Scale   =       1.2000000000000000 [-]
	 SCS Same-Spin Energy      =      -0.1304748461531653 [Eh]
	 SCS Opposite-Spin Energy  =      -1.5130226116818026 [Eh]
	 SCS Correlation Energy    =      -1.6434974578349679 [Eh]
	 SCS Total Energy          =    -383.9711841668493548 [Eh]
	-----------------------------------------------------------

  Dipole Moment: [D]
     X:    10.9123      Y:    -0.9131      Z:     1.6914     Total:    11.0803

*** Psi4 exiting successfully. Buy a developer a beer!
