                               Psi4 1.3.2 release

  ==> Input File <==

--------------------------------------------------------------------------
#psi4
#
memory 32 gb

molecule  {
-1 1
  O       -2.9259140    -0.9099280    -0.5693610
  O       -2.5318610     1.2678500    -0.0507790
  C        2.5515340     0.1562790    -0.6847320
  C        1.3133740    -0.4576390    -0.0973370
  C        0.1904201     0.1939822     0.1776337
  C       -1.0388440    -0.3710000     0.8261750
  C        3.7521530     0.0645780     0.2634350
  C       -2.2854840     0.0250790    -0.0044070
  H        2.8053070    -0.3466590    -1.6276820
  H        2.3518550     1.2059430    -0.9306210
  H        1.3523840    -1.5323490     0.0963350
  H        0.1538580     1.2934970     0.0216010
  H       -0.9504340    -1.4608690     0.8884060
  H       -1.2025880     0.0036191     1.8471575
  H        3.9732670    -0.9779260     0.5120620
  H        3.5426510     0.5954950     1.1964510
  H        4.6498360     0.5017940    -0.1852730
units angstrom
no_reorient  #important for SAPT in psi4, default
symmetry c1  #important for SAPT in psi4, default
}

set PROPERTIES_ORIGIN ["COM"]
properties('MP2/aug-cc-pvtz', properties = ['dipole'])
--------------------------------------------------------------------------

    Molecular point group: c1
  Charge       = -1
  Multiplicity = 1
  Basis Set: AUG-CC-PVTZ
    Blend: AUG-CC-PVTZ
  Basis Set: (AUG-CC-PVTZ AUX)
    Blend: AUG-CC-PVTZ-JKFIT

    Orbital Energies [Eh]
    ---------------------

    Doubly Occupied:

       1A    -20.296763     2A    -20.295394     3A    -11.142920
       4A    -11.124311     5A    -11.121952     6A    -11.099529
       7A    -11.094222     8A    -11.069313     9A     -1.164928
      10A     -1.064019    11A     -0.970558    12A     -0.901662
      13A     -0.808032    14A     -0.724244    15A     -0.619395
      16A     -0.532040    17A     -0.514453    18A     -0.500707
      19A     -0.456625    20A     -0.442649    21A     -0.431835
      22A     -0.414785    23A     -0.400297    24A     -0.384777
      25A     -0.373136    26A     -0.342054    27A     -0.324822
      28A     -0.241038    29A     -0.210371    30A     -0.194901
      31A     -0.189285

  @DF-RHF Final Energy:  -382.33148846511443

   => Energetics <=

    Nuclear Repulsion Energy =            339.0629093644270711
    One-Electron Energy =               -1203.8867612892577199
    Two-Electron Energy =                 482.4923634597162732
    Total Energy =                       -382.3314884651144325
  Basis Set: (AUG-CC-PVTZ AUX)
    Blend: AUG-CC-PVTZ-RI
    Molecular point group: c1

    Geometry (in Angstrom), charge = -1, multiplicity = 1:

       Center              X                  Y                   Z               Mass
    ------------   -----------------  -----------------  -----------------  -----------------
         O           -2.778274312599    -0.912910597414    -0.548865662026    15.994914619570
         O           -2.384221312599     1.264867402586    -0.030283662026    15.994914619570
         C            2.699173687401     0.153296402586    -0.664236662026    12.000000000000
         C            1.461013687401    -0.460621597414    -0.076841662026    12.000000000000
         C            0.338059787401     0.190999602586     0.198129037974    12.000000000000
         C           -0.891204312599    -0.373982597414     0.846670337974    12.000000000000
         C            3.899792687401     0.061595402586     0.283930337974    12.000000000000
         C           -2.137844312599     0.022096402586     0.016088337974    12.000000000000
         H            2.952946687401    -0.349641597414    -1.607186662026     1.007825032230
         H            2.499494687401     1.202960402586    -0.910125662026     1.007825032230
         H            1.500023687401    -1.535331597414     0.116830337974     1.007825032230
         H            0.301497687401     1.290514402586     0.042096337974     1.007825032230
         H           -0.802794312599    -1.463851597414     0.908901337974     1.007825032230
         H           -1.054948312599     0.000636502586     1.867652837974     1.007825032230
         H            4.120906687401    -0.980908597414     0.532557337974     1.007825032230
         H            3.690290687401     0.592512402586     1.216946337974     1.007825032230
         H            4.797475687401     0.498811402586    -0.164777662026     1.007825032230

  Basis Set: AUG-CC-PVTZ
    Blend: AUG-CC-PVTZ
  Basis Set: (AUG-CC-PVTZ AUX)
    Blend: AUG-CC-PVTZ-JKFIT
	 Reference Energy          =    -382.3314884651144325 [Eh]
	 Singles Energy            =      -0.0000000000000000 [Eh]
	 Same-Spin Energy          =      -0.3909164260240996 [Eh]
	 Opposite-Spin Energy      =      -1.2594795941548067 [Eh]
	 Correlation Energy        =      -1.6503960201789063 [Eh]
	 Total Energy              =    -383.9818844852933353 [Eh]

	 ================> DF-SCS-MP2 Energies <==================
	-----------------------------------------------------------
	 SCS Same-Spin Scale       =       0.3333333333333333 [-]
	 SCS Opposite-Spin Scale   =       1.2000000000000000 [-]
	 SCS Same-Spin Energy      =      -0.1303054753413665 [Eh]
	 SCS Opposite-Spin Energy  =      -1.5113755129857680 [Eh]
	 SCS Correlation Energy    =      -1.6416809883271346 [Eh]
	 SCS Total Energy          =    -383.9731694534415851 [Eh]
	-----------------------------------------------------------

  Dipole Moment: [D]
     X:    10.7545      Y:    -0.7328      Z:     1.6832     Total:    10.9100

*** Psi4 exiting successfully. Buy a developer a beer!
