                               Psi4 1.3.2 release

  ==> Input File <==

--------------------------------------------------------------------------
#psi4
#
memory 32 gb

molecule  {
-1 1
  O       -2.9448621    -0.8997068    -0.5643654
  O       -2.5318610     1.2678500    -0.0507790
  C        2.5515340     0.1562790    -0.6847320
  C        1.3133740    -0.4576390    -0.0973370
  C        0.1943249     0.2592562     0.2425854
  C       -1.0388440    -0.3710000     0.8261750
  C        3.7521530     0.0645780     0.2634350
  C       -2.2854840     0.0250790    -0.0044070
  H        2.8053070    -0.3466590    -1.6276820
  H        2.3518550     1.2059430    -0.9306210
  H        1.3523840    -1.5323490     0.0963350
  H        0.1538580     1.2934970     0.0216010
  H       -0.9504340    -1.4608690     0.8884060
  H       -1.1707130     0.0247460     1.8437960
  H        3.9732670    -0.9779260     0.5120620
  H        3.5426510     0.5954950     1.1964510
  H        4.6498360     0.5017940    -0.1852730
units angstrom
no_reorient  #important for SAPT in psi4, default
symmetry c1  #important for SAPT in psi4, default
}

set PROPERTIES_ORIGIN ["COM"]
properties('MP2/aug-cc-pvtz', properties = ['dipole'])
--------------------------------------------------------------------------

    Molecular point group: c1
  Charge       = -1
  Multiplicity = 1
  Basis Set: AUG-CC-PVTZ
    Blend: AUG-CC-PVTZ
  Basis Set: (AUG-CC-PVTZ AUX)
    Blend: AUG-CC-PVTZ-JKFIT

    Orbital Energies [Eh]
    ---------------------

    Doubly Occupied:

       1A    -20.297352     2A    -20.294828     3A    -11.143628
       4A    -11.123474     5A    -11.121234     6A    -11.102737
       7A    -11.099930     8A    -11.070723     9A     -1.165509
      10A     -1.063374    11A     -0.966669    12A     -0.899336
      13A     -0.805529    14A     -0.720564    15A     -0.628743
      16A     -0.533134    17A     -0.515333    18A     -0.499577
      19A     -0.451169    20A     -0.443463    21A     -0.432631
      22A     -0.414522    23A     -0.403258    24A     -0.380822
      25A     -0.373547    26A     -0.356238    27A     -0.322794
      28A     -0.234442    29A     -0.209841    30A     -0.194750
      31A     -0.187152

  @DF-RHF Final Energy:  -382.32987071637285

   => Energetics <=

    Nuclear Repulsion Energy =            338.4451845051214036
    One-Electron Energy =               -1202.6375056638430578
    Two-Electron Energy =                 481.8624504423487451
    Total Energy =                       -382.3298707163728523
  Basis Set: (AUG-CC-PVTZ AUX)
    Blend: AUG-CC-PVTZ-RI
    Molecular point group: c1

    Geometry (in Angstrom), charge = -1, multiplicity = 1:

       Center              X                  Y                   Z               Mass
    ------------   -----------------  -----------------  -----------------  -----------------
         O           -2.795240361349    -0.911251800214    -0.551440687046    15.994914619570
         O           -2.382239261349     1.256304999786    -0.037854287046    15.994914619570
         C            2.701155738651     0.144733999786    -0.671807287046    12.000000000000
         C            1.462995738651    -0.469184000214    -0.084412287046    12.000000000000
         C            0.343946638651     0.247711199786     0.255510112954    12.000000000000
         C           -0.889222261349    -0.382545000214     0.839099712954    12.000000000000
         C            3.901774738651     0.053032999786     0.276359712954    12.000000000000
         C           -2.135862261349     0.013533999786     0.008517712954    12.000000000000
         H            2.954928738651    -0.358204000214    -1.614757287046     1.007825032230
         H            2.501476738651     1.194397999786    -0.917696287046     1.007825032230
         H            1.502005738651    -1.543894000214     0.109259712954     1.007825032230
         H            0.303479738651     1.281951999786     0.034525712954     1.007825032230
         H           -0.800812261349    -1.472414000214     0.901330712954     1.007825032230
         H           -1.021091261349     0.013200999786     1.856720712954     1.007825032230
         H            4.122888738651    -0.989471000214     0.524986712954     1.007825032230
         H            3.692272738651     0.583949999786     1.209375712954     1.007825032230
         H            4.799457738651     0.490248999786    -0.172348287046     1.007825032230

  Basis Set: AUG-CC-PVTZ
    Blend: AUG-CC-PVTZ
  Basis Set: (AUG-CC-PVTZ AUX)
    Blend: AUG-CC-PVTZ-JKFIT
	 Reference Energy          =    -382.3298707163728523 [Eh]
	 Singles Energy            =      -0.0000000000000000 [Eh]
	 Same-Spin Energy          =      -0.3911401644340375 [Eh]
	 Opposite-Spin Energy      =      -1.2601833923178258 [Eh]
	 Correlation Energy        =      -1.6513235567518634 [Eh]
	 Total Energy              =    -383.9811942731247427 [Eh]

	 ================> DF-SCS-MP2 Energies <==================
	-----------------------------------------------------------
	 SCS Same-Spin Scale       =       0.3333333333333333 [-]
	 SCS Opposite-Spin Scale   =       1.2000000000000000 [-]
	 SCS Same-Spin Energy      =      -0.1303800548113458 [Eh]
	 SCS Opposite-Spin Energy  =      -1.5122200707813909 [Eh]
	 SCS Correlation Energy    =      -1.6426001255927367 [Eh]
	 SCS Total Energy          =    -383.9724708419656167 [Eh]
	-----------------------------------------------------------

  Dipole Moment: [D]
     X:    10.7395      Y:    -0.7155      Z:     1.6515     Total:    10.8893

*** Psi4 exiting successfully. Buy a developer a beer!
