                               Psi4 1.3.2 release

  ==> Input File <==

--------------------------------------------------------------------------
#psi4
#
memory 32 gb

molecule  {
-1 1
  O       -2.9259140    -0.9099280    -0.5693610
  O       -2.5318610     1.2678500    -0.0507790
  C        2.5515340     0.1562790    -0.6847320
  C        1.3133740    -0.4576390    -0.0973370
  C        0.1996320     0.2215300     0.2212070
  C       -1.0388440    -0.3710000     0.8261750
  C        3.7521530     0.0645780     0.2634350
  C       -2.1843356     0.1727523     0.0848208
  H        2.8053070    -0.3466590    -1.6276820
  H        2.3518550     1.2059430    -0.9306210
  H        1.3523840    -1.5323490     0.0963350
  H        0.1538580     1.2934970     0.0216010
  H       -0.9504340    -1.4608690     0.8884060
  H       -1.1707130     0.0247460     1.8437960
  H        3.9732670    -0.9779260     0.5120620
  H        3.5426510     0.5954950     1.1964510
  H        4.6498360     0.5017940    -0.1852730
units angstrom
no_reorient  #important for SAPT in psi4, default
symmetry c1  #important for SAPT in psi4, default
}

set PROPERTIES_ORIGIN ["COM"]
properties('MP2/aug-cc-pvtz', properties = ['dipole'])
--------------------------------------------------------------------------

    Molecular point group: c1
  Charge       = -1
  Multiplicity = 1
  Basis Set: AUG-CC-PVTZ
    Blend: AUG-CC-PVTZ
  Basis Set: (AUG-CC-PVTZ AUX)
    Blend: AUG-CC-PVTZ-JKFIT

    Orbital Energies [Eh]
    ---------------------

    Doubly Occupied:

       1A    -20.332667     2A    -20.254521     3A    -11.142061
       4A    -11.127390     5A    -11.125789     6A    -11.107402
       7A    -11.102484     8A    -11.078313     9A     -1.224821
      10A     -0.982820    11A     -0.970809    12A     -0.910986
      13A     -0.822566    14A     -0.731891    15A     -0.629693
      16A     -0.552725    17A     -0.521440    18A     -0.505102
      19A     -0.463508    20A     -0.459361    21A     -0.449412
      22A     -0.421264    23A     -0.405299    24A     -0.389545
      25A     -0.372808    26A     -0.356319    27A     -0.337574
      28A     -0.237107    29A     -0.188357    30A     -0.167107
      31A     -0.161298

  @DF-RHF Final Energy:  -382.27810537995805

   => Energetics <=

    Nuclear Repulsion Energy =            339.5021807617979448
    One-Electron Energy =               -1204.4956921423331551
    Two-Electron Energy =                 482.7154060005771612
    Total Energy =                       -382.2781053799580491
  Basis Set: (AUG-CC-PVTZ AUX)
    Blend: AUG-CC-PVTZ-RI
    Molecular point group: c1

    Geometry (in Angstrom), charge = -1, multiplicity = 1:

       Center              X                  Y                   Z               Mass
    ------------   -----------------  -----------------  -----------------  -----------------
         O           -2.790271879990    -0.931696557409    -0.562930953165    15.994914619570
         O           -2.396218879990     1.246081442591    -0.044348953165    15.994914619570
         C            2.687176120010     0.134510442591    -0.678301953165    12.000000000000
         C            1.449016120010    -0.479407557409    -0.090906953165    12.000000000000
         C            0.335274120010     0.199761442591     0.227637046835    12.000000000000
         C           -0.903201879990    -0.392768557409     0.832605046835    12.000000000000
         C            3.887795120010     0.042809442591     0.269865046835    12.000000000000
         C           -2.048693479990     0.150983742591     0.091250846835    12.000000000000
         H            2.940949120010    -0.368427557409    -1.621251953165     1.007825032230
         H            2.487497120010     1.184174442591    -0.924190953165     1.007825032230
         H            1.488026120010    -1.554117557409     0.102765046835     1.007825032230
         H            0.289500120010     1.271728442591     0.028031046835     1.007825032230
         H           -0.814791879990    -1.482637557409     0.894836046835     1.007825032230
         H           -1.035070879990     0.002977442591     1.850226046835     1.007825032230
         H            4.108909120010    -0.999694557409     0.518492046835     1.007825032230
         H            3.678293120010     0.573726442591     1.202881046835     1.007825032230
         H            4.785478120010     0.480025442591    -0.178842953165     1.007825032230

  Basis Set: AUG-CC-PVTZ
    Blend: AUG-CC-PVTZ
  Basis Set: (AUG-CC-PVTZ AUX)
    Blend: AUG-CC-PVTZ-JKFIT
	 Reference Energy          =    -382.2781053799580491 [Eh]
	 Singles Energy            =      -0.0000000000000000 [Eh]
	 Same-Spin Energy          =      -0.3930393799931778 [Eh]
	 Opposite-Spin Energy      =      -1.2644106042948833 [Eh]
	 Correlation Energy        =      -1.6574499842880610 [Eh]
	 Total Energy              =    -383.9355553642461132 [Eh]

	 ================> DF-SCS-MP2 Energies <==================
	-----------------------------------------------------------
	 SCS Same-Spin Scale       =       0.3333333333333333 [-]
	 SCS Opposite-Spin Scale   =       1.2000000000000000 [-]
	 SCS Same-Spin Energy      =      -0.1310131266643926 [Eh]
	 SCS Opposite-Spin Energy  =      -1.5172927251538599 [Eh]
	 SCS Correlation Energy    =      -1.6483058518182525 [Eh]
	 SCS Total Energy          =    -383.9264112317762851 [Eh]
	-----------------------------------------------------------

  Dipole Moment: [D]
     X:    11.7225      Y:     0.9096      Z:     2.3751     Total:    11.9952

*** Psi4 exiting successfully. Buy a developer a beer!
