                               Psi4 1.3.2 release

  ==> Input File <==

--------------------------------------------------------------------------
#psi4
#
memory 32 gb

molecule  {
-1 1
  O       -2.9259140    -0.9099280    -0.5693610
  O       -2.5318610     1.2678500    -0.0507790
  C        2.5281792     0.2031561    -0.6826290
  C        1.3133740    -0.4576390    -0.0973370
  C        0.1996320     0.2215300     0.2212070
  C       -1.0391821    -0.2837463     0.8129109
  C        3.7521530     0.0645780     0.2634350
  C       -2.2854840     0.0250790    -0.0044070
  H        2.8053070    -0.3466590    -1.6276820
  H        2.3518550     1.2059430    -0.9306210
  H        1.3523840    -1.5323490     0.0963350
  H        0.1538580     1.2934970     0.0216010
  H       -0.9504340    -1.4608690     0.8884060
  H       -1.1707130     0.0247460     1.8437960
  H        3.9732670    -0.9779260     0.5120620
  H        3.5426510     0.5954950     1.1964510
  H        4.6498360     0.5017940    -0.1852730
units angstrom
no_reorient  #important for SAPT in psi4, default
symmetry c1  #important for SAPT in psi4, default
}

set PROPERTIES_ORIGIN ["COM"]
properties('MP2/aug-cc-pvtz', properties = ['dipole'])
--------------------------------------------------------------------------

    Molecular point group: c1
  Charge       = -1
  Multiplicity = 1
  Basis Set: AUG-CC-PVTZ
    Blend: AUG-CC-PVTZ
  Basis Set: (AUG-CC-PVTZ AUX)
    Blend: AUG-CC-PVTZ-JKFIT

    Orbital Energies [Eh]
    ---------------------

    Doubly Occupied:

       1A    -20.299235     2A    -20.294211     3A    -11.142763
       4A    -11.124941     5A    -11.122300     6A    -11.099256
       7A    -11.097590     8A    -11.072778     9A     -1.166782
      10A     -1.065299    11A     -0.970073    12A     -0.902896
      13A     -0.809524    14A     -0.724518    15A     -0.626430
      16A     -0.536867    17A     -0.514536    18A     -0.501790
      19A     -0.460181    20A     -0.440210    21A     -0.435554
      22A     -0.410914    23A     -0.402257    24A     -0.387827
      25A     -0.375049    26A     -0.329840    27A     -0.326645
      28A     -0.238849    29A     -0.208704    30A     -0.195300
      31A     -0.191784

  @DF-RHF Final Energy:  -382.32110405139770

   => Energetics <=

    Nuclear Repulsion Energy =            339.5326772907109785
    One-Electron Energy =               -1204.7577547130276798
    Two-Electron Energy =                 482.9039733709189477
    Total Energy =                       -382.3211040513976968
  Basis Set: (AUG-CC-PVTZ AUX)
    Blend: AUG-CC-PVTZ-RI
    Molecular point group: c1

    Geometry (in Angstrom), charge = -1, multiplicity = 1:

       Center              X                  Y                   Z               Mass
    ------------   -----------------  -----------------  -----------------  -----------------
         O           -2.777021462270    -0.930259182262    -0.552275866592    15.994914619570
         O           -2.382968462270     1.247518817738    -0.033693866592    15.994914619570
         C            2.677071737730     0.182824917738    -0.665543866592    12.000000000000
         C            1.462266537730    -0.477970182262    -0.080251866592    12.000000000000
         C            0.348524537730     0.201198817738     0.238292133408    12.000000000000
         C           -0.890289562270    -0.304077482262     0.829996033408    12.000000000000
         C            3.901045537730     0.044246817738     0.280520133408    12.000000000000
         C           -2.136591462270     0.004747817738     0.012678133408    12.000000000000
         H            2.954199537730    -0.366990182262    -1.610596866592     1.007825032230
         H            2.500747537730     1.185611817738    -0.913535866592     1.007825032230
         H            1.501276537730    -1.552680182262     0.113420133408     1.007825032230
         H            0.302750537730     1.273165817738     0.038686133408     1.007825032230
         H           -0.801541462270    -1.481200182262     0.905491133408     1.007825032230
         H           -1.021820462270     0.004414817738     1.860881133408     1.007825032230
         H            4.122159537730    -0.998257182262     0.529147133408     1.007825032230
         H            3.691543537730     0.575163817738     1.213536133408     1.007825032230
         H            4.798728537730     0.481462817738    -0.168187866592     1.007825032230

  Basis Set: AUG-CC-PVTZ
    Blend: AUG-CC-PVTZ
  Basis Set: (AUG-CC-PVTZ AUX)
    Blend: AUG-CC-PVTZ-JKFIT
	 Reference Energy          =    -382.3211040513976968 [Eh]
	 Singles Energy            =      -0.0000000000000000 [Eh]
	 Same-Spin Energy          =      -0.3914749341448597 [Eh]
	 Opposite-Spin Energy      =      -1.2606897287813592 [Eh]
	 Correlation Energy        =      -1.6521646629262188 [Eh]
	 Total Energy              =    -383.9732687143239218 [Eh]

	 ================> DF-SCS-MP2 Energies <==================
	-----------------------------------------------------------
	 SCS Same-Spin Scale       =       0.3333333333333333 [-]
	 SCS Opposite-Spin Scale   =       1.2000000000000000 [-]
	 SCS Same-Spin Energy      =      -0.1304916447149532 [Eh]
	 SCS Opposite-Spin Energy  =      -1.5128276745376310 [Eh]
	 SCS Correlation Energy    =      -1.6433193192525843 [Eh]
	 SCS Total Energy          =    -383.9644233706503087 [Eh]
	-----------------------------------------------------------

  Dipole Moment: [D]
     X:    10.7210      Y:    -0.5691      Z:     1.6623     Total:    10.8640

*** Psi4 exiting successfully. Buy a developer a beer!
