                               Psi4 1.3.2 release

  ==> Input File <==

--------------------------------------------------------------------------
#psi4
#
memory 32 gb

molecule  {
-1 1
  O       -2.9259140    -0.9099280    -0.5693610
  O       -2.5318610     1.2678500    -0.0507790
  C        2.5515340     0.1562790    -0.6847320
  C        1.3092208    -0.3706837    -0.1118558
  C        0.2213952     0.1738990     0.2213750
  C       -1.0388440    -0.3710000     0.8261750
  C        3.7521530     0.0645780     0.2634350
  C       -2.2854840     0.0250790    -0.0044070
  H        2.8053070    -0.3466590    -1.6276820
  H        2.3518550     1.2059430    -0.9306210
  H        1.3523840    -1.5323490     0.0963350
  H        0.1538580     1.2934970     0.0216010
  H       -0.9504340    -1.4608690     0.8884060
  H       -1.1707130     0.0247460     1.8437960
  H        3.9732670    -0.9779260     0.5120620
  H        3.5426510     0.5954950     1.1964510
  H        4.6498360     0.5017940    -0.1852730
units angstrom
no_reorient  #important for SAPT in psi4, default
symmetry c1  #important for SAPT in psi4, default
}

set PROPERTIES_ORIGIN ["COM"]
properties('MP2/aug-cc-pvtz', properties = ['dipole'])
--------------------------------------------------------------------------

    Molecular point group: c1
  Charge       = -1
  Multiplicity = 1
  Basis Set: AUG-CC-PVTZ
    Blend: AUG-CC-PVTZ
  Basis Set: (AUG-CC-PVTZ AUX)
    Blend: AUG-CC-PVTZ-JKFIT

    Orbital Energies [Eh]
    ---------------------

    Doubly Occupied:

       1A    -20.298096     2A    -20.295884     3A    -11.144754
       4A    -11.126297     5A    -11.122808     6A    -11.093044
       7A    -11.090161     8A    -11.071694     9A     -1.165666
      10A     -1.064806    11A     -0.982159    12A     -0.908321
      13A     -0.813636    14A     -0.735646    15A     -0.601119
      16A     -0.537443    17A     -0.515980    18A     -0.505262
      19A     -0.456426    20A     -0.438582    21A     -0.435583
      22A     -0.420176    23A     -0.404425    24A     -0.391175
      25A     -0.365822    26A     -0.333091    27A     -0.313355
      28A     -0.253166    29A     -0.211041    30A     -0.196273
      31A     -0.195240

  @DF-RHF Final Energy:  -382.31747504369139

   => Energetics <=

    Nuclear Repulsion Energy =            339.9223133261003227
    One-Electron Energy =               -1205.5053096127755907
    Two-Electron Energy =                 483.2655212429839366
    Total Energy =                       -382.3174750436913882
  Basis Set: (AUG-CC-PVTZ AUX)
    Blend: AUG-CC-PVTZ-RI
    Molecular point group: c1

    Geometry (in Angstrom), charge = -1, multiplicity = 1:

       Center              X                  Y                   Z               Mass
    ------------   -----------------  -----------------  -----------------  -----------------
         O           -2.781405273381    -0.920196600989    -0.551937317911    15.994914619570
         O           -2.387352273381     1.257581399011    -0.033355317911    15.994914619570
         C            2.696042726619     0.146010399011    -0.667308317911    12.000000000000
         C            1.453729526619    -0.380952300989    -0.094432117911    12.000000000000
         C            0.365903926619     0.163630399011     0.238798682089    12.000000000000
         C           -0.894335273381    -0.381268600989     0.843598682089    12.000000000000
         C            3.896661726619     0.054309399011     0.280858682089    12.000000000000
         C           -2.140975273381     0.014810399011     0.013016682089    12.000000000000
         H            2.949815726619    -0.356927600989    -1.610258317911     1.007825032230
         H            2.496363726619     1.195674399011    -0.913197317911     1.007825032230
         H            1.496892726619    -1.542617600989     0.113758682089     1.007825032230
         H            0.298366726619     1.283228399011     0.039024682089     1.007825032230
         H           -0.805925273381    -1.471137600989     0.905829682089     1.007825032230
         H           -1.026204273381     0.014477399011     1.861219682089     1.007825032230
         H            4.117775726619    -0.988194600989     0.529485682089     1.007825032230
         H            3.687159726619     0.585226399011     1.213874682089     1.007825032230
         H            4.794344726619     0.491525399011    -0.167849317911     1.007825032230

  Basis Set: AUG-CC-PVTZ
    Blend: AUG-CC-PVTZ
  Basis Set: (AUG-CC-PVTZ AUX)
    Blend: AUG-CC-PVTZ-JKFIT
	 Reference Energy          =    -382.3174750436913882 [Eh]
	 Singles Energy            =      -0.0000000000000000 [Eh]
	 Same-Spin Energy          =      -0.3911001072831266 [Eh]
	 Opposite-Spin Energy      =      -1.2592871999450510 [Eh]
	 Correlation Energy        =      -1.6503873072281776 [Eh]
	 Total Energy              =    -383.9678623509195745 [Eh]

	 ================> DF-SCS-MP2 Energies <==================
	-----------------------------------------------------------
	 SCS Same-Spin Scale       =       0.3333333333333333 [-]
	 SCS Opposite-Spin Scale   =       1.2000000000000000 [-]
	 SCS Same-Spin Energy      =      -0.1303667024277089 [Eh]
	 SCS Opposite-Spin Energy  =      -1.5111446399340611 [Eh]
	 SCS Correlation Energy    =      -1.6415113423617700 [Eh]
	 SCS Total Energy          =    -383.9589863860531409 [Eh]
	-----------------------------------------------------------

  Dipole Moment: [D]
     X:    10.7815      Y:    -0.6363      Z:     1.6355     Total:    10.9234

*** Psi4 exiting successfully. Buy a developer a beer!
