                               Psi4 1.4a3.dev225

  ==> Input File <==

--------------------------------------------------------------------------
#psi4
#
memory 32 gb

molecule  {
-1 1
  O       -3.0493610    -0.8021490    -0.5876160
  O       -2.4328600     1.2902580     0.0530700
  C        2.5553900     0.3550440    -0.5884220
  C        1.3085550    -0.3848960    -0.2000760
  C        0.2108510     0.1869800     0.3208840
  C       -1.0592748    -0.5409061     0.7132510
  C        3.7725750    -0.0944570     0.2252300
  C       -2.2894080     0.0326700    -0.0161130
  H        2.7644980     0.1992670    -1.6554110
  H        2.3954460     1.4315290    -0.4528260
  H        1.3245080    -1.4678690    -0.3463610
  H        0.1904760     1.2677450     0.4620520
  H       -0.9472880    -1.6102600     0.4951310
  H       -1.2137680    -0.4258540     1.7866990
  H        3.9502020    -1.1668590     0.0980420
  H        3.6128950     0.0963670     1.2904210
  H        4.6769210     0.4370950    -0.0868020
units angstrom
no_reorient  #important for SAPT in psi4, default
symmetry c1  #important for SAPT in psi4, default
}

set PROPERTIES_ORIGIN ["COM"]
properties('MP2/aug-cc-pvtz', properties = ['dipole'])
--------------------------------------------------------------------------

    Molecular point group: c1
  Charge       = -1
  Multiplicity = 1
  Basis Set: AUG-CC-PVTZ
    Blend: AUG-CC-PVTZ
  Basis Set: (AUG-CC-PVTZ AUX)
    Blend: AUG-CC-PVTZ-JKFIT

    Orbital Energies [Eh]
    ---------------------

    Doubly Occupied:

       1A    -20.297335     2A    -20.295817     3A    -11.143443
       4A    -11.123552     5A    -11.120958     6A    -11.099549
       7A    -11.095234     8A    -11.069553     9A     -1.166006
      10A     -1.065242    11A     -0.968163    12A     -0.898816
      13A     -0.806957    14A     -0.722829    15A     -0.622109
      16A     -0.533204    17A     -0.513042    18A     -0.501662
      19A     -0.451740    20A     -0.443089    21A     -0.434448
      22A     -0.414680    23A     -0.401920    24A     -0.383222
      25A     -0.375700    26A     -0.343089    27A     -0.322960
      28A     -0.238199    29A     -0.211567    30A     -0.196070
      31A     -0.189738

  @DF-RHF Final Energy:  -382.33346790544385

   => Energetics <=

    Nuclear Repulsion Energy =            338.5982283545250198
    One-Electron Energy =               -1202.9636124302890039
    Two-Electron Energy =                 482.0319161703201871
    Total Energy =                       -382.3334679054438539
  Basis Set: (AUG-CC-PVTZ AUX)
    Blend: AUG-CC-PVTZ-RI
    Molecular point group: c1

    Geometry (in Angstrom), charge = -1, multiplicity = 1:

       Center              X                  Y                   Z               Mass
    ------------   -----------------  -----------------  -----------------  -----------------
         O           -2.900604845493    -0.812868484314    -0.574440941793    15.994914619570
         O           -2.284103845493     1.279538515686     0.066245058207    15.994914619570
         C            2.704146154507     0.344324515686    -0.575246941793    12.000000000000
         C            1.457311154507    -0.395615484314    -0.186900941793    12.000000000000
         C            0.359607154507     0.176260515686     0.334059058207    12.000000000000
         C           -0.910518645493    -0.551625584314     0.726426058207    12.000000000000
         C            3.921331154507    -0.105176484314     0.238405058207    12.000000000000
         C           -2.140651845493     0.021950515686    -0.002937941793    12.000000000000
         H            2.913254154507     0.188547515686    -1.642235941793     1.007825032230
         H            2.544202154507     1.420809515686    -0.439650941793     1.007825032230
         H            1.473264154507    -1.478588484314    -0.333185941793     1.007825032230
         H            0.339232154507     1.257025515686     0.475227058207     1.007825032230
         H           -0.798531845493    -1.620979484314     0.508306058207     1.007825032230
         H           -1.065011845493    -0.436573484314     1.799874058207     1.007825032230
         H            4.098958154507    -1.177578484314     0.111217058207     1.007825032230
         H            3.761651154507     0.085647515686     1.303596058207     1.007825032230
         H            4.825677154507     0.426375515686    -0.073626941793     1.007825032230

  Basis Set: AUG-CC-PVTZ
    Blend: AUG-CC-PVTZ
  Basis Set: (AUG-CC-PVTZ AUX)
    Blend: AUG-CC-PVTZ-JKFIT
	 Reference Energy          =    -382.3334679054438539 [Eh]
	 Singles Energy            =      -0.0000000000000000 [Eh]
	 Same-Spin Energy          =      -0.3907395847348168 [Eh]
	 Opposite-Spin Energy      =      -1.2593147716345110 [Eh]
	 Correlation Energy        =      -1.6500543563693277 [Eh]
	 Total Energy              =    -383.9835222618131638 [Eh]

	 ================> DF-SCS-MP2 Energies <==================
	-----------------------------------------------------------
	 SCS Same-Spin Scale       =       0.3333333333333333 [-]
	 SCS Opposite-Spin Scale   =       1.2000000000000000 [-]
	 SCS Same-Spin Energy      =      -0.1302465282449389 [Eh]
	 SCS Opposite-Spin Energy  =      -1.5111777259614132 [Eh]
	 SCS Correlation Energy    =      -1.6414242542063522 [Eh]
	 SCS Total Energy          =    -383.9748921596502100 [Eh]
	-----------------------------------------------------------

  Dipole Moment: [D]
     X:    10.7538      Y:    -1.0265      Z:     1.4884     Total:    10.9048

*** Psi4 exiting successfully. Buy a developer a beer!
