                               Psi4 1.3.2 release

  ==> Input File <==

--------------------------------------------------------------------------
#psi4
#
memory 32 gb

molecule  {
-1 1
  O       -2.9259140    -0.9099280    -0.5693610
  O       -2.5318610     1.2678500    -0.0507790
  C        2.5515340     0.1562790    -0.6847320
  C        1.3133740    -0.4576390    -0.0973370
  C        0.2036727     0.2350353     0.2432734
  C       -1.0388440    -0.3710000     0.8261750
  C        3.7521530     0.0645780     0.2634350
  C       -2.2854840     0.0250790    -0.0044070
  H        2.8053070    -0.3466590    -1.6276820
  H        2.3518550     1.2059430    -0.9306210
  H        1.3523840    -1.5323490     0.0963350
  H        0.1538580     1.2934970     0.0216010
  H       -0.9504340    -1.4608690     0.8884060
  H       -1.1547128     0.0351302     1.8416500
  H        3.9732670    -0.9779260     0.5120620
  H        3.5426510     0.5954950     1.1964510
  H        4.6498360     0.5017940    -0.1852730
units angstrom
no_reorient  #important for SAPT in psi4, default
symmetry c1  #important for SAPT in psi4, default
}

set PROPERTIES_ORIGIN ["COM"]
properties('MP2/aug-cc-pvtz', properties = ['dipole'])
--------------------------------------------------------------------------

    Molecular point group: c1
  Charge       = -1
  Multiplicity = 1
  Basis Set: AUG-CC-PVTZ
    Blend: AUG-CC-PVTZ
  Basis Set: (AUG-CC-PVTZ AUX)
    Blend: AUG-CC-PVTZ-JKFIT

    Orbital Energies [Eh]
    ---------------------

    Doubly Occupied:

       1A    -20.298075     2A    -20.295968     3A    -11.144367
       4A    -11.123459     5A    -11.121228     6A    -11.100733
       7A    -11.096728     8A    -11.069630     9A     -1.165718
      10A     -1.064917    11A     -0.968018    12A     -0.900285
      13A     -0.806320    14A     -0.721641    15A     -0.623792
      16A     -0.533845    17A     -0.514218    18A     -0.500254
      19A     -0.451404    20A     -0.443053    21A     -0.433263
      22A     -0.414874    23A     -0.401937    24A     -0.382094
      25A     -0.373564    26A     -0.351371    27A     -0.323269
      28A     -0.236742    29A     -0.211263    30A     -0.195711
      31A     -0.188673

  @DF-RHF Final Energy:  -382.33236931055200

   => Energetics <=

    Nuclear Repulsion Energy =            338.7109107908821670
    One-Electron Energy =               -1203.1737346471561523
    Two-Electron Energy =                 482.1304545457219888
    Total Energy =                       -382.3323693105519965
  Basis Set: (AUG-CC-PVTZ AUX)
    Blend: AUG-CC-PVTZ-RI
    Molecular point group: c1

    Geometry (in Angstrom), charge = -1, multiplicity = 1:

       Center              X                  Y                   Z               Mass
    ------------   -----------------  -----------------  -----------------  -----------------
         O           -2.780107680354    -0.917548786825    -0.555783440576    15.994914619570
         O           -2.386054680354     1.260229213175    -0.037201440576    15.994914619570
         C            2.697340319646     0.148658213175    -0.671154440576    12.000000000000
         C            1.459180319646    -0.465259786825    -0.083759440576    12.000000000000
         C            0.349479019646     0.227414513175     0.256850959424    12.000000000000
         C           -0.893037680354    -0.378620786825     0.839752559424    12.000000000000
         C            3.897959319646     0.056957213175     0.277012559424    12.000000000000
         C           -2.139677680354     0.017458213175     0.009170559424    12.000000000000
         H            2.951113319646    -0.354279786825    -1.614104440576     1.007825032230
         H            2.497661319646     1.198322213175    -0.917043440576     1.007825032230
         H            1.498190319646    -1.539969786825     0.109912559424     1.007825032230
         H            0.299664319646     1.285876213175     0.035178559424     1.007825032230
         H           -0.804627680354    -1.468489786825     0.901983559424     1.007825032230
         H           -1.008906480354     0.027509413175     1.855227559424     1.007825032230
         H            4.119073319646    -0.985546786825     0.525639559424     1.007825032230
         H            3.688457319646     0.587874213175     1.210028559424     1.007825032230
         H            4.795642319646     0.494173213175    -0.171695440576     1.007825032230

  Basis Set: AUG-CC-PVTZ
    Blend: AUG-CC-PVTZ
  Basis Set: (AUG-CC-PVTZ AUX)
    Blend: AUG-CC-PVTZ-JKFIT
	 Reference Energy          =    -382.3323693105519965 [Eh]
	 Singles Energy            =      -0.0000000000000000 [Eh]
	 Same-Spin Energy          =      -0.3910283504386737 [Eh]
	 Opposite-Spin Energy      =      -1.2597854119811780 [Eh]
	 Correlation Energy        =      -1.6508137624198516 [Eh]
	 Total Energy              =    -383.9831830729718263 [Eh]

	 ================> DF-SCS-MP2 Energies <==================
	-----------------------------------------------------------
	 SCS Same-Spin Scale       =       0.3333333333333333 [-]
	 SCS Opposite-Spin Scale   =       1.2000000000000000 [-]
	 SCS Same-Spin Energy      =      -0.1303427834795579 [Eh]
	 SCS Opposite-Spin Energy  =      -1.5117424943774136 [Eh]
	 SCS Correlation Energy    =      -1.6420852778569714 [Eh]
	 SCS Total Energy          =    -383.9744545884089462 [Eh]
	-----------------------------------------------------------

  Dipole Moment: [D]
     X:    10.6938      Y:    -0.7082      Z:     1.6516     Total:    10.8437

*** Psi4 exiting successfully. Buy a developer a beer!
