                               Psi4 1.3.2 release

  ==> Input File <==

--------------------------------------------------------------------------
#psi4
#
memory 32 gb

molecule  {
-1 1
  O       -2.9259140    -0.9099280    -0.5693610
  O       -2.5963241     1.2530863    -0.0564475
  C        2.5515340     0.1562790    -0.6847320
  C        1.3133740    -0.4576390    -0.0973370
  C        0.2062388     0.0906885     0.2243050
  C       -1.0388440    -0.3710000     0.8261750
  C        3.7521530     0.0645780     0.2634350
  C       -2.2854840     0.0250790    -0.0044070
  H        2.8053070    -0.3466590    -1.6276820
  H        2.3518550     1.2059430    -0.9306210
  H        1.3523840    -1.5323490     0.0963350
  H        0.1538580     1.2934970     0.0216010
  H       -0.9504340    -1.4608690     0.8884060
  H       -1.1707130     0.0247460     1.8437960
  H        3.9732670    -0.9779260     0.5120620
  H        3.5426510     0.5954950     1.1964510
  H        4.6498360     0.5017940    -0.1852730
units angstrom
no_reorient  #important for SAPT in psi4, default
symmetry c1  #important for SAPT in psi4, default
}

set PROPERTIES_ORIGIN ["COM"]
properties('MP2/aug-cc-pvtz', properties = ['dipole'])
--------------------------------------------------------------------------

    Molecular point group: c1
  Charge       = -1
  Multiplicity = 1
  Basis Set: AUG-CC-PVTZ
    Blend: AUG-CC-PVTZ
  Basis Set: (AUG-CC-PVTZ AUX)
    Blend: AUG-CC-PVTZ-JKFIT

    Orbital Energies [Eh]
    ---------------------

    Doubly Occupied:

       1A    -20.295123     2A    -20.294805     3A    -11.144412
       4A    -11.126265     5A    -11.125343     6A    -11.100495
       7A    -11.089415     8A    -11.072602     9A     -1.165815
      10A     -1.060186    11A     -0.978675    12A     -0.912005
      13A     -0.818447    14A     -0.732371    15A     -0.605909
      16A     -0.539959    17A     -0.513934    18A     -0.503006
      19A     -0.462558    20A     -0.443706    21A     -0.436353
      22A     -0.419497    23A     -0.399636    24A     -0.388965
      25A     -0.372579    26A     -0.333026    27A     -0.309621
      28A     -0.253210    29A     -0.207056    30A     -0.196799
      31A     -0.192083

  @DF-RHF Final Energy:  -382.31412994562618

   => Energetics <=

    Nuclear Repulsion Energy =            339.3336025194945478
    One-Electron Energy =               -1204.3077510735270153
    Two-Electron Energy =                 482.6600186084062898
    Total Energy =                       -382.3141299456261777
  Basis Set: (AUG-CC-PVTZ AUX)
    Blend: AUG-CC-PVTZ-RI
    Molecular point group: c1

    Geometry (in Angstrom), charge = -1, multiplicity = 1:

       Center              X                  Y                   Z               Mass
    ------------   -----------------  -----------------  -----------------  -----------------
         O           -2.771117660060    -0.900046869941    -0.552987363544    15.994914619570
         O           -2.441527760060     1.262967430059    -0.040073863544    15.994914619570
         C            2.706330339940     0.166160130059    -0.668358363544    12.000000000000
         C            1.468170339940    -0.447757869941    -0.080963363544    12.000000000000
         C            0.361035139940     0.100569630059     0.240678636456    12.000000000000
         C           -0.884047660060    -0.361118869941     0.842548636456    12.000000000000
         C            3.906949339940     0.074459130059     0.279808636456    12.000000000000
         C           -2.130687660060     0.034960130059     0.011966636456    12.000000000000
         H            2.960103339940    -0.336777869941    -1.611308363544     1.007825032230
         H            2.506651339940     1.215824130059    -0.914247363544     1.007825032230
         H            1.507180339940    -1.522467869941     0.112708636456     1.007825032230
         H            0.308654339940     1.303378130059     0.037974636456     1.007825032230
         H           -0.795637660060    -1.450987869941     0.904779636456     1.007825032230
         H           -1.015916660060     0.034627130059     1.860169636456     1.007825032230
         H            4.128063339940    -0.968044869941     0.528435636456     1.007825032230
         H            3.697447339940     0.605376130059     1.212824636456     1.007825032230
         H            4.804632339940     0.511675130059    -0.168899363544     1.007825032230

  Basis Set: AUG-CC-PVTZ
    Blend: AUG-CC-PVTZ
  Basis Set: (AUG-CC-PVTZ AUX)
    Blend: AUG-CC-PVTZ-JKFIT
	 Reference Energy          =    -382.3141299456261777 [Eh]
	 Singles Energy            =      -0.0000000000000000 [Eh]
	 Same-Spin Energy          =      -0.3913605212843996 [Eh]
	 Opposite-Spin Energy      =      -1.2599851643749604 [Eh]
	 Correlation Energy        =      -1.6513456856593600 [Eh]
	 Total Energy              =    -383.9654756312855284 [Eh]

	 ================> DF-SCS-MP2 Energies <==================
	-----------------------------------------------------------
	 SCS Same-Spin Scale       =       0.3333333333333333 [-]
	 SCS Opposite-Spin Scale   =       1.2000000000000000 [-]
	 SCS Same-Spin Energy      =      -0.1304535070947999 [Eh]
	 SCS Opposite-Spin Energy  =      -1.5119821972499525 [Eh]
	 SCS Correlation Energy    =      -1.6424357043447524 [Eh]
	 SCS Total Energy          =    -383.9565656499709121 [Eh]
	-----------------------------------------------------------

  Dipole Moment: [D]
     X:    10.8820      Y:    -0.8432      Z:     1.7345     Total:    11.0516

*** Psi4 exiting successfully. Buy a developer a beer!
