                               Psi4 1.3.2 release

  ==> Input File <==

--------------------------------------------------------------------------
#psi4
#
memory 32 gb

molecule  {
-1 1
  O       -2.9259140    -0.9099280    -0.5693610
  O       -2.5318610     1.2678500    -0.0507790
  C        2.5515340     0.1562790    -0.6847320
  C        1.3133740    -0.4576390    -0.0973370
  C        0.1996320     0.2215300     0.2212070
  C       -1.0388440    -0.3710000     0.8261750
  C        3.7521530     0.0645780     0.2634350
  C       -2.0869176     0.0407759     0.0136201
  H        2.8053070    -0.3466590    -1.6276820
  H        2.3518550     1.2059430    -0.9306210
  H        1.3523840    -1.5323490     0.0963350
  H        0.1538580     1.2934970     0.0216010
  H       -0.9504340    -1.4608690     0.8884060
  H       -1.1707130     0.0247460     1.8437960
  H        3.9732670    -0.9779260     0.5120620
  H        3.5426510     0.5954950     1.1964510
  H        4.6498360     0.5017940    -0.1852730
units angstrom
no_reorient  #important for SAPT in psi4, default
symmetry c1  #important for SAPT in psi4, default
}

set PROPERTIES_ORIGIN ["COM"]
properties('MP2/aug-cc-pvtz', properties = ['dipole'])
--------------------------------------------------------------------------

    Molecular point group: c1
  Charge       = -1
  Multiplicity = 1
  Basis Set: AUG-CC-PVTZ
    Blend: AUG-CC-PVTZ
  Basis Set: (AUG-CC-PVTZ AUX)
    Blend: AUG-CC-PVTZ-JKFIT

    Orbital Energies [Eh]
    ---------------------

    Doubly Occupied:

       1A    -20.302008     2A    -20.282088     3A    -11.149737
       4A    -11.129195     5A    -11.127864     6A    -11.110239
       7A    -11.106594     8A    -11.080093     9A     -1.130561
      10A     -1.003570    11A     -0.978978    12A     -0.921830
      13A     -0.835297    14A     -0.737885    15A     -0.634002
      16A     -0.559657    17A     -0.524429    18A     -0.509142
      19A     -0.466481    20A     -0.456979    21A     -0.431808
      22A     -0.418032    23A     -0.399500    24A     -0.388342
      25A     -0.368495    26A     -0.331262    27A     -0.291969
      28A     -0.241089    29A     -0.209244    30A     -0.182382
      31A     -0.170466

  @DF-RHF Final Energy:  -382.27472633187563

   => Energetics <=

    Nuclear Repulsion Energy =            339.4028127668431694
    One-Electron Energy =               -1204.3966418601889927
    Two-Electron Energy =                 482.7191027614701397
    Total Energy =                       -382.2747263318756268
  Basis Set: (AUG-CC-PVTZ AUX)
    Blend: AUG-CC-PVTZ-RI
    Molecular point group: c1

    Geometry (in Angstrom), charge = -1, multiplicity = 1:

       Center              X                  Y                   Z               Mass
    ------------   -----------------  -----------------  -----------------  -----------------
         O           -2.800611640897    -0.917688833770    -0.555373846527    15.994914619570
         O           -2.406558640897     1.260089166230    -0.036791846527    15.994914619570
         C            2.676836359103     0.148518166230    -0.670744846527    12.000000000000
         C            1.438676359103    -0.465399833770    -0.083349846527    12.000000000000
         C            0.324934359103     0.213769166230     0.235194153473    12.000000000000
         C           -0.913541640897    -0.378760833770     0.840162153473    12.000000000000
         C            3.877455359103     0.056817166230     0.277422153473    12.000000000000
         C           -1.961615240897     0.033015066230     0.027607253473    12.000000000000
         H            2.930609359103    -0.354419833770    -1.613694846527     1.007825032230
         H            2.477157359103     1.198182166230    -0.916633846527     1.007825032230
         H            1.477686359103    -1.540109833770     0.110322153473     1.007825032230
         H            0.279160359103     1.285736166230     0.035588153473     1.007825032230
         H           -0.825131640897    -1.468629833770     0.902393153473     1.007825032230
         H           -1.045410640897     0.016985166230     1.857783153473     1.007825032230
         H            4.098569359103    -0.985686833770     0.526049153473     1.007825032230
         H            3.667953359103     0.587734166230     1.210438153473     1.007825032230
         H            4.775138359103     0.494033166230    -0.171285846527     1.007825032230

  Basis Set: AUG-CC-PVTZ
    Blend: AUG-CC-PVTZ
  Basis Set: (AUG-CC-PVTZ AUX)
    Blend: AUG-CC-PVTZ-JKFIT
	 Reference Energy          =    -382.2747263318756268 [Eh]
	 Singles Energy            =      -0.0000000000000000 [Eh]
	 Same-Spin Energy          =      -0.3957961659242230 [Eh]
	 Opposite-Spin Energy      =      -1.2702388638457225 [Eh]
	 Correlation Energy        =      -1.6660350297699456 [Eh]
	 Total Energy              =    -383.9407613616455706 [Eh]

	 ================> DF-SCS-MP2 Energies <==================
	-----------------------------------------------------------
	 SCS Same-Spin Scale       =       0.3333333333333333 [-]
	 SCS Opposite-Spin Scale   =       1.2000000000000000 [-]
	 SCS Same-Spin Energy      =      -0.1319320553080743 [Eh]
	 SCS Opposite-Spin Energy  =      -1.5242866366148669 [Eh]
	 SCS Correlation Energy    =      -1.6562186919229411 [Eh]
	 SCS Total Energy          =    -383.9309450237985857 [Eh]
	-----------------------------------------------------------

  Dipole Moment: [D]
     X:    11.8146      Y:    -0.4590      Z:     2.1913     Total:    12.0248

*** Psi4 exiting successfully. Buy a developer a beer!
