                               Psi4 1.4a3.dev225

  ==> Input File <==

--------------------------------------------------------------------------
#psi4
#
memory 32 gb

molecule  {
-1 1
  O       -3.0493610    -0.8021490    -0.5876160
  O       -2.4328600     1.2902580     0.0530700
  C        2.5553900     0.3550440    -0.5884220
  C        1.3085550    -0.3848960    -0.2000760
  C        0.2108510     0.1869800     0.3208840
  C       -1.0406500    -0.5396790     0.7060670
  C        3.7725750    -0.0944570     0.2252300
  C       -2.2894080     0.0326700    -0.0161130
  H        2.7644980     0.1992670    -1.6554110
  H        2.3954460     1.4315290    -0.4528260
  H        1.3252378    -1.5174137    -0.3530534
  H        0.1904760     1.2677450     0.4620520
  H       -0.9472880    -1.6102600     0.4951310
  H       -1.2137680    -0.4258540     1.7866990
  H        3.9502020    -1.1668590     0.0980420
  H        3.6128950     0.0963670     1.2904210
  H        4.6769210     0.4370950    -0.0868020
units angstrom
no_reorient  #important for SAPT in psi4, default
symmetry c1  #important for SAPT in psi4, default
}

set PROPERTIES_ORIGIN ["COM"]
properties('MP2/aug-cc-pvtz', properties = ['dipole'])
--------------------------------------------------------------------------

    Molecular point group: c1
  Charge       = -1
  Multiplicity = 1
  Basis Set: AUG-CC-PVTZ
    Blend: AUG-CC-PVTZ
  Basis Set: (AUG-CC-PVTZ AUX)
    Blend: AUG-CC-PVTZ-JKFIT

    Orbital Energies [Eh]
    ---------------------

    Doubly Occupied:

       1A    -20.297973     2A    -20.296238     3A    -11.144532
       4A    -11.123534     5A    -11.121558     6A    -11.101527
       7A    -11.098990     8A    -11.069411     9A     -1.166070
      10A     -1.065554    11A     -0.968073    12A     -0.900619
      13A     -0.805768    14A     -0.722135    15A     -0.616143
      16A     -0.532580    17A     -0.513153    18A     -0.501753
      19A     -0.451729    20A     -0.440373    21A     -0.433314
      22A     -0.414935    23A     -0.401708    24A     -0.383146
      25A     -0.373516    26A     -0.344052    27A     -0.324196
      28A     -0.239212    29A     -0.211925    30A     -0.196363
      31A     -0.188232

  @DF-RHF Final Energy:  -382.33139366111328

   => Energetics <=

    Nuclear Repulsion Energy =            338.4586671704949481
    One-Electron Energy =               -1202.6834946946821674
    Two-Electron Energy =                 481.8934338630739944
    Total Energy =                       -382.3313936611132817
  Basis Set: (AUG-CC-PVTZ AUX)
    Blend: AUG-CC-PVTZ-RI
    Molecular point group: c1

    Geometry (in Angstrom), charge = -1, multiplicity = 1:

       Center              X                  Y                   Z               Mass
    ------------   -----------------  -----------------  -----------------  -----------------
         O           -2.902588151754    -0.812557082318    -0.573618789316    15.994914619570
         O           -2.286087151754     1.279849917682     0.067067210684    15.994914619570
         C            2.702162848246     0.344635917682    -0.574424789316    12.000000000000
         C            1.455327848246    -0.395304082318    -0.186078789316    12.000000000000
         C            0.357623848246     0.176571917682     0.334881210684    12.000000000000
         C           -0.893877151754    -0.550087082318     0.720064210684    12.000000000000
         C            3.919347848246    -0.104865082318     0.239227210684    12.000000000000
         C           -2.142635151754     0.022261917682    -0.002115789316    12.000000000000
         H            2.911270848246     0.188858917682    -1.641413789316     1.007825032230
         H            2.542218848246     1.421120917682    -0.438828789316     1.007825032230
         H            1.472010648246    -1.527821782318    -0.339056189316     1.007825032230
         H            0.337248848246     1.257336917682     0.476049210684     1.007825032230
         H           -0.800515151754    -1.620668082318     0.509128210684     1.007825032230
         H           -1.066995151754    -0.436262082318     1.800696210684     1.007825032230
         H            4.096974848246    -1.177267082318     0.112039210684     1.007825032230
         H            3.759667848246     0.085958917682     1.304418210684     1.007825032230
         H            4.823693848246     0.426686917682    -0.072804789316     1.007825032230

  Basis Set: AUG-CC-PVTZ
    Blend: AUG-CC-PVTZ
  Basis Set: (AUG-CC-PVTZ AUX)
    Blend: AUG-CC-PVTZ-JKFIT
	 Reference Energy          =    -382.3313936611132817 [Eh]
	 Singles Energy            =      -0.0000000000000000 [Eh]
	 Same-Spin Energy          =      -0.3909891996535129 [Eh]
	 Opposite-Spin Energy      =      -1.2597748498850938 [Eh]
	 Correlation Energy        =      -1.6507640495386067 [Eh]
	 Total Energy              =    -383.9821577106519044 [Eh]

	 ================> DF-SCS-MP2 Energies <==================
	-----------------------------------------------------------
	 SCS Same-Spin Scale       =       0.3333333333333333 [-]
	 SCS Opposite-Spin Scale   =       1.2000000000000000 [-]
	 SCS Same-Spin Energy      =      -0.1303297332178376 [Eh]
	 SCS Opposite-Spin Energy  =      -1.5117298198621125 [Eh]
	 SCS Correlation Energy    =      -1.6420595530799502 [Eh]
	 SCS Total Energy          =    -383.9734532141932277 [Eh]
	-----------------------------------------------------------

  Dipole Moment: [D]
     X:    10.7229      Y:    -0.9836      Z:     1.4735     Total:    10.8682

*** Psi4 exiting successfully. Buy a developer a beer!
