                               Psi4 1.3.2 release

  ==> Input File <==

--------------------------------------------------------------------------
#psi4
#
memory 32 gb

molecule  {
-1 1
  O       -2.9259140    -0.9099280    -0.5693610
  O       -2.5318610     1.2678500    -0.0507790
  C        2.5515340     0.1562790    -0.6847320
  C        1.3191281    -0.4069645    -0.0375064
  C        0.1996320     0.2215300     0.2212070
  C       -1.0388440    -0.3710000     0.8261750
  C        3.7521530     0.0645780     0.2634350
  C       -2.2854840     0.0250790    -0.0044070
  H        2.8505563    -0.3114995    -1.6325036
  H        2.3518550     1.2059430    -0.9306210
  H        1.3523840    -1.5323490     0.0963350
  H        0.1538580     1.2934970     0.0216010
  H       -0.9504340    -1.4608690     0.8884060
  H       -1.1707130     0.0247460     1.8437960
  H        3.9732670    -0.9779260     0.5120620
  H        3.5426510     0.5954950     1.1964510
  H        4.6498360     0.5017940    -0.1852730
units angstrom
no_reorient  #important for SAPT in psi4, default
symmetry c1  #important for SAPT in psi4, default
}

set PROPERTIES_ORIGIN ["COM"]
properties('MP2/aug-cc-pvtz', properties = ['dipole'])
--------------------------------------------------------------------------

    Molecular point group: c1
  Charge       = -1
  Multiplicity = 1
  Basis Set: AUG-CC-PVTZ
    Blend: AUG-CC-PVTZ
  Basis Set: (AUG-CC-PVTZ AUX)
    Blend: AUG-CC-PVTZ-JKFIT

    Orbital Energies [Eh]
    ---------------------

    Doubly Occupied:

       1A    -20.298043     2A    -20.296065     3A    -11.144280
       4A    -11.122770     5A    -11.121997     6A    -11.096908
       7A    -11.094953     8A    -11.070211     9A     -1.165832
      10A     -1.064982    11A     -0.972292    12A     -0.904477
      13A     -0.807068    14A     -0.725799    15A     -0.616156
      16A     -0.535744    17A     -0.514187    18A     -0.503618
      19A     -0.452180    20A     -0.440319    21A     -0.433825
      22A     -0.413305    23A     -0.402088    24A     -0.387465
      25A     -0.368640    26A     -0.343174    27A     -0.324085
      28A     -0.243243    29A     -0.211300    30A     -0.195734
      31A     -0.193071

  @DF-RHF Final Energy:  -382.32949894677466

   => Energetics <=

    Nuclear Repulsion Energy =            339.2328606649242033
    One-Electron Energy =               -1204.1970946392846145
    Two-Electron Energy =                 482.6347350275858048
    Total Energy =                       -382.3294989467746632
  Basis Set: (AUG-CC-PVTZ AUX)
    Blend: AUG-CC-PVTZ-RI
    Molecular point group: c1

    Geometry (in Angstrom), charge = -1, multiplicity = 1:

       Center              X                  Y                   Z               Mass
    ------------   -----------------  -----------------  -----------------  -----------------
         O           -2.780550265375    -0.921714703216    -0.559767810373    15.994914619570
         O           -2.386497265375     1.256063296784    -0.041185810373    15.994914619570
         C            2.696897734625     0.144492296784    -0.675138810373    12.000000000000
         C            1.464491834625    -0.418751203216    -0.027913210373    12.000000000000
         C            0.344995734625     0.209743296784     0.230800189627    12.000000000000
         C           -0.893480265375    -0.382786703216     0.835768189627    12.000000000000
         C            3.897516734625     0.052791296784     0.273028189627    12.000000000000
         C           -2.140120265375     0.013292296784     0.005186189627    12.000000000000
         H            2.995920034625    -0.323286203216    -1.622910410373     1.007825032230
         H            2.497218734625     1.194156296784    -0.921027810373     1.007825032230
         H            1.497747734625    -1.544135703216     0.105928189627     1.007825032230
         H            0.299221734625     1.281710296784     0.031194189627     1.007825032230
         H           -0.805070265375    -1.472655703216     0.897999189627     1.007825032230
         H           -1.025349265375     0.012959296784     1.853389189627     1.007825032230
         H            4.118630734625    -0.989712703216     0.521655189627     1.007825032230
         H            3.688014734625     0.583708296784     1.206044189627     1.007825032230
         H            4.795199734625     0.490007296784    -0.175679810373     1.007825032230

  Basis Set: AUG-CC-PVTZ
    Blend: AUG-CC-PVTZ
  Basis Set: (AUG-CC-PVTZ AUX)
    Blend: AUG-CC-PVTZ-JKFIT
	 Reference Energy          =    -382.3294989467746632 [Eh]
	 Singles Energy            =      -0.0000000000000000 [Eh]
	 Same-Spin Energy          =      -0.3908517860670123 [Eh]
	 Opposite-Spin Energy      =      -1.2592817931611928 [Eh]
	 Correlation Energy        =      -1.6501335792282052 [Eh]
	 Total Energy              =    -383.9796325260028880 [Eh]

	 ================> DF-SCS-MP2 Energies <==================
	-----------------------------------------------------------
	 SCS Same-Spin Scale       =       0.3333333333333333 [-]
	 SCS Opposite-Spin Scale   =       1.2000000000000000 [-]
	 SCS Same-Spin Energy      =      -0.1302839286890041 [Eh]
	 SCS Opposite-Spin Energy  =      -1.5111381517934313 [Eh]
	 SCS Correlation Energy    =      -1.6414220804824353 [Eh]
	 SCS Total Energy          =    -383.9709210272570772 [Eh]
	-----------------------------------------------------------

  Dipole Moment: [D]
     X:    10.6735      Y:    -0.6689      Z:     1.6064     Total:    10.8144

*** Psi4 exiting successfully. Buy a developer a beer!
