                               Psi4 1.3.2 release

  ==> Input File <==

--------------------------------------------------------------------------
#psi4
#
memory 32 gb

molecule  {
-1 1
  O       -2.9259140    -0.9099280    -0.5693610
  O       -2.5318610     1.2678500    -0.0507790
  C        2.5515340     0.1562790    -0.6847320
  C        1.3133740    -0.4576390    -0.0973370
  C        0.1996320     0.2215300     0.2212070
  C       -1.0388440    -0.3710000     0.8261750
  C        3.7521530     0.0645780     0.2634350
  C       -2.2867170     0.0465128    -0.0084315
  H        2.8053070    -0.3466590    -1.6276820
  H        2.3518550     1.2059430    -0.9306210
  H        1.3523840    -1.5323490     0.0963350
  H        0.1443950     1.2928860     0.0207170
  H       -0.9504340    -1.4608690     0.8884060
  H       -1.1707130     0.0247460     1.8437960
  H        3.9732670    -0.9779260     0.5120620
  H        3.5426510     0.5954950     1.1964510
  H        4.6498360     0.5017940    -0.1852730
units angstrom
no_reorient  #important for SAPT in psi4, default
symmetry c1  #important for SAPT in psi4, default
}

set PROPERTIES_ORIGIN ["COM"]
properties('MP2/aug-cc-pvtz', properties = ['dipole'])
--------------------------------------------------------------------------

    Molecular point group: c1
  Charge       = -1
  Multiplicity = 1
  Basis Set: AUG-CC-PVTZ
    Blend: AUG-CC-PVTZ
  Basis Set: (AUG-CC-PVTZ AUX)
    Blend: AUG-CC-PVTZ-JKFIT

    Orbital Energies [Eh]
    ---------------------

    Doubly Occupied:

       1A    -20.300948     2A    -20.293557     3A    -11.143827
       4A    -11.123470     5A    -11.121109     6A    -11.099710
       7A    -11.095177     8A    -11.068422     9A     -1.170032
      10A     -1.065971    11A     -0.968420    12A     -0.900088
      13A     -0.805618    14A     -0.721488    15A     -0.621733
      16A     -0.532472    17A     -0.514296    18A     -0.500076
      19A     -0.452481    20A     -0.442646    21A     -0.433875
      22A     -0.414806    23A     -0.401199    24A     -0.383036
      25A     -0.374257    26A     -0.348958    27A     -0.325864
      28A     -0.237695    29A     -0.213049    30A     -0.196460
      31A     -0.186489

  @DF-RHF Final Energy:  -382.33309521924406

   => Energetics <=

    Nuclear Repulsion Energy =            338.8864910186768498
    One-Electron Energy =               -1203.5247123967099014
    Two-Electron Energy =                 482.3051261587889371
    Total Energy =                       -382.3330952192440577
  Basis Set: (AUG-CC-PVTZ AUX)
    Blend: AUG-CC-PVTZ-RI
    Molecular point group: c1

    Geometry (in Angstrom), charge = -1, multiplicity = 1:

       Center              X                  Y                   Z               Mass
    ------------   -----------------  -----------------  -----------------  -----------------
         O           -2.779320959585    -0.918292290920    -0.553025451696    15.994914619570
         O           -2.385267959585     1.259485709080    -0.034443451696    15.994914619570
         C            2.698127040415     0.147914709080    -0.668396451696    12.000000000000
         C            1.459967040415    -0.466003290920    -0.081001451696    12.000000000000
         C            0.346225040415     0.213165709080     0.237542548304    12.000000000000
         C           -0.892250959585    -0.379364290920     0.842510548304    12.000000000000
         C            3.898746040415     0.056213709080     0.279770548304    12.000000000000
         C           -2.140123959585     0.038148509080     0.007904048304    12.000000000000
         H            2.951900040415    -0.355023290920    -1.611346451696     1.007825032230
         H            2.498448040415     1.197578709080    -0.914285451696     1.007825032230
         H            1.498977040415    -1.540713290920     0.112670548304     1.007825032230
         H            0.290988040415     1.284521709080     0.037052548304     1.007825032230
         H           -0.803840959585    -1.469233290920     0.904741548304     1.007825032230
         H           -1.024119959585     0.016381709080     1.860131548304     1.007825032230
         H            4.119860040415    -0.986290290920     0.528397548304     1.007825032230
         H            3.689244040415     0.587130709080     1.212786548304     1.007825032230
         H            4.796429040415     0.493429709080    -0.168937451696     1.007825032230

  Basis Set: AUG-CC-PVTZ
    Blend: AUG-CC-PVTZ
  Basis Set: (AUG-CC-PVTZ AUX)
    Blend: AUG-CC-PVTZ-JKFIT
	 Reference Energy          =    -382.3330952192440577 [Eh]
	 Singles Energy            =      -0.0000000000000000 [Eh]
	 Same-Spin Energy          =      -0.3908465635490242 [Eh]
	 Opposite-Spin Energy      =      -1.2592815965764921 [Eh]
	 Correlation Energy        =      -1.6501281601255162 [Eh]
	 Total Energy              =    -383.9832233793695764 [Eh]

	 ================> DF-SCS-MP2 Energies <==================
	-----------------------------------------------------------
	 SCS Same-Spin Scale       =       0.3333333333333333 [-]
	 SCS Opposite-Spin Scale   =       1.2000000000000000 [-]
	 SCS Same-Spin Energy      =      -0.1302821878496747 [Eh]
	 SCS Opposite-Spin Energy  =      -1.5111379158917904 [Eh]
	 SCS Correlation Energy    =      -1.6414201037414651 [Eh]
	 SCS Total Energy          =    -383.9745153229854964 [Eh]
	-----------------------------------------------------------

  Dipole Moment: [D]
     X:    10.6768      Y:    -0.5019      Z:     1.6836     Total:    10.8204

*** Psi4 exiting successfully. Buy a developer a beer!
