                               Psi4 1.3.2 release

  ==> Input File <==

--------------------------------------------------------------------------
#psi4
#
memory 32 gb

molecule  {
-1 1
  O       -2.9259140    -0.9099280    -0.5693610
  O       -2.5318610     1.2678500    -0.0507790
  C        2.5515340     0.1562790    -0.6847320
  C        1.3133740    -0.4576390    -0.0973370
  C        0.1996320     0.2215300     0.2212070
  C       -1.0805218    -0.3373111     0.7687504
  C        3.7521530     0.0645780     0.2634350
  C       -2.2859372    -0.0493488     0.1034496
  H        2.8053070    -0.3466590    -1.6276820
  H        2.3518550     1.2059430    -0.9306210
  H        1.3523840    -1.5323490     0.0963350
  H        0.1538580     1.2934970     0.0216010
  H       -0.9504340    -1.4608690     0.8884060
  H       -1.1707130     0.0247460     1.8437960
  H        3.9732670    -0.9779260     0.5120620
  H        3.5426510     0.5954950     1.1964510
  H        4.6498360     0.5017940    -0.1852730
units angstrom
no_reorient  #important for SAPT in psi4, default
symmetry c1  #important for SAPT in psi4, default
}

set PROPERTIES_ORIGIN ["COM"]
properties('MP2/aug-cc-pvtz', properties = ['dipole'])
--------------------------------------------------------------------------

    Molecular point group: c1
  Charge       = -1
  Multiplicity = 1
  Basis Set: AUG-CC-PVTZ
    Blend: AUG-CC-PVTZ
  Basis Set: (AUG-CC-PVTZ AUX)
    Blend: AUG-CC-PVTZ-JKFIT

    Orbital Energies [Eh]
    ---------------------

    Doubly Occupied:

       1A    -20.306260     2A    -20.281285     3A    -11.142162
       4A    -11.126515     5A    -11.125432     6A    -11.107169
       7A    -11.102980     8A    -11.080971     9A     -1.154283
      10A     -1.031920    11A     -0.973343    12A     -0.908490
      13A     -0.824196    14A     -0.734820    15A     -0.631392
      16A     -0.552639    17A     -0.516210    18A     -0.504707
      19A     -0.457707    20A     -0.445914    21A     -0.431112
      22A     -0.419140    23A     -0.402296    24A     -0.387620
      25A     -0.370373    26A     -0.328505    27A     -0.306278
      28A     -0.238157    29A     -0.207235    30A     -0.194242
      31A     -0.181136

  @DF-RHF Final Energy:  -382.29818774884774

   => Energetics <=

    Nuclear Repulsion Energy =            339.2562957672702169
    One-Electron Energy =               -1204.1599926237918226
    Two-Electron Energy =                 482.6055091076738677
    Total Energy =                       -382.2981877488477380
  Basis Set: (AUG-CC-PVTZ AUX)
    Blend: AUG-CC-PVTZ-RI
    Molecular point group: c1

    Geometry (in Angstrom), charge = -1, multiplicity = 1:

       Center              X                  Y                   Z               Mass
    ------------   -----------------  -----------------  -----------------  -----------------
         O           -2.775064477466    -0.911698845486    -0.558813240871    15.994914619570
         O           -2.381011477466     1.266079154514    -0.040231240871    15.994914619570
         C            2.702383522534     0.154508154514    -0.674184240871    12.000000000000
         C            1.464223522534    -0.459409845486    -0.086789240871    12.000000000000
         C            0.350481522534     0.219759154514     0.231754759129    12.000000000000
         C           -0.929672277466    -0.339081945486     0.779298159129    12.000000000000
         C            3.903002522534     0.062807154514     0.273982759129    12.000000000000
         C           -2.135087677466    -0.051119645486     0.113997359129    12.000000000000
         H            2.956156522534    -0.348429845486    -1.617134240871     1.007825032230
         H            2.502704522534     1.204172154514    -0.920073240871     1.007825032230
         H            1.503233522534    -1.534119845486     0.106882759129     1.007825032230
         H            0.304707522534     1.291726154514     0.032148759129     1.007825032230
         H           -0.799584477466    -1.462639845486     0.898953759129     1.007825032230
         H           -1.019863477466     0.022975154514     1.854343759129     1.007825032230
         H            4.124116522534    -0.979696845486     0.522609759129     1.007825032230
         H            3.693500522534     0.593724154514     1.206998759129     1.007825032230
         H            4.800685522534     0.500023154514    -0.174725240871     1.007825032230

  Basis Set: AUG-CC-PVTZ
    Blend: AUG-CC-PVTZ
  Basis Set: (AUG-CC-PVTZ AUX)
    Blend: AUG-CC-PVTZ-JKFIT
	 Reference Energy          =    -382.2981877488477380 [Eh]
	 Singles Energy            =      -0.0000000000000000 [Eh]
	 Same-Spin Energy          =      -0.3934179522602713 [Eh]
	 Opposite-Spin Energy      =      -1.2654290977003870 [Eh]
	 Correlation Energy        =      -1.6588470499606582 [Eh]
	 Total Energy              =    -383.9570347988084222 [Eh]

	 ================> DF-SCS-MP2 Energies <==================
	-----------------------------------------------------------
	 SCS Same-Spin Scale       =       0.3333333333333333 [-]
	 SCS Opposite-Spin Scale   =       1.2000000000000000 [-]
	 SCS Same-Spin Energy      =      -0.1311393174200904 [Eh]
	 SCS Opposite-Spin Energy  =      -1.5185149172404644 [Eh]
	 SCS Correlation Energy    =      -1.6496542346605547 [Eh]
	 SCS Total Energy          =    -383.9478419835082832 [Eh]
	-----------------------------------------------------------

  Dipole Moment: [D]
     X:    11.2319      Y:    -1.2558      Z:     1.7096     Total:    11.4304

*** Psi4 exiting successfully. Buy a developer a beer!
