                               Psi4 1.3.2 release

  ==> Input File <==

--------------------------------------------------------------------------
#psi4
#
memory 32 gb

molecule  {
-1 1
  O       -2.9259140    -0.9099280    -0.5693610
  O       -2.5318610     1.2678500    -0.0507790
  C        2.5515340     0.1562790    -0.6847320
  C        1.3133740    -0.4576390    -0.0973370
  C        0.1996320     0.2215300     0.2212070
  C       -1.0388440    -0.3710000     0.8261750
  C        3.7521530     0.0645780     0.2634350
  C       -2.2660507    -0.0729463    -0.0007493
  H        2.8053070    -0.3466590    -1.6276820
  H        2.3518550     1.2059430    -0.9306210
  H        1.3523840    -1.5323490     0.0963350
  H        0.1538580     1.2934970     0.0216010
  H       -0.9504340    -1.4608690     0.8884060
  H       -1.1707130     0.0247460     1.8437960
  H        3.9732670    -0.9779260     0.5120620
  H        3.5426510     0.5954950     1.1964510
  H        4.6498360     0.5017940    -0.1852730
units angstrom
no_reorient  #important for SAPT in psi4, default
symmetry c1  #important for SAPT in psi4, default
}

set PROPERTIES_ORIGIN ["COM"]
properties('MP2/aug-cc-pvtz', properties = ['dipole'])
--------------------------------------------------------------------------

    Molecular point group: c1
  Charge       = -1
  Multiplicity = 1
  Basis Set: AUG-CC-PVTZ
    Blend: AUG-CC-PVTZ
  Basis Set: (AUG-CC-PVTZ AUX)
    Blend: AUG-CC-PVTZ-JKFIT

    Orbital Energies [Eh]
    ---------------------

    Doubly Occupied:

       1A    -20.316791     2A    -20.273170     3A    -11.143295
       4A    -11.124686     5A    -11.122644     6A    -11.101981
       7A    -11.098178     8A    -11.073827     9A     -1.183824
      10A     -1.027513    11A     -0.970298    12A     -0.903575
      13A     -0.813039    14A     -0.726830    15A     -0.625254
      16A     -0.538975    17A     -0.515084    18A     -0.503781
      19A     -0.455627    20A     -0.446412    21A     -0.439475
      22A     -0.416891    23A     -0.402301    24A     -0.384528
      25A     -0.371532    26A     -0.345116    27A     -0.325183
      28A     -0.238065    29A     -0.198912    30A     -0.190226
      31A     -0.182395

  @DF-RHF Final Energy:  -382.31702897460730

   => Energetics <=

    Nuclear Repulsion Energy =            338.8302864971191184
    One-Electron Energy =               -1203.3758123855313897
    Two-Electron Energy =                 482.2284969138049746
    Total Energy =                       -382.3170289746072967
  Basis Set: (AUG-CC-PVTZ AUX)
    Blend: AUG-CC-PVTZ-RI
    Molecular point group: c1

    Geometry (in Angstrom), charge = -1, multiplicity = 1:

       Center              X                  Y                   Z               Mass
    ------------   -----------------  -----------------  -----------------  -----------------
         O           -2.781598794969    -0.905618576139    -0.553848705789    15.994914619570
         O           -2.387545794969     1.272159423861    -0.035266705789    15.994914619570
         C            2.695849205031     0.160588423861    -0.669219705789    12.000000000000
         C            1.457689205031    -0.453329576139    -0.081824705789    12.000000000000
         C            0.343947205031     0.225839423861     0.236719294211    12.000000000000
         C           -0.894528794969    -0.366690576139     0.841687294211    12.000000000000
         C            3.896468205031     0.068887423861     0.278947294211    12.000000000000
         C           -2.121735494969    -0.068636876139     0.014762994211    12.000000000000
         H            2.949622205031    -0.342349576139    -1.612169705789     1.007825032230
         H            2.496170205031     1.210252423861    -0.915108705789     1.007825032230
         H            1.496699205031    -1.528039576139     0.111847294211     1.007825032230
         H            0.298173205031     1.297806423861     0.037113294211     1.007825032230
         H           -0.806118794969    -1.456559576139     0.903918294211     1.007825032230
         H           -1.026397794969     0.029055423861     1.859308294211     1.007825032230
         H            4.117582205031    -0.973616576139     0.527574294211     1.007825032230
         H            3.686966205031     0.599804423861     1.211963294211     1.007825032230
         H            4.794151205031     0.506103423861    -0.169760705789     1.007825032230

  Basis Set: AUG-CC-PVTZ
    Blend: AUG-CC-PVTZ
  Basis Set: (AUG-CC-PVTZ AUX)
    Blend: AUG-CC-PVTZ-JKFIT
	 Reference Energy          =    -382.3170289746072967 [Eh]
	 Singles Energy            =      -0.0000000000000000 [Eh]
	 Same-Spin Energy          =      -0.3915371413197906 [Eh]
	 Opposite-Spin Energy      =      -1.2612990290208710 [Eh]
	 Correlation Energy        =      -1.6528361703406615 [Eh]
	 Total Energy              =    -383.9698651449479598 [Eh]

	 ================> DF-SCS-MP2 Energies <==================
	-----------------------------------------------------------
	 SCS Same-Spin Scale       =       0.3333333333333333 [-]
	 SCS Opposite-Spin Scale   =       1.2000000000000000 [-]
	 SCS Same-Spin Energy      =      -0.1305123804399302 [Eh]
	 SCS Opposite-Spin Energy  =      -1.5135588348250451 [Eh]
	 SCS Correlation Energy    =      -1.6440712152649752 [Eh]
	 SCS Total Energy          =    -383.9611001898722975 [Eh]
	-----------------------------------------------------------

  Dipole Moment: [D]
     X:    10.8669      Y:    -1.6750      Z:     1.5645     Total:    11.1059

*** Psi4 exiting successfully. Buy a developer a beer!
