                               Psi4 1.3.2 release

  ==> Input File <==

--------------------------------------------------------------------------
#psi4
#
memory 32 gb

molecule  {
-1 1
  O       -2.9259140    -0.9099280    -0.5693610
  O       -2.5318610     1.2678500    -0.0507790
  C        2.5515340     0.1562790    -0.6847320
  C        1.3133740    -0.4576390    -0.0973370
  C        0.1996320     0.2215300     0.2212070
  C       -1.0388440    -0.3710000     0.8261750
  C        3.7521530     0.0645780     0.2634350
  C       -2.4840504     0.0093821    -0.0224341
  H        2.8053070    -0.3466590    -1.6276820
  H        2.3518550     1.2059430    -0.9306210
  H        1.3523840    -1.5323490     0.0963350
  H        0.1538580     1.2934970     0.0216010
  H       -0.9504340    -1.4608690     0.8884060
  H       -1.1707130     0.0247460     1.8437960
  H        3.9732670    -0.9779260     0.5120620
  H        3.5426510     0.5954950     1.1964510
  H        4.6498360     0.5017940    -0.1852730
units angstrom
no_reorient  #important for SAPT in psi4, default
symmetry c1  #important for SAPT in psi4, default
}

set PROPERTIES_ORIGIN ["COM"]
properties('MP2/aug-cc-pvtz', properties = ['dipole'])
--------------------------------------------------------------------------

    Molecular point group: c1
  Charge       = -1
  Multiplicity = 1
  Basis Set: AUG-CC-PVTZ
    Blend: AUG-CC-PVTZ
  Basis Set: (AUG-CC-PVTZ AUX)
    Blend: AUG-CC-PVTZ-JKFIT

    Orbital Energies [Eh]
    ---------------------

    Doubly Occupied:

       1A    -20.326594     2A    -20.299808     3A    -11.152755
       4A    -11.116570     5A    -11.113020     6A    -11.088784
       7A    -11.081380     8A    -11.046140     9A     -1.228486
      10A     -1.106813    11A     -0.957806    12A     -0.883790
      13A     -0.782229    14A     -0.703740    15A     -0.608643
      16A     -0.524746    17A     -0.504766    18A     -0.493458
      19A     -0.450812    20A     -0.437815    21A     -0.432882
      22A     -0.420434    23A     -0.410191    24A     -0.391077
      25A     -0.371079    26A     -0.353731    27A     -0.329801
      28A     -0.246077    29A     -0.221224    30A     -0.220732
      31A     -0.150141

  @DF-RHF Final Energy:  -382.31088803664863

   => Energetics <=

    Nuclear Repulsion Energy =            338.2123109999399162
    One-Electron Energy =               -1202.1353522709500794
    Two-Electron Energy =                 481.6121532343614717
    Total Energy =                       -382.3108880366486346
  Basis Set: (AUG-CC-PVTZ AUX)
    Blend: AUG-CC-PVTZ-RI
    Molecular point group: c1

    Geometry (in Angstrom), charge = -1, multiplicity = 1:

       Center              X                  Y                   Z               Mass
    ------------   -----------------  -----------------  -----------------  -----------------
         O           -2.758460722170    -0.914356755653    -0.551547122434    15.994914619570
         O           -2.364407722170     1.263421244347    -0.032965122434    15.994914619570
         C            2.718987277830     0.151850244347    -0.666918122434    12.000000000000
         C            1.480827277830    -0.462067755653    -0.079523122434    12.000000000000
         C            0.367085277830     0.217101244347     0.239020877566    12.000000000000
         C           -0.871390722170    -0.375428755653     0.843988877566    12.000000000000
         C            3.919606277830     0.060149244347     0.281248877566    12.000000000000
         C           -2.316597122170     0.004953344347    -0.004620222434    12.000000000000
         H            2.972760277830    -0.351087755653    -1.609868122434     1.007825032230
         H            2.519308277830     1.201514244347    -0.912807122434     1.007825032230
         H            1.519837277830    -1.536777755653     0.114148877566     1.007825032230
         H            0.321311277830     1.289068244347     0.039414877566     1.007825032230
         H           -0.782980722170    -1.465297755653     0.906219877566     1.007825032230
         H           -1.003259722170     0.020317244347     1.861609877566     1.007825032230
         H            4.140720277830    -0.982354755653     0.529875877566     1.007825032230
         H            3.710104277830     0.591066244347     1.214264877566     1.007825032230
         H            4.817289277830     0.497365244347    -0.167459122434     1.007825032230

  Basis Set: AUG-CC-PVTZ
    Blend: AUG-CC-PVTZ
  Basis Set: (AUG-CC-PVTZ AUX)
    Blend: AUG-CC-PVTZ-JKFIT
	 Reference Energy          =    -382.3108880366486346 [Eh]
	 Singles Energy            =      -0.0000000000000000 [Eh]
	 Same-Spin Energy          =      -0.3906287635550623 [Eh]
	 Opposite-Spin Energy      =      -1.2573334121871440 [Eh]
	 Correlation Energy        =      -1.6479621757422063 [Eh]
	 Total Energy              =    -383.9588502123908142 [Eh]

	 ================> DF-SCS-MP2 Energies <==================
	-----------------------------------------------------------
	 SCS Same-Spin Scale       =       0.3333333333333333 [-]
	 SCS Opposite-Spin Scale   =       1.2000000000000000 [-]
	 SCS Same-Spin Energy      =      -0.1302095878516874 [Eh]
	 SCS Opposite-Spin Energy  =      -1.5088000946245728 [Eh]
	 SCS Correlation Energy    =      -1.6390096824762601 [Eh]
	 SCS Total Energy          =    -383.9498977191249196 [Eh]
	-----------------------------------------------------------

  Dipole Moment: [D]
     X:     8.9981      Y:    -0.9593      Z:     0.9600     Total:     9.0998

*** Psi4 exiting successfully. Buy a developer a beer!
