                               Psi4 1.3.2 release

  ==> Input File <==

--------------------------------------------------------------------------
#psi4
#
memory 32 gb

molecule  {
-1 1
  O       -2.9259140    -0.9099280    -0.5693610
  O       -2.5318610     1.2678500    -0.0507790
  C        2.5515340     0.1562790    -0.6847320
  C        1.3067572    -0.4545709    -0.1082241
  C        0.1996320     0.2215300     0.2212070
  C       -1.0388440    -0.3710000     0.8261750
  C        3.7597293     0.0708195     0.2543508
  C       -2.2854840     0.0250790    -0.0044070
  H        2.8053070    -0.3466590    -1.6276820
  H        2.3518550     1.2059430    -0.9306210
  H        1.3523840    -1.5323490     0.0963350
  H        0.1538580     1.2934970     0.0216010
  H       -0.9504340    -1.4608690     0.8884060
  H       -1.1707130     0.0247460     1.8437960
  H        3.9732670    -0.9779260     0.5120620
  H        3.5426510     0.5954950     1.1964510
  H        4.6498360     0.5017940    -0.1852730
units angstrom
no_reorient  #important for SAPT in psi4, default
symmetry c1  #important for SAPT in psi4, default
}

set PROPERTIES_ORIGIN ["COM"]
properties('MP2/aug-cc-pvtz', properties = ['dipole'])
--------------------------------------------------------------------------

    Molecular point group: c1
  Charge       = -1
  Multiplicity = 1
  Basis Set: AUG-CC-PVTZ
    Blend: AUG-CC-PVTZ
  Basis Set: (AUG-CC-PVTZ AUX)
    Blend: AUG-CC-PVTZ-JKFIT

    Orbital Energies [Eh]
    ---------------------

    Doubly Occupied:

       1A    -20.297649     2A    -20.295779     3A    -11.143912
       4A    -11.124031     5A    -11.121450     6A    -11.099608
       7A    -11.095756     8A    -11.069607     9A     -1.165462
      10A     -1.064624    11A     -0.969000    12A     -0.901282
      13A     -0.807403    14A     -0.723043    15A     -0.621232
      16A     -0.533204    17A     -0.513077    18A     -0.502069
      19A     -0.452721    20A     -0.444603    21A     -0.432813
      22A     -0.413884    23A     -0.401691    24A     -0.382658
      25A     -0.372596    26A     -0.347928    27A     -0.324009
      28A     -0.239148    29A     -0.210980    30A     -0.195440
      31A     -0.189379

  @DF-RHF Final Energy:  -382.33288849982432

   => Energetics <=

    Nuclear Repulsion Energy =            338.8305739659022606
    One-Electron Energy =               -1203.4148535997892395
    Two-Electron Energy =                 482.2513911340627146
    Total Energy =                       -382.3328884998243211
  Basis Set: (AUG-CC-PVTZ AUX)
    Blend: AUG-CC-PVTZ-RI
    Molecular point group: c1

    Geometry (in Angstrom), charge = -1, multiplicity = 1:

       Center              X                  Y                   Z               Mass
    ------------   -----------------  -----------------  -----------------  -----------------
         O           -2.779638021035    -0.917010897918    -0.551340768750    15.994914619570
         O           -2.385585021035     1.260767102082    -0.032758768750    15.994914619570
         C            2.697809978965     0.149196102082    -0.666711768750    12.000000000000
         C            1.453033178965    -0.461653797918    -0.090203868750    12.000000000000
         C            0.345907978965     0.214447102082     0.239227231250    12.000000000000
         C           -0.892568021035    -0.378082897918     0.844195231250    12.000000000000
         C            3.906005278965     0.063736602082     0.272371031250    12.000000000000
         C           -2.139208021035     0.017996102082     0.013613231250    12.000000000000
         H            2.951582978965    -0.353741897918    -1.609661768750     1.007825032230
         H            2.498130978965     1.198860102082    -0.912600768750     1.007825032230
         H            1.498659978965    -1.539431897918     0.114355231250     1.007825032230
         H            0.300133978965     1.286414102082     0.039621231250     1.007825032230
         H           -0.804158021035    -1.467951897918     0.906426231250     1.007825032230
         H           -1.024437021035     0.017663102082     1.861816231250     1.007825032230
         H            4.119542978965    -0.985008897918     0.530082231250     1.007825032230
         H            3.688926978965     0.588412102082     1.214471231250     1.007825032230
         H            4.796111978965     0.494711102082    -0.167252768750     1.007825032230

  Basis Set: AUG-CC-PVTZ
    Blend: AUG-CC-PVTZ
  Basis Set: (AUG-CC-PVTZ AUX)
    Blend: AUG-CC-PVTZ-JKFIT
	 Reference Energy          =    -382.3328884998243211 [Eh]
	 Singles Energy            =      -0.0000000000000000 [Eh]
	 Same-Spin Energy          =      -0.3909067030900779 [Eh]
	 Opposite-Spin Energy      =      -1.2594851247191454 [Eh]
	 Correlation Energy        =      -1.6503918278092233 [Eh]
	 Total Energy              =    -383.9832803276335653 [Eh]

	 ================> DF-SCS-MP2 Energies <==================
	-----------------------------------------------------------
	 SCS Same-Spin Scale       =       0.3333333333333333 [-]
	 SCS Opposite-Spin Scale   =       1.2000000000000000 [-]
	 SCS Same-Spin Energy      =      -0.1303022343633593 [Eh]
	 SCS Opposite-Spin Energy  =      -1.5113821496629745 [Eh]
	 SCS Correlation Energy    =      -1.6416843840263338 [Eh]
	 SCS Total Energy          =    -383.9745728838506693 [Eh]
	-----------------------------------------------------------

  Dipole Moment: [D]
     X:    10.7235      Y:    -0.6994      Z:     1.6650     Total:    10.8745

*** Psi4 exiting successfully. Buy a developer a beer!
