                               Psi4 1.4a3.dev225

  ==> Input File <==

--------------------------------------------------------------------------
#psi4
#
memory 32 gb

molecule  {
-1 1
  O       -3.0493610    -0.8021490    -0.5876160
  O       -2.4328600     1.2902580     0.0530700
  C        2.5553900     0.3550440    -0.5884220
  C        1.3085550    -0.3848960    -0.2000760
  C        0.2108510     0.1869800     0.3208840
  C       -1.0406500    -0.5396790     0.7060670
  C        3.7725750    -0.0944570     0.2252300
  C       -2.2894080     0.0326700    -0.0161130
  H        2.7644980     0.1992670    -1.6554110
  H        2.3954460     1.4315290    -0.4528260
  H        1.3245080    -1.4678690    -0.3463610
  H        0.1904760     1.2677450     0.4620520
  H       -0.9472880    -1.6102600     0.4951310
  H       -1.2106213    -0.4279230     1.7670568
  H        3.9502020    -1.1668590     0.0980420
  H        3.6128950     0.0963670     1.2904210
  H        4.6769210     0.4370950    -0.0868020
units angstrom
no_reorient  #important for SAPT in psi4, default
symmetry c1  #important for SAPT in psi4, default
}

set PROPERTIES_ORIGIN ["COM"]
properties('MP2/aug-cc-pvtz', properties = ['dipole'])
--------------------------------------------------------------------------

    Molecular point group: c1
  Charge       = -1
  Multiplicity = 1
  Basis Set: AUG-CC-PVTZ
    Blend: AUG-CC-PVTZ
  Basis Set: (AUG-CC-PVTZ AUX)
    Blend: AUG-CC-PVTZ-JKFIT

    Orbital Energies [Eh]
    ---------------------

    Doubly Occupied:

       1A    -20.297761     2A    -20.296119     3A    -11.144259
       4A    -11.123349     5A    -11.120653     6A    -11.098580
       7A    -11.094647     8A    -11.066748     9A     -1.165910
      10A     -1.065387    11A     -0.968524    12A     -0.900821
      13A     -0.807322    14A     -0.722322    15A     -0.622356
      16A     -0.532642    17A     -0.513211    18A     -0.501943
      19A     -0.453585    20A     -0.443404    21A     -0.434283
      22A     -0.414550    23A     -0.401505    24A     -0.382784
      25A     -0.375579    26A     -0.344856    27A     -0.324794
      28A     -0.238827    29A     -0.211789    30A     -0.196219
      31A     -0.187831

  @DF-RHF Final Energy:  -382.33374537963397

   => Energetics <=

    Nuclear Repulsion Energy =            338.7797257072168122
    One-Electron Energy =               -1203.3218219154571216
    Two-Electron Energy =                 482.2083508286063420
    Total Energy =                       -382.3337453796339673
  Basis Set: (AUG-CC-PVTZ AUX)
    Blend: AUG-CC-PVTZ-RI
    Molecular point group: c1

    Geometry (in Angstrom), charge = -1, multiplicity = 1:

       Center              X                  Y                   Z               Mass
    ------------   -----------------  -----------------  -----------------  -----------------
         O           -2.902609696127    -0.812980283195    -0.573503354121    15.994914619570
         O           -2.286108696127     1.279426716805     0.067182645879    15.994914619570
         C            2.702141303873     0.344212716805    -0.574309354121    12.000000000000
         C            1.455306303873    -0.395727283195    -0.185963354121    12.000000000000
         C            0.357602303873     0.176148716805     0.334996645879    12.000000000000
         C           -0.893898696127    -0.550510283195     0.720179645879    12.000000000000
         C            3.919326303873    -0.105288283195     0.239342645879    12.000000000000
         C           -2.142656696127     0.021838716805    -0.002000354121    12.000000000000
         H            2.911249303873     0.188435716805    -1.641298354121     1.007825032230
         H            2.542197303873     1.420697716805    -0.438713354121     1.007825032230
         H            1.471259303873    -1.478700283195    -0.332248354121     1.007825032230
         H            0.337227303873     1.256913716805     0.476164645879     1.007825032230
         H           -0.800536696127    -1.621091283195     0.509243645879     1.007825032230
         H           -1.063869996127    -0.438754283195     1.781169445879     1.007825032230
         H            4.096953303873    -1.177690283195     0.112154645879     1.007825032230
         H            3.759646303873     0.085535716805     1.304533645879     1.007825032230
         H            4.823672303873     0.426263716805    -0.072689354121     1.007825032230

  Basis Set: AUG-CC-PVTZ
    Blend: AUG-CC-PVTZ
  Basis Set: (AUG-CC-PVTZ AUX)
    Blend: AUG-CC-PVTZ-JKFIT
	 Reference Energy          =    -382.3337453796339673 [Eh]
	 Singles Energy            =      -0.0000000000000000 [Eh]
	 Same-Spin Energy          =      -0.3909030030601188 [Eh]
	 Opposite-Spin Energy      =      -1.2592878242677348 [Eh]
	 Correlation Energy        =      -1.6501908273278536 [Eh]
	 Total Energy              =    -383.9839362069618005 [Eh]

	 ================> DF-SCS-MP2 Energies <==================
	-----------------------------------------------------------
	 SCS Same-Spin Scale       =       0.3333333333333333 [-]
	 SCS Opposite-Spin Scale   =       1.2000000000000000 [-]
	 SCS Same-Spin Energy      =      -0.1303010010200396 [Eh]
	 SCS Opposite-Spin Energy  =      -1.5111453891212816 [Eh]
	 SCS Correlation Energy    =      -1.6414463901413212 [Eh]
	 SCS Total Energy          =    -383.9751917697752788 [Eh]
	-----------------------------------------------------------

  Dipole Moment: [D]
     X:    10.7196      Y:    -1.0210      Z:     1.4830     Total:    10.8697

*** Psi4 exiting successfully. Buy a developer a beer!
