                               Psi4 1.4a3.dev225

  ==> Input File <==

--------------------------------------------------------------------------
#psi4
#
memory 32 gb

molecule  {
-1 1
  O       -3.0493610    -0.8021490    -0.5876160
  O       -2.4328600     1.2902580     0.0530700
  C        2.5553900     0.3550440    -0.5884220
  C        1.3085550    -0.3848960    -0.2000760
  C        0.2108510     0.1869800     0.3208840
  C       -1.0406500    -0.5396790     0.7060670
  C        3.7725750    -0.0944570     0.2252300
  C       -2.2894080     0.0326700    -0.0161130
  H        2.7644980     0.1992670    -1.6554110
  H        2.3954460     1.4315290    -0.4528260
  H        1.3242161    -1.4480511    -0.3436841
  H        0.1904760     1.2677450     0.4620520
  H       -0.9472880    -1.6102600     0.4951310
  H       -1.2137680    -0.4258540     1.7866990
  H        3.9502020    -1.1668590     0.0980420
  H        3.6128950     0.0963670     1.2904210
  H        4.6769210     0.4370950    -0.0868020
units angstrom
no_reorient  #important for SAPT in psi4, default
symmetry c1  #important for SAPT in psi4, default
}

set PROPERTIES_ORIGIN ["COM"]
properties('MP2/aug-cc-pvtz', properties = ['dipole'])
--------------------------------------------------------------------------

    Molecular point group: c1
  Charge       = -1
  Multiplicity = 1
  Basis Set: AUG-CC-PVTZ
    Blend: AUG-CC-PVTZ
  Basis Set: (AUG-CC-PVTZ AUX)
    Blend: AUG-CC-PVTZ-JKFIT

    Orbital Energies [Eh]
    ---------------------

    Doubly Occupied:

       1A    -20.297890     2A    -20.296102     3A    -11.144428
       4A    -11.123384     5A    -11.120458     6A    -11.098448
       7A    -11.092350     8A    -11.069277     9A     -1.165959
      10A     -1.065443    11A     -0.968879    12A     -0.900510
      13A     -0.806735    14A     -0.721870    15A     -0.625144
      16A     -0.532633    17A     -0.513055    18A     -0.501444
      19A     -0.453894    20A     -0.443402    21A     -0.433183
      22A     -0.414530    23A     -0.401579    24A     -0.382695
      25A     -0.376406    26A     -0.345172    27A     -0.324173
      28A     -0.238679    29A     -0.211816    30A     -0.196252
      31A     -0.187852

  @DF-RHF Final Energy:  -382.33377393152887

   => Energetics <=

    Nuclear Repulsion Energy =            338.7738688448900461
    One-Electron Energy =               -1203.3079970237374710
    Two-Electron Energy =                 482.2003542473185007
    Total Energy =                       -382.3337739315288673
  Basis Set: (AUG-CC-PVTZ AUX)
    Blend: AUG-CC-PVTZ-RI
    Molecular point group: c1

    Geometry (in Angstrom), charge = -1, multiplicity = 1:

       Center              X                  Y                   Z               Mass
    ------------   -----------------  -----------------  -----------------  -----------------
         O           -2.902579044267    -0.813175384169    -0.573702307748    15.994914619570
         O           -2.286078044267     1.279231615831     0.066983692252    15.994914619570
         C            2.702171955733     0.344017615831    -0.574508307748    12.000000000000
         C            1.455336955733    -0.395922384169    -0.186162307748    12.000000000000
         C            0.357632955733     0.175953615831     0.334797692252    12.000000000000
         C           -0.893868044267    -0.550705384169     0.719980692252    12.000000000000
         C            3.919356955733    -0.105483384169     0.239143692252    12.000000000000
         C           -2.142626044267     0.021643615831    -0.002199307748    12.000000000000
         H            2.911279955733     0.188240615831    -1.641497307748     1.007825032230
         H            2.542227955733     1.420502615831    -0.438912307748     1.007825032230
         H            1.470998055733    -1.459077484169    -0.329770407748     1.007825032230
         H            0.337257955733     1.256718615831     0.475965692252     1.007825032230
         H           -0.800506044267    -1.621286384169     0.509044692252     1.007825032230
         H           -1.066986044267    -0.436880384169     1.800612692252     1.007825032230
         H            4.096983955733    -1.177885384169     0.111955692252     1.007825032230
         H            3.759676955733     0.085340615831     1.304334692252     1.007825032230
         H            4.823702955733     0.426068615831    -0.072888307748     1.007825032230

  Basis Set: AUG-CC-PVTZ
    Blend: AUG-CC-PVTZ
  Basis Set: (AUG-CC-PVTZ AUX)
    Blend: AUG-CC-PVTZ-JKFIT
	 Reference Energy          =    -382.3337739315288673 [Eh]
	 Singles Energy            =      -0.0000000000000000 [Eh]
	 Same-Spin Energy          =      -0.3908706907762765 [Eh]
	 Opposite-Spin Energy      =      -1.2592723102103669 [Eh]
	 Correlation Energy        =      -1.6501430009866433 [Eh]
	 Total Energy              =    -383.9839169325155126 [Eh]

	 ================> DF-SCS-MP2 Energies <==================
	-----------------------------------------------------------
	 SCS Same-Spin Scale       =       0.3333333333333333 [-]
	 SCS Opposite-Spin Scale   =       1.2000000000000000 [-]
	 SCS Same-Spin Energy      =      -0.1302902302587588 [Eh]
	 SCS Opposite-Spin Energy  =      -1.5111267722524402 [Eh]
	 SCS Correlation Energy    =      -1.6414170025111989 [Eh]
	 SCS Total Energy          =    -383.9751909340400857 [Eh]
	-----------------------------------------------------------

  Dipole Moment: [D]
     X:    10.7255      Y:    -1.0321      Z:     1.4676     Total:    10.8745

*** Psi4 exiting successfully. Buy a developer a beer!
