                               Psi4 1.3.2 release

  ==> Input File <==

--------------------------------------------------------------------------
#psi4
#
memory 32 gb

molecule  {
-1 1
  O       -2.9259140    -0.9099280    -0.5693610
  O       -2.5318610     1.2678500    -0.0507790
  C        2.5515340     0.1562790    -0.6847320
  C        1.3133740    -0.4576390    -0.0973370
  C        0.1996320     0.2215300     0.2212070
  C       -1.0388440    -0.3710000     0.8261750
  C        3.7521530     0.0645780     0.2634350
  C       -2.2854840     0.0250790    -0.0044070
  H        2.8053070    -0.3466590    -1.6276820
  H        2.3518550     1.2059430    -0.9306210
  H        1.3523840    -1.5323490     0.0963350
  H        0.1580522     1.1952733     0.0398908
  H       -0.9504340    -1.4608690     0.8884060
  H       -1.1707130     0.0247460     1.8437960
  H        3.9732670    -0.9779260     0.5120620
  H        3.5426510     0.5954950     1.1964510
  H        4.6498360     0.5017940    -0.1852730
units angstrom
no_reorient  #important for SAPT in psi4, default
symmetry c1  #important for SAPT in psi4, default
}

set PROPERTIES_ORIGIN ["COM"]
properties('MP2/aug-cc-pvtz', properties = ['dipole'])
--------------------------------------------------------------------------

    Molecular point group: c1
  Charge       = -1
  Multiplicity = 1
  Basis Set: AUG-CC-PVTZ
    Blend: AUG-CC-PVTZ
  Basis Set: (AUG-CC-PVTZ AUX)
    Blend: AUG-CC-PVTZ-JKFIT

    Orbital Energies [Eh]
    ---------------------

    Doubly Occupied:

       1A    -20.297421     2A    -20.295855     3A    -11.143640
       4A    -11.123898     5A    -11.121679     6A    -11.095432
       7A    -11.088050     8A    -11.068317     9A     -1.165360
      10A     -1.064531    11A     -0.970397    12A     -0.903321
      13A     -0.806492    14A     -0.724233    15A     -0.636419
      16A     -0.534057    17A     -0.517374    18A     -0.502952
      19A     -0.452648    20A     -0.443999    21A     -0.432551
      22A     -0.415034    23A     -0.405368    24A     -0.382930
      25A     -0.373343    26A     -0.354146    27A     -0.323673
      28A     -0.237793    29A     -0.210872    30A     -0.195455
      31A     -0.188695

  @DF-RHF Final Energy:  -382.32734920295979

   => Energetics <=

    Nuclear Repulsion Energy =            339.3172794800616430
    One-Electron Energy =               -1204.3373879115256386
    Two-Electron Energy =                 482.6927592285042010
    Total Energy =                       -382.3273492029597946
  Basis Set: (AUG-CC-PVTZ AUX)
    Blend: AUG-CC-PVTZ-RI
    Molecular point group: c1

    Geometry (in Angstrom), charge = -1, multiplicity = 1:

       Center              X                  Y                   Z               Mass
    ------------   -----------------  -----------------  -----------------  -----------------
         O           -2.779573568852    -0.915147223504    -0.553623520716    15.994914619570
         O           -2.385520568852     1.262630776496    -0.035041520716    15.994914619570
         C            2.697874431148     0.151059776496    -0.668994520716    12.000000000000
         C            1.459714431148    -0.462858223504    -0.081599520716    12.000000000000
         C            0.345972431148     0.216310776496     0.236944479284    12.000000000000
         C           -0.892503568852    -0.376219223504     0.841912479284    12.000000000000
         C            3.898493431148     0.059358776496     0.279172479284    12.000000000000
         C           -2.139143568852     0.019859776496     0.011330479284    12.000000000000
         H            2.951647431148    -0.351878223504    -1.611944520716     1.007825032230
         H            2.498195431148     1.200723776496    -0.914883520716     1.007825032230
         H            1.498724431148    -1.537568223504     0.112072479284     1.007825032230
         H            0.304392631148     1.190054076496     0.055628279284     1.007825032230
         H           -0.804093568852    -1.466088223504     0.904143479284     1.007825032230
         H           -1.024372568852     0.019526776496     1.859533479284     1.007825032230
         H            4.119607431148    -0.983145223504     0.527799479284     1.007825032230
         H            3.688991431148     0.590275776496     1.212188479284     1.007825032230
         H            4.796176431148     0.496574776496    -0.169535520716     1.007825032230

  Basis Set: AUG-CC-PVTZ
    Blend: AUG-CC-PVTZ
  Basis Set: (AUG-CC-PVTZ AUX)
    Blend: AUG-CC-PVTZ-JKFIT
	 Reference Energy          =    -382.3273492029597946 [Eh]
	 Singles Energy            =      -0.0000000000000000 [Eh]
	 Same-Spin Energy          =      -0.3906969526139288 [Eh]
	 Opposite-Spin Energy      =      -1.2590193678176949 [Eh]
	 Correlation Energy        =      -1.6497163204316236 [Eh]
	 Total Energy              =    -383.9770655233914454 [Eh]

	 ================> DF-SCS-MP2 Energies <==================
	-----------------------------------------------------------
	 SCS Same-Spin Scale       =       0.3333333333333333 [-]
	 SCS Opposite-Spin Scale   =       1.2000000000000000 [-]
	 SCS Same-Spin Energy      =      -0.1302323175379763 [Eh]
	 SCS Opposite-Spin Energy  =      -1.5108232413812337 [Eh]
	 SCS Correlation Energy    =      -1.6410555589192100 [Eh]
	 SCS Total Energy          =    -383.9684047618790146 [Eh]
	-----------------------------------------------------------

  Dipole Moment: [D]
     X:    10.7484      Y:    -0.6876      Z:     1.6546     Total:    10.8967

*** Psi4 exiting successfully. Buy a developer a beer!
