                               Psi4 1.3.2 release

  ==> Input File <==

--------------------------------------------------------------------------
#psi4
#
memory 32 gb

molecule  {
-1 1
  O       -2.9259140    -0.9099280    -0.5693610
  O       -2.5318610     1.2678500    -0.0507790
  C        2.5515340     0.1562790    -0.6847320
  C        1.3133740    -0.4576390    -0.0973370
  C        0.1996320     0.2215300     0.2212070
  C       -1.0388440    -0.3710000     0.8261750
  C        3.7521530     0.0645780     0.2634350
  C       -2.1862008     0.0329274     0.0046065
  H        2.8053070    -0.3466590    -1.6276820
  H        2.3518550     1.2059430    -0.9306210
  H        1.3523840    -1.5323490     0.0963350
  H        0.1538580     1.2934970     0.0216010
  H       -0.9504340    -1.4608690     0.8884060
  H       -1.1707130     0.0247460     1.8437960
  H        3.9732670    -0.9779260     0.5120620
  H        3.5426510     0.5954950     1.1964510
  H        4.6498360     0.5017940    -0.1852730
units angstrom
no_reorient  #important for SAPT in psi4, default
symmetry c1  #important for SAPT in psi4, default
}

set PROPERTIES_ORIGIN ["COM"]
properties('MP2/aug-cc-pvtz', properties = ['dipole'])
--------------------------------------------------------------------------

    Molecular point group: c1
  Charge       = -1
  Multiplicity = 1
  Basis Set: AUG-CC-PVTZ
    Blend: AUG-CC-PVTZ
  Basis Set: (AUG-CC-PVTZ AUX)
    Blend: AUG-CC-PVTZ-JKFIT

    Orbital Energies [Eh]
    ---------------------

    Doubly Occupied:

       1A    -20.298214     2A    -20.288749     3A    -11.145757
       4A    -11.126553     5A    -11.124758     6A    -11.105157
       7A    -11.101315     8A    -11.076245     9A     -1.146488
      10A     -1.034034    11A     -0.973851    12A     -0.910385
      13A     -0.820868    14A     -0.730653    15A     -0.628295
      16A     -0.545372    17A     -0.519519    18A     -0.504479
      19A     -0.459491    20A     -0.449308    21A     -0.432409
      22A     -0.416682    23A     -0.398208    24A     -0.385524
      25A     -0.368397    26A     -0.344896    27A     -0.308378
      28A     -0.240191    29A     -0.204103    30A     -0.194436
      31A     -0.182698

  @DF-RHF Final Energy:  -382.31480910087464

   => Energetics <=

    Nuclear Repulsion Energy =            339.1087707239672113
    One-Electron Energy =               -1203.9163315468229030
    Two-Electron Energy =                 482.4927517219811079
    Total Energy =                       -382.3148091008746405
  Basis Set: (AUG-CC-PVTZ AUX)
    Blend: AUG-CC-PVTZ-RI
    Molecular point group: c1

    Geometry (in Angstrom), charge = -1, multiplicity = 1:

       Center              X                  Y                   Z               Mass
    ------------   -----------------  -----------------  -----------------  -----------------
         O           -2.790073911215    -0.916855808934    -0.554417160197    15.994914619570
         O           -2.396020911215     1.260922191066    -0.035835160197    15.994914619570
         C            2.687374088785     0.149351191066    -0.669788160197    12.000000000000
         C            1.449214088785    -0.464566808934    -0.082393160197    12.000000000000
         C            0.335472088785     0.214602191066     0.236150839803    12.000000000000
         C           -0.903003911215    -0.377927808934     0.841118839803    12.000000000000
         C            3.887993088785     0.057650191066     0.278378839803    12.000000000000
         C           -2.050360711215     0.025999591066     0.019550339803    12.000000000000
         H            2.941147088785    -0.353586808934    -1.612738160197     1.007825032230
         H            2.487695088785     1.199015191066    -0.915677160197     1.007825032230
         H            1.488224088785    -1.539276808934     0.111278839803     1.007825032230
         H            0.289698088785     1.286569191066     0.036544839803     1.007825032230
         H           -0.814593911215    -1.467796808934     0.903349839803     1.007825032230
         H           -1.034872911215     0.017818191066     1.858739839803     1.007825032230
         H            4.109107088785    -0.984853808934     0.527005839803     1.007825032230
         H            3.678491088785     0.588567191066     1.211394839803     1.007825032230
         H            4.785676088785     0.494866191066    -0.170329160197     1.007825032230

  Basis Set: AUG-CC-PVTZ
    Blend: AUG-CC-PVTZ
  Basis Set: (AUG-CC-PVTZ AUX)
    Blend: AUG-CC-PVTZ-JKFIT
	 Reference Energy          =    -382.3148091008746405 [Eh]
	 Singles Energy            =      -0.0000000000000000 [Eh]
	 Same-Spin Energy          =      -0.3928128074388161 [Eh]
	 Opposite-Spin Energy      =      -1.2638672259522703 [Eh]
	 Correlation Energy        =      -1.6566800333910865 [Eh]
	 Total Energy              =    -383.9714891342657097 [Eh]

	 ================> DF-SCS-MP2 Energies <==================
	-----------------------------------------------------------
	 SCS Same-Spin Scale       =       0.3333333333333333 [-]
	 SCS Opposite-Spin Scale   =       1.2000000000000000 [-]
	 SCS Same-Spin Energy      =      -0.1309376024796053 [Eh]
	 SCS Opposite-Spin Energy  =      -1.5166406711427243 [Eh]
	 SCS Correlation Energy    =      -1.6475782736223297 [Eh]
	 SCS Total Energy          =    -383.9623873744969842 [Eh]
	-----------------------------------------------------------

  Dipole Moment: [D]
     X:    11.3236      Y:    -0.5843      Z:     1.9451     Total:    11.5043

*** Psi4 exiting successfully. Buy a developer a beer!
