                               Psi4 1.3.2 release

  ==> Input File <==

--------------------------------------------------------------------------
#psi4
#
memory 32 gb

molecule  {
-1 1
  O       -2.9259140    -0.9099280    -0.5693610
  O       -2.5318610     1.2678500    -0.0507790
  C        2.5515340     0.1562790    -0.6847320
  C        1.3133740    -0.4576390    -0.0973370
  C        0.2073350     0.2483559     0.2655174
  C       -1.0388440    -0.3710000     0.8261750
  C        3.7521530     0.0645780     0.2634350
  C       -2.2854840     0.0250790    -0.0044070
  H        2.8053070    -0.3466590    -1.6276820
  H        2.3518550     1.2059430    -0.9306210
  H        1.3523840    -1.5323490     0.0963350
  H        0.1538580     1.2934970     0.0216010
  H       -0.9504340    -1.4608690     0.8884060
  H       -1.1386774     0.0453907     1.8391947
  H        3.9732670    -0.9779260     0.5120620
  H        3.5426510     0.5954950     1.1964510
  H        4.6498360     0.5017940    -0.1852730
units angstrom
no_reorient  #important for SAPT in psi4, default
symmetry c1  #important for SAPT in psi4, default
}

set PROPERTIES_ORIGIN ["COM"]
properties('MP2/aug-cc-pvtz', properties = ['dipole'])
--------------------------------------------------------------------------

    Molecular point group: c1
  Charge       = -1
  Multiplicity = 1
  Basis Set: AUG-CC-PVTZ
    Blend: AUG-CC-PVTZ
  Basis Set: (AUG-CC-PVTZ AUX)
    Blend: AUG-CC-PVTZ-JKFIT

    Orbital Energies [Eh]
    ---------------------

    Doubly Occupied:

       1A    -20.298484     2A    -20.296117     3A    -11.144817
       4A    -11.123244     5A    -11.121089     6A    -11.101499
       7A    -11.097978     8A    -11.069765     9A     -1.165950
      10A     -1.065182    11A     -0.967197    12A     -0.899887
      13A     -0.805761    14A     -0.720758    15A     -0.625215
      16A     -0.534534    17A     -0.514207    18A     -0.499889
      19A     -0.450290    20A     -0.442808    21A     -0.433550
      22A     -0.414844    23A     -0.402421    24A     -0.381176
      25A     -0.373683    26A     -0.354098    27A     -0.322443
      28A     -0.235351    29A     -0.211508    30A     -0.195950
      31A     -0.188176

  @DF-RHF Final Energy:  -382.33077349253125

   => Energetics <=

    Nuclear Repulsion Energy =            338.5756152137159347
    One-Electron Energy =               -1202.8970286827429845
    Two-Electron Energy =                 481.9906399764957428
    Total Energy =                       -382.3307734925312502
  Basis Set: (AUG-CC-PVTZ AUX)
    Blend: AUG-CC-PVTZ-RI
    Molecular point group: c1

    Geometry (in Angstrom), charge = -1, multiplicity = 1:

       Center              X                  Y                   Z               Mass
    ------------   -----------------  -----------------  -----------------  -----------------
         O           -2.780639330294    -0.919054072563    -0.558122489682    15.994914619570
         O           -2.386586330294     1.258723927437    -0.039540489682    15.994914619570
         C            2.696808669706     0.147152927437    -0.673493489682    12.000000000000
         C            1.458648669706    -0.466765072563    -0.086098489682    12.000000000000
         C            0.352609669706     0.239229827437     0.276755910318    12.000000000000
         C           -0.893569330294    -0.380126072563     0.837413510318    12.000000000000
         C            3.897427669706     0.055451927437     0.274673510318    12.000000000000
         C           -2.140209330294     0.015952927437     0.006831510318    12.000000000000
         H            2.950581669706    -0.355785072563    -1.616443489682     1.007825032230
         H            2.497129669706     1.196816927437    -0.919382489682     1.007825032230
         H            1.497658669706    -1.541475072563     0.107573510318     1.007825032230
         H            0.299132669706     1.284370927437     0.032839510318     1.007825032230
         H           -0.805159330294    -1.469995072563     0.899644510318     1.007825032230
         H           -0.993402730294     0.036264627437     1.850433210318     1.007825032230
         H            4.118541669706    -0.987052072563     0.523300510318     1.007825032230
         H            3.687925669706     0.586368927437     1.207689510318     1.007825032230
         H            4.795110669706     0.492667927437    -0.174034489682     1.007825032230

  Basis Set: AUG-CC-PVTZ
    Blend: AUG-CC-PVTZ
  Basis Set: (AUG-CC-PVTZ AUX)
    Blend: AUG-CC-PVTZ-JKFIT
	 Reference Energy          =    -382.3307734925312502 [Eh]
	 Singles Energy            =      -0.0000000000000000 [Eh]
	 Same-Spin Energy          =      -0.3911646046378501 [Eh]
	 Opposite-Spin Energy      =      -1.2601072822371711 [Eh]
	 Correlation Energy        =      -1.6512718868750211 [Eh]
	 Total Energy              =    -383.9820453794062587 [Eh]

	 ================> DF-SCS-MP2 Energies <==================
	-----------------------------------------------------------
	 SCS Same-Spin Scale       =       0.3333333333333333 [-]
	 SCS Opposite-Spin Scale   =       1.2000000000000000 [-]
	 SCS Same-Spin Energy      =      -0.1303882015459500 [Eh]
	 SCS Opposite-Spin Energy  =      -1.5121287386846052 [Eh]
	 SCS Correlation Energy    =      -1.6425169402305553 [Eh]
	 SCS Total Energy          =    -383.9732904327618144 [Eh]
	-----------------------------------------------------------

  Dipole Moment: [D]
     X:    10.6777      Y:    -0.7035      Z:     1.6389     Total:    10.8256

*** Psi4 exiting successfully. Buy a developer a beer!
