                               Psi4 1.3.2 release

  ==> Input File <==

--------------------------------------------------------------------------
#psi4
#
memory 32 gb

molecule  {
-1 1
  O       -2.9259140    -0.9099280    -0.5693610
  O       -2.5318610     1.2678500    -0.0507790
  C        2.5515340     0.1562790    -0.6847320
  C        1.3268900    -0.4636347    -0.0756978
  C        0.1996320     0.2215300     0.2212070
  C       -1.0388440    -0.3710000     0.8261750
  C        3.7367267     0.0521163     0.2813860
  C       -2.2854840     0.0250790    -0.0044070
  H        2.8053070    -0.3466590    -1.6276820
  H        2.3518550     1.2059430    -0.9306210
  H        1.3523840    -1.5323490     0.0963350
  H        0.1538580     1.2934970     0.0216010
  H       -0.9504340    -1.4608690     0.8884060
  H       -1.1707130     0.0247460     1.8437960
  H        3.9732670    -0.9779260     0.5120620
  H        3.5426510     0.5954950     1.1964510
  H        4.6498360     0.5017940    -0.1852730
units angstrom
no_reorient  #important for SAPT in psi4, default
symmetry c1  #important for SAPT in psi4, default
}

set PROPERTIES_ORIGIN ["COM"]
properties('MP2/aug-cc-pvtz', properties = ['dipole'])
--------------------------------------------------------------------------

    Molecular point group: c1
  Charge       = -1
  Multiplicity = 1
  Basis Set: AUG-CC-PVTZ
    Blend: AUG-CC-PVTZ
  Basis Set: (AUG-CC-PVTZ AUX)
    Blend: AUG-CC-PVTZ-JKFIT

    Orbital Energies [Eh]
    ---------------------

    Doubly Occupied:

       1A    -20.297713     2A    -20.295889     3A    -11.143946
       4A    -11.123279     5A    -11.121445     6A    -11.101475
       7A    -11.095666     8A    -11.069391     9A     -1.165541
      10A     -1.064710    11A     -0.968685    12A     -0.899656
      13A     -0.805954    14A     -0.721625    15A     -0.624521
      16A     -0.533271    17A     -0.516811    18A     -0.497700
      19A     -0.454516    20A     -0.439134    21A     -0.432959
      22A     -0.416985    23A     -0.400987    24A     -0.383696
      25A     -0.374026    26A     -0.349315    27A     -0.323803
      28A     -0.236204    29A     -0.211064    30A     -0.195539
      31A     -0.188299

  @DF-RHF Final Energy:  -382.33142628408513

   => Energetics <=

    Nuclear Repulsion Energy =            338.8478691123387989
    One-Electron Energy =               -1203.4509746832407018
    Two-Electron Energy =                 482.2716792868167772
    Total Energy =                       -382.3314262840851256
  Basis Set: (AUG-CC-PVTZ AUX)
    Blend: AUG-CC-PVTZ-RI
    Molecular point group: c1

    Geometry (in Angstrom), charge = -1, multiplicity = 1:

       Center              X                  Y                   Z               Mass
    ------------   -----------------  -----------------  -----------------  -----------------
         O           -2.779333425931    -0.914063761443    -0.557662512876    15.994914619570
         O           -2.385280425931     1.263714238557    -0.039080512876    15.994914619570
         C            2.698114574069     0.152143238557    -0.673033512876    12.000000000000
         C            1.473470574069    -0.467770461443    -0.063999312876    12.000000000000
         C            0.346212574069     0.217394238557     0.232905487124    12.000000000000
         C           -0.892263425931    -0.375135761443     0.837873487124    12.000000000000
         C            3.883307274069     0.047980538557     0.293084487124    12.000000000000
         C           -2.138903425931     0.020943238557     0.007291487124    12.000000000000
         H            2.951887574069    -0.350794761443    -1.615983512876     1.007825032230
         H            2.498435574069     1.201807238557    -0.918922512876     1.007825032230
         H            1.498964574069    -1.536484761443     0.108033487124     1.007825032230
         H            0.300438574069     1.289361238557     0.033299487124     1.007825032230
         H           -0.803853425931    -1.465004761443     0.900104487124     1.007825032230
         H           -1.024132425931     0.020610238557     1.855494487124     1.007825032230
         H            4.119847574069    -0.982061761443     0.523760487124     1.007825032230
         H            3.689231574069     0.591359238557     1.208149487124     1.007825032230
         H            4.796416574069     0.497658238557    -0.173574512876     1.007825032230

  Basis Set: AUG-CC-PVTZ
    Blend: AUG-CC-PVTZ
  Basis Set: (AUG-CC-PVTZ AUX)
    Blend: AUG-CC-PVTZ-JKFIT
	 Reference Energy          =    -382.3314262840851256 [Eh]
	 Singles Energy            =      -0.0000000000000000 [Eh]
	 Same-Spin Energy          =      -0.3910657322874909 [Eh]
	 Opposite-Spin Energy      =      -1.2598886306865205 [Eh]
	 Correlation Energy        =      -1.6509543629740113 [Eh]
	 Total Energy              =    -383.9823806470591308 [Eh]

	 ================> DF-SCS-MP2 Energies <==================
	-----------------------------------------------------------
	 SCS Same-Spin Scale       =       0.3333333333333333 [-]
	 SCS Opposite-Spin Scale   =       1.2000000000000000 [-]
	 SCS Same-Spin Energy      =      -0.1303552440958303 [Eh]
	 SCS Opposite-Spin Energy  =      -1.5118663568238244 [Eh]
	 SCS Correlation Energy    =      -1.6422216009196546 [Eh]
	 SCS Total Energy          =    -383.9736478850047661 [Eh]
	-----------------------------------------------------------

  Dipole Moment: [D]
     X:    10.6807      Y:    -0.7443      Z:     1.6597     Total:    10.8345

*** Psi4 exiting successfully. Buy a developer a beer!
