                               Psi4 1.3.2 release

  ==> Input File <==

--------------------------------------------------------------------------
#psi4
#
memory 32 gb

molecule  {
-1 1
  O       -2.9259140    -0.9099280    -0.5693610
  O       -2.5426565     1.2656250    -0.0517330
  C        2.5515340     0.1562790    -0.6847320
  C        1.3133740    -0.4576390    -0.0973370
  C        0.2012069     0.1997508     0.2217665
  C       -1.0388440    -0.3710000     0.8261750
  C        3.7521530     0.0645780     0.2634350
  C       -2.2854840     0.0250790    -0.0044070
  H        2.8053070    -0.3466590    -1.6276820
  H        2.3518550     1.2059430    -0.9306210
  H        1.3523840    -1.5323490     0.0963350
  H        0.1538580     1.2934970     0.0216010
  H       -0.9504340    -1.4608690     0.8884060
  H       -1.1707130     0.0247460     1.8437960
  H        3.9732670    -0.9779260     0.5120620
  H        3.5426510     0.5954950     1.1964510
  H        4.6498360     0.5017940    -0.1852730
units angstrom
no_reorient  #important for SAPT in psi4, default
symmetry c1  #important for SAPT in psi4, default
}

set PROPERTIES_ORIGIN ["COM"]
properties('MP2/aug-cc-pvtz', properties = ['dipole'])
--------------------------------------------------------------------------

    Molecular point group: c1
  Charge       = -1
  Multiplicity = 1
  Basis Set: AUG-CC-PVTZ
    Blend: AUG-CC-PVTZ
  Basis Set: (AUG-CC-PVTZ AUX)
    Blend: AUG-CC-PVTZ-JKFIT

    Orbital Energies [Eh]
    ---------------------

    Doubly Occupied:

       1A    -20.297208     2A    -20.295633     3A    -11.143945
       4A    -11.124104     5A    -11.122023     6A    -11.099885
       7A    -11.094322     8A    -11.069820     9A     -1.165489
      10A     -1.063885    11A     -0.970331    12A     -0.902601
      13A     -0.808607    14A     -0.724030    15A     -0.619020
      16A     -0.534133    17A     -0.513937    18A     -0.501040
      19A     -0.454316    20A     -0.443221    21A     -0.433370
      22A     -0.415595    23A     -0.400152    24A     -0.384419
      25A     -0.373371    26A     -0.343970    27A     -0.324756
      28A     -0.240541    29A     -0.210348    30A     -0.194905
      31A     -0.190398

  @DF-RHF Final Energy:  -382.33264392902458

   => Energetics <=

    Nuclear Repulsion Energy =            338.9211350089502162
    One-Electron Energy =               -1203.5888058112875569
    Two-Electron Energy =                 482.3350268733128132
    Total Energy =                       -382.3326439290245844
  Basis Set: (AUG-CC-PVTZ AUX)
    Blend: AUG-CC-PVTZ-RI
    Molecular point group: c1

    Geometry (in Angstrom), charge = -1, multiplicity = 1:

       Center              X                  Y                   Z               Mass
    ------------   -----------------  -----------------  -----------------  -----------------
         O           -2.778176072259    -0.913396415652    -0.553384903998    15.994914619570
         O           -2.394918572259     1.262156584348    -0.035756903998    15.994914619570
         C            2.699271927741     0.152810584348    -0.668755903998    12.000000000000
         C            1.461111927741    -0.461107415652    -0.081360903998    12.000000000000
         C            0.348944827741     0.196282384348     0.237742596002    12.000000000000
         C           -0.891106072259    -0.374468415652     0.842151096002    12.000000000000
         C            3.899890927741     0.061109584348     0.279411096002    12.000000000000
         C           -2.137746072259     0.021610584348     0.011569096002    12.000000000000
         H            2.953044927741    -0.350127415652    -1.611705903998     1.007825032230
         H            2.499592927741     1.202474584348    -0.914644903998     1.007825032230
         H            1.500121927741    -1.535817415652     0.112311096002     1.007825032230
         H            0.301595927741     1.290028584348     0.037577096002     1.007825032230
         H           -0.802696072259    -1.464337415652     0.904382096002     1.007825032230
         H           -1.022975072259     0.021277584348     1.859772096002     1.007825032230
         H            4.121004927741    -0.981394415652     0.528038096002     1.007825032230
         H            3.690388927741     0.592026584348     1.212427096002     1.007825032230
         H            4.797573927741     0.498325584348    -0.169296903998     1.007825032230

  Basis Set: AUG-CC-PVTZ
    Blend: AUG-CC-PVTZ
  Basis Set: (AUG-CC-PVTZ AUX)
    Blend: AUG-CC-PVTZ-JKFIT
	 Reference Energy          =    -382.3326439290245844 [Eh]
	 Singles Energy            =      -0.0000000000000000 [Eh]
	 Same-Spin Energy          =      -0.3909431580585139 [Eh]
	 Opposite-Spin Energy      =      -1.2594627935919200 [Eh]
	 Correlation Energy        =      -1.6504059516504339 [Eh]
	 Total Energy              =    -383.9830498806750256 [Eh]

	 ================> DF-SCS-MP2 Energies <==================
	-----------------------------------------------------------
	 SCS Same-Spin Scale       =       0.3333333333333333 [-]
	 SCS Opposite-Spin Scale   =       1.2000000000000000 [-]
	 SCS Same-Spin Energy      =      -0.1303143860195046 [Eh]
	 SCS Opposite-Spin Energy  =      -1.5113553523103040 [Eh]
	 SCS Correlation Energy    =      -1.6416697383298087 [Eh]
	 SCS Total Energy          =    -383.9743136673544086 [Eh]
	-----------------------------------------------------------

  Dipole Moment: [D]
     X:    10.7415      Y:    -0.7305      Z:     1.6745     Total:    10.8958

*** Psi4 exiting successfully. Buy a developer a beer!
