                               Psi4 1.3.2 release

  ==> Input File <==

--------------------------------------------------------------------------
#psi4
#
memory 32 gb

molecule  {
-1 1
  O       -2.9259140    -0.9099280    -0.5693610
  O       -2.5318610     1.2678500    -0.0507790
  C        2.5400434     0.1798146    -0.6837698
  C        1.3133740    -0.4576390    -0.0973370
  C        0.1996320     0.2215300     0.2212070
  C       -1.0393714    -0.3273533     0.8196826
  C        3.7521530     0.0645780     0.2634350
  C       -2.2854840     0.0250790    -0.0044070
  H        2.8053070    -0.3466590    -1.6276820
  H        2.3518550     1.2059430    -0.9306210
  H        1.3523840    -1.5323490     0.0963350
  H        0.1538580     1.2934970     0.0216010
  H       -0.9504340    -1.4608690     0.8884060
  H       -1.1707130     0.0247460     1.8437960
  H        3.9732670    -0.9779260     0.5120620
  H        3.5426510     0.5954950     1.1964510
  H        4.6498360     0.5017940    -0.1852730
units angstrom
no_reorient  #important for SAPT in psi4, default
symmetry c1  #important for SAPT in psi4, default
}

set PROPERTIES_ORIGIN ["COM"]
properties('MP2/aug-cc-pvtz', properties = ['dipole'])
--------------------------------------------------------------------------

    Molecular point group: c1
  Charge       = -1
  Multiplicity = 1
  Basis Set: AUG-CC-PVTZ
    Blend: AUG-CC-PVTZ
  Basis Set: (AUG-CC-PVTZ AUX)
    Blend: AUG-CC-PVTZ-JKFIT

    Orbital Energies [Eh]
    ---------------------

    Doubly Occupied:

       1A    -20.298364     2A    -20.294847     3A    -11.143124
       4A    -11.124283     5A    -11.121768     6A    -11.099350
       7A    -11.096838     8A    -11.070854     9A     -1.166002
      10A     -1.064827    11A     -0.969364    12A     -0.901731
      13A     -0.808136    14A     -0.723310    15A     -0.624093
      16A     -0.534720    17A     -0.514081    18A     -0.501273
      19A     -0.456250    20A     -0.441407    21A     -0.434266
      22A     -0.412282    23A     -0.401810    24A     -0.385517
      25A     -0.374396    26A     -0.339915    27A     -0.325757
      28A     -0.238527    29A     -0.209875    30A     -0.195273
      31A     -0.190569

  @DF-RHF Final Energy:  -382.32976586402856

   => Energetics <=

    Nuclear Repulsion Energy =            339.1890651022484917
    One-Electron Energy =               -1204.1120403889283352
    Two-Electron Energy =                 482.5932094226512845
    Total Energy =                       -382.3297658640285590
  Basis Set: (AUG-CC-PVTZ AUX)
    Blend: AUG-CC-PVTZ-RI
    Molecular point group: c1

    Geometry (in Angstrom), charge = -1, multiplicity = 1:

       Center              X                  Y                   Z               Mass
    ------------   -----------------  -----------------  -----------------  -----------------
         O           -2.778260613912    -0.923153396030    -0.552873519589    15.994914619570
         O           -2.384207613912     1.254624603970    -0.034291519589    15.994914619570
         C            2.687696786088     0.166589203970    -0.667282319589    12.000000000000
         C            1.461027386088    -0.470864396030    -0.080849519589    12.000000000000
         C            0.347285386088     0.208304603970     0.237694480411    12.000000000000
         C           -0.891718013912    -0.340578696030     0.836170080411    12.000000000000
         C            3.899806386088     0.051352603970     0.279922480411    12.000000000000
         C           -2.137830613912     0.011853603970     0.012080480411    12.000000000000
         H            2.952960386088    -0.359884396030    -1.611194519589     1.007825032230
         H            2.499508386088     1.192717603970    -0.914133519589     1.007825032230
         H            1.500037386088    -1.545574396030     0.112822480411     1.007825032230
         H            0.301511386088     1.280271603970     0.038088480411     1.007825032230
         H           -0.802780613912    -1.474094396030     0.904893480411     1.007825032230
         H           -1.023059613912     0.011520603970     1.860283480411     1.007825032230
         H            4.120920386088    -0.991151396030     0.528549480411     1.007825032230
         H            3.690304386088     0.582269603970     1.212938480411     1.007825032230
         H            4.797489386088     0.488568603970    -0.168785519589     1.007825032230

  Basis Set: AUG-CC-PVTZ
    Blend: AUG-CC-PVTZ
  Basis Set: (AUG-CC-PVTZ AUX)
    Blend: AUG-CC-PVTZ-JKFIT
	 Reference Energy          =    -382.3297658640285590 [Eh]
	 Singles Energy            =      -0.0000000000000000 [Eh]
	 Same-Spin Energy          =      -0.3911366396885967 [Eh]
	 Opposite-Spin Energy      =      -1.2599635758351297 [Eh]
	 Correlation Energy        =      -1.6511002155237264 [Eh]
	 Total Energy              =    -383.9808660795522997 [Eh]

	 ================> DF-SCS-MP2 Energies <==================
	-----------------------------------------------------------
	 SCS Same-Spin Scale       =       0.3333333333333333 [-]
	 SCS Opposite-Spin Scale   =       1.2000000000000000 [-]
	 SCS Same-Spin Energy      =      -0.1303788798961989 [Eh]
	 SCS Opposite-Spin Energy  =      -1.5119562910021556 [Eh]
	 SCS Correlation Energy    =      -1.6423351708983545 [Eh]
	 SCS Total Energy          =    -383.9721010349269363 [Eh]
	-----------------------------------------------------------

  Dipole Moment: [D]
     X:    10.7222      Y:    -0.6469      Z:     1.6658     Total:    10.8701

*** Psi4 exiting successfully. Buy a developer a beer!
