                               Psi4 1.3.2 release

  ==> Input File <==

--------------------------------------------------------------------------
#psi4
#
memory 32 gb

molecule  {
-1 1
  O       -2.9259140    -0.9099280    -0.5693610
  O       -2.5318610     1.2678500    -0.0507790
  C        2.5515340     0.1562790    -0.6847320
  C        1.3133740    -0.4576390    -0.0973370
  C        0.1996320     0.2215300     0.2212070
  C       -1.0388440    -0.3710000     0.8261750
  C        3.7521530     0.0645780     0.2634350
  C       -2.3360582    -0.0487577    -0.0490209
  H        2.8053070    -0.3466590    -1.6276820
  H        2.3518550     1.2059430    -0.9306210
  H        1.3523840    -1.5323490     0.0963350
  H        0.1538580     1.2934970     0.0216010
  H       -0.9504340    -1.4608690     0.8884060
  H       -1.1707130     0.0247460     1.8437960
  H        3.9732670    -0.9779260     0.5120620
  H        3.5426510     0.5954950     1.1964510
  H        4.6498360     0.5017940    -0.1852730
units angstrom
no_reorient  #important for SAPT in psi4, default
symmetry c1  #important for SAPT in psi4, default
}

set PROPERTIES_ORIGIN ["COM"]
properties('MP2/aug-cc-pvtz', properties = ['dipole'])
--------------------------------------------------------------------------

    Molecular point group: c1
  Charge       = -1
  Multiplicity = 1
  Basis Set: AUG-CC-PVTZ
    Blend: AUG-CC-PVTZ
  Basis Set: (AUG-CC-PVTZ AUX)
    Blend: AUG-CC-PVTZ-JKFIT

    Orbital Energies [Eh]
    ---------------------

    Doubly Occupied:

       1A    -20.321636     2A    -20.278120     3A    -11.142665
       4A    -11.121480     5A    -11.118768     6A    -11.096146
       7A    -11.091448     8A    -11.064468     9A     -1.214114
      10A     -1.052173    11A     -0.965238    12A     -0.894881
      13A     -0.798867    14A     -0.717106    15A     -0.618209
      16A     -0.530246    17A     -0.510623    18A     -0.499600
      19A     -0.451825    20A     -0.444533    21A     -0.437271
      22A     -0.414043    23A     -0.406717    24A     -0.384617
      25A     -0.374760    26A     -0.352090    27A     -0.334612
      28A     -0.238886    29A     -0.207404    30A     -0.195506
      31A     -0.176988

  @DF-RHF Final Energy:  -382.32166320542837

   => Energetics <=

    Nuclear Repulsion Energy =            338.8252963857567579
    One-Electron Energy =               -1203.3838384872615279
    Two-Electron Energy =                 482.2368788960764618
    Total Energy =                       -382.3216632054283650
  Basis Set: (AUG-CC-PVTZ AUX)
    Blend: AUG-CC-PVTZ-RI
    Molecular point group: c1

    Geometry (in Angstrom), charge = -1, multiplicity = 1:

       Center              X                  Y                   Z               Mass
    ------------   -----------------  -----------------  -----------------  -----------------
         O           -2.774168332305    -0.908185908056    -0.548725250138    15.994914619570
         O           -2.380115332305     1.269592091944    -0.030143250138    15.994914619570
         C            2.703279667695     0.158021091944    -0.664096250138    12.000000000000
         C            1.465119667695    -0.455896908056    -0.076701250138    12.000000000000
         C            0.351377667695     0.223272091944     0.241842749862    12.000000000000
         C           -0.887098332305    -0.369257908056     0.846810749862    12.000000000000
         C            3.903898667695     0.066320091944     0.284070749862    12.000000000000
         C           -2.184312532305    -0.047015608056    -0.028385150138    12.000000000000
         H            2.957052667695    -0.344916908056    -1.607046250138     1.007825032230
         H            2.503600667695     1.207685091944    -0.909985250138     1.007825032230
         H            1.504129667695    -1.530606908056     0.116970749862     1.007825032230
         H            0.305603667695     1.295239091944     0.042236749862     1.007825032230
         H           -0.798688332305    -1.459126908056     0.909041749862     1.007825032230
         H           -1.018967332305     0.026488091944     1.864431749862     1.007825032230
         H            4.125012667695    -0.976183908056     0.532697749862     1.007825032230
         H            3.694396667695     0.597237091944     1.217086749862     1.007825032230
         H            4.801581667695     0.503536091944    -0.164637250138     1.007825032230

  Basis Set: AUG-CC-PVTZ
    Blend: AUG-CC-PVTZ
  Basis Set: (AUG-CC-PVTZ AUX)
    Blend: AUG-CC-PVTZ-JKFIT
	 Reference Energy          =    -382.3216632054283650 [Eh]
	 Singles Energy            =      -0.0000000000000000 [Eh]
	 Same-Spin Energy          =      -0.3902275697001051 [Eh]
	 Opposite-Spin Energy      =      -1.2579022635231154 [Eh]
	 Correlation Energy        =      -1.6481298332232206 [Eh]
	 Total Energy              =    -383.9697930386515736 [Eh]

	 ================> DF-SCS-MP2 Energies <==================
	-----------------------------------------------------------
	 SCS Same-Spin Scale       =       0.3333333333333333 [-]
	 SCS Opposite-Spin Scale   =       1.2000000000000000 [-]
	 SCS Same-Spin Energy      =      -0.1300758565667017 [Eh]
	 SCS Opposite-Spin Energy  =      -1.5094827162277384 [Eh]
	 SCS Correlation Energy    =      -1.6395585727944402 [Eh]
	 SCS Total Energy          =    -383.9612217782228072 [Eh]
	-----------------------------------------------------------

  Dipole Moment: [D]
     X:    10.1678      Y:    -1.5649      Z:     1.2875     Total:    10.3678

*** Psi4 exiting successfully. Buy a developer a beer!
