                               Psi4 1.4a3.dev225

  ==> Input File <==

--------------------------------------------------------------------------
#psi4
#
memory 32 gb

molecule  {
-1 1
  O       -3.0493610    -0.8021490    -0.5876160
  O       -2.4328600     1.2902580     0.0530700
  C        2.5553900     0.3550440    -0.5884220
  C        1.3251687    -0.3750365    -0.2052506
  C        0.2108510     0.1869800     0.3208840
  C       -1.0406500    -0.5396790     0.7060670
  C        3.7725750    -0.0944570     0.2252300
  C       -2.2894080     0.0326700    -0.0161130
  H        2.7644980     0.1992670    -1.6554110
  H        2.3954460     1.4315290    -0.4528260
  H        1.3245080    -1.4678690    -0.3463610
  H        0.1904760     1.2677450     0.4620520
  H       -0.9472880    -1.6102600     0.4951310
  H       -1.2137680    -0.4258540     1.7866990
  H        3.9502020    -1.1668590     0.0980420
  H        3.6128950     0.0963670     1.2904210
  H        4.6769210     0.4370950    -0.0868020
units angstrom
no_reorient  #important for SAPT in psi4, default
symmetry c1  #important for SAPT in psi4, default
}

set PROPERTIES_ORIGIN ["COM"]
properties('MP2/aug-cc-pvtz', properties = ['dipole'])
--------------------------------------------------------------------------

    Molecular point group: c1
  Charge       = -1
  Multiplicity = 1
  Basis Set: AUG-CC-PVTZ
    Blend: AUG-CC-PVTZ
  Basis Set: (AUG-CC-PVTZ AUX)
    Blend: AUG-CC-PVTZ-JKFIT

    Orbital Energies [Eh]
    ---------------------

    Doubly Occupied:

       1A    -20.298158     2A    -20.296318     3A    -11.144799
       4A    -11.123524     5A    -11.120130     6A    -11.100601
       7A    -11.096001     8A    -11.069993     9A     -1.166208
      10A     -1.065683    11A     -0.970358    12A     -0.899448
      13A     -0.807566    14A     -0.722088    15A     -0.621431
      16A     -0.533165    17A     -0.513836    18A     -0.502344
      19A     -0.453077    20A     -0.441599    21A     -0.433376
      22A     -0.415499    23A     -0.401541    24A     -0.383873
      25A     -0.375551    26A     -0.345183    27A     -0.325185
      28A     -0.237069    29A     -0.212024    30A     -0.196438
      31A     -0.186975

  @DF-RHF Final Energy:  -382.33241185439107

   => Energetics <=

    Nuclear Repulsion Energy =            338.6670211666065029
    One-Electron Energy =               -1203.0807909768097943
    Two-Electron Energy =                 482.0813579558122797
    Total Energy =                       -382.3324118543910686
  Basis Set: (AUG-CC-PVTZ AUX)
    Blend: AUG-CC-PVTZ-RI
    Molecular point group: c1

    Geometry (in Angstrom), charge = -1, multiplicity = 1:

       Center              X                  Y                   Z               Mass
    ------------   -----------------  -----------------  -----------------  -----------------
         O           -2.904344992742    -0.814045194914    -0.573129223536    15.994914619570
         O           -2.287843992742     1.278361805086     0.067556776464    15.994914619570
         C            2.700406007258     0.343147805086    -0.573935223536    12.000000000000
         C            1.470184707258    -0.386932694914    -0.190763823536    12.000000000000
         C            0.355867007258     0.175083805086     0.335370776464    12.000000000000
         C           -0.895633992742    -0.551575194914     0.720553776464    12.000000000000
         C            3.917591007258    -0.106353194914     0.239716776464    12.000000000000
         C           -2.144391992742     0.020773805086    -0.001626223536    12.000000000000
         H            2.909514007258     0.187370805086    -1.640924223536     1.007825032230
         H            2.540462007258     1.419632805086    -0.438339223536     1.007825032230
         H            1.469524007258    -1.479765194914    -0.331874223536     1.007825032230
         H            0.335492007258     1.255848805086     0.476538776464     1.007825032230
         H           -0.802271992742    -1.622156194914     0.509617776464     1.007825032230
         H           -1.068751992742    -0.437750194914     1.801185776464     1.007825032230
         H            4.095218007258    -1.178755194914     0.112528776464     1.007825032230
         H            3.757911007258     0.084470805086     1.304907776464     1.007825032230
         H            4.821937007258     0.425198805086    -0.072315223536     1.007825032230

  Basis Set: AUG-CC-PVTZ
    Blend: AUG-CC-PVTZ
  Basis Set: (AUG-CC-PVTZ AUX)
    Blend: AUG-CC-PVTZ-JKFIT
	 Reference Energy          =    -382.3324118543910686 [Eh]
	 Singles Energy            =      -0.0000000000000000 [Eh]
	 Same-Spin Energy          =      -0.3912228767311128 [Eh]
	 Opposite-Spin Energy      =      -1.2598812222020310 [Eh]
	 Correlation Energy        =      -1.6511040989331438 [Eh]
	 Total Energy              =    -383.9835159533242290 [Eh]

	 ================> DF-SCS-MP2 Energies <==================
	-----------------------------------------------------------
	 SCS Same-Spin Scale       =       0.3333333333333333 [-]
	 SCS Opposite-Spin Scale   =       1.2000000000000000 [-]
	 SCS Same-Spin Energy      =      -0.1304076255770376 [Eh]
	 SCS Opposite-Spin Energy  =      -1.5118574666424371 [Eh]
	 SCS Correlation Energy    =      -1.6422650922194748 [Eh]
	 SCS Total Energy          =    -383.9746769466105434 [Eh]
	-----------------------------------------------------------

  Dipole Moment: [D]
     X:    10.7238      Y:    -1.0064      Z:     1.4637     Total:    10.8699

*** Psi4 exiting successfully. Buy a developer a beer!
