                               Psi4 1.3.2 release

  ==> Input File <==

--------------------------------------------------------------------------
#psi4
#
memory 32 gb

molecule  {
-1 1
  O       -2.9259140    -0.9099280    -0.5693610
  O       -2.5318610     1.2678500    -0.0507790
  C        2.5456415     0.1679838    -0.6847732
  C        1.3133740    -0.4576390    -0.0973370
  C        0.1996320     0.2215300     0.2212070
  C       -1.0388440    -0.3710000     0.8261750
  C        3.7521530     0.0645780     0.2634350
  C       -2.2854840     0.0250790    -0.0044070
  H        2.8053070    -0.3466590    -1.6276820
  H        2.3518550     1.2059430    -0.9306210
  H        1.3434498    -1.5320330     0.0996531
  H        0.1538580     1.2934970     0.0216010
  H       -0.9504340    -1.4608690     0.8884060
  H       -1.1707130     0.0247460     1.8437960
  H        3.9732670    -0.9779260     0.5120620
  H        3.5426510     0.5954950     1.1964510
  H        4.6498360     0.5017940    -0.1852730
units angstrom
no_reorient  #important for SAPT in psi4, default
symmetry c1  #important for SAPT in psi4, default
}

set PROPERTIES_ORIGIN ["COM"]
properties('MP2/aug-cc-pvtz', properties = ['dipole'])
--------------------------------------------------------------------------

    Molecular point group: c1
  Charge       = -1
  Multiplicity = 1
  Basis Set: AUG-CC-PVTZ
    Blend: AUG-CC-PVTZ
  Basis Set: (AUG-CC-PVTZ AUX)
    Blend: AUG-CC-PVTZ-JKFIT

    Orbital Energies [Eh]
    ---------------------

    Doubly Occupied:

       1A    -20.297613     2A    -20.295757     3A    -11.143850
       4A    -11.123834     5A    -11.121468     6A    -11.099747
       7A    -11.095571     8A    -11.069401     9A     -1.165429
      10A     -1.064596    11A     -0.968589    12A     -0.900196
      13A     -0.806773    14A     -0.722783    15A     -0.622657
      16A     -0.532950    17A     -0.514155    18A     -0.500300
      19A     -0.453096    20A     -0.442465    21A     -0.432619
      22A     -0.413060    23A     -0.401761    24A     -0.383621
      25A     -0.375161    26A     -0.348707    27A     -0.323842
      28A     -0.237872    29A     -0.210953    30A     -0.195424
      31A     -0.188825

  @DF-RHF Final Energy:  -382.33288136412318

   => Energetics <=

    Nuclear Repulsion Energy =            338.8432115088342584
    One-Electron Energy =               -1203.4460369375119626
    Two-Electron Energy =                 482.2699440645545792
    Total Energy =                       -382.3328813641231818
  Basis Set: (AUG-CC-PVTZ AUX)
    Blend: AUG-CC-PVTZ-RI
    Molecular point group: c1

    Geometry (in Angstrom), charge = -1, multiplicity = 1:

       Center              X                  Y                   Z               Mass
    ------------   -----------------  -----------------  -----------------  -----------------
         O           -2.778831122884    -0.917267936723    -0.553485689308    15.994914619570
         O           -2.384778122884     1.260510063277    -0.034903689308    15.994914619570
         C            2.692724377116     0.160643863277    -0.668897889308    12.000000000000
         C            1.460456877116    -0.464978936723    -0.081461689308    12.000000000000
         C            0.346714877116     0.214190063277     0.237082310692    12.000000000000
         C           -0.891761122884    -0.378339936723     0.842050310692    12.000000000000
         C            3.899235877116     0.057238063277     0.279310310692    12.000000000000
         C           -2.138401122884     0.017739063277     0.011468310692    12.000000000000
         H            2.952389877116    -0.353998936723    -1.611806689308     1.007825032230
         H            2.498937877116     1.198603063277    -0.914745689308     1.007825032230
         H            1.490532677116    -1.539372936723     0.115528410692     1.007825032230
         H            0.300940877116     1.286157063277     0.037476310692     1.007825032230
         H           -0.803351122884    -1.468208936723     0.904281310692     1.007825032230
         H           -1.023630122884     0.017406063277     1.859671310692     1.007825032230
         H            4.120349877116    -0.985265936723     0.527937310692     1.007825032230
         H            3.689733877116     0.588155063277     1.212326310692     1.007825032230
         H            4.796918877116     0.494454063277    -0.169397689308     1.007825032230

  Basis Set: AUG-CC-PVTZ
    Blend: AUG-CC-PVTZ
  Basis Set: (AUG-CC-PVTZ AUX)
    Blend: AUG-CC-PVTZ-JKFIT
	 Reference Energy          =    -382.3328813641231818 [Eh]
	 Singles Energy            =      -0.0000000000000000 [Eh]
	 Same-Spin Energy          =      -0.3909232394398481 [Eh]
	 Opposite-Spin Energy      =      -1.2595370952437386 [Eh]
	 Correlation Energy        =      -1.6504603346835867 [Eh]
	 Total Energy              =    -383.9833416988067825 [Eh]

	 ================> DF-SCS-MP2 Energies <==================
	-----------------------------------------------------------
	 SCS Same-Spin Scale       =       0.3333333333333333 [-]
	 SCS Opposite-Spin Scale   =       1.2000000000000000 [-]
	 SCS Same-Spin Energy      =      -0.1303077464799494 [Eh]
	 SCS Opposite-Spin Energy  =      -1.5114445142924862 [Eh]
	 SCS Correlation Energy    =      -1.6417522607724355 [Eh]
	 SCS Total Energy          =    -383.9746336248956027 [Eh]
	-----------------------------------------------------------

  Dipole Moment: [D]
     X:    10.7075      Y:    -0.7031      Z:     1.6635     Total:    10.8587

*** Psi4 exiting successfully. Buy a developer a beer!
