                               Psi4 1.3.2 release

  ==> Input File <==

--------------------------------------------------------------------------
#psi4
#
memory 32 gb

molecule  {
-1 1
  O       -2.9259140    -0.9099280    -0.5693610
  O       -2.5318610     1.2678500    -0.0507790
  C        2.5515340     0.1562790    -0.6847320
  C        1.3133740    -0.4576390    -0.0973370
  C        0.1996320     0.2215300     0.2212070
  C       -1.0388440    -0.3710000     0.8261750
  C        3.7521530     0.0645780     0.2634350
  C       -2.3049173     0.1231043    -0.0080647
  H        2.8053070    -0.3466590    -1.6276820
  H        2.3518550     1.2059430    -0.9306210
  H        1.3523840    -1.5323490     0.0963350
  H        0.1538580     1.2934970     0.0216010
  H       -0.9504340    -1.4608690     0.8884060
  H       -1.1707130     0.0247460     1.8437960
  H        3.9732670    -0.9779260     0.5120620
  H        3.5426510     0.5954950     1.1964510
  H        4.6498360     0.5017940    -0.1852730
units angstrom
no_reorient  #important for SAPT in psi4, default
symmetry c1  #important for SAPT in psi4, default
}

set PROPERTIES_ORIGIN ["COM"]
properties('MP2/aug-cc-pvtz', properties = ['dipole'])
--------------------------------------------------------------------------

    Molecular point group: c1
  Charge       = -1
  Multiplicity = 1
  Basis Set: AUG-CC-PVTZ
    Blend: AUG-CC-PVTZ
  Basis Set: (AUG-CC-PVTZ AUX)
    Blend: AUG-CC-PVTZ-JKFIT

    Orbital Energies [Eh]
    ---------------------

    Doubly Occupied:

       1A    -20.320157     2A    -20.279327     3A    -11.142712
       4A    -11.122453     5A    -11.119866     6A    -11.098118
       7A    -11.092576     8A    -11.064441     9A     -1.214441
      10A     -1.050646    11A     -0.966705    12A     -0.897197
      13A     -0.800673    14A     -0.717877    15A     -0.619339
      16A     -0.532457    17A     -0.513381    18A     -0.499465
      19A     -0.452104    20A     -0.447575    21A     -0.436268
      22A     -0.415015    23A     -0.403936    24A     -0.386325
      25A     -0.376276    26A     -0.353143    27A     -0.337289
      28A     -0.236777    29A     -0.213577    30A     -0.194688
      31A     -0.173452

  @DF-RHF Final Energy:  -382.32095686280087

   => Energetics <=

    Nuclear Repulsion Energy =            339.0669199429821106
    One-Electron Energy =               -1203.8192438281887462
    Two-Electron Energy =                 482.4313670224057091
    Total Energy =                       -382.3209568628008697
  Basis Set: (AUG-CC-PVTZ AUX)
    Blend: AUG-CC-PVTZ-RI
    Molecular point group: c1

    Geometry (in Angstrom), charge = -1, multiplicity = 1:

       Center              X                  Y                   Z               Mass
    ------------   -----------------  -----------------  -----------------  -----------------
         O           -2.777473568098    -0.926427013284    -0.553072263171    15.994914619570
         O           -2.383420568098     1.251350986716    -0.034490263171    15.994914619570
         C            2.699974431902     0.139779986716    -0.668443263171    12.000000000000
         C            1.461814431902    -0.474138013284    -0.081048263171    12.000000000000
         C            0.348072431902     0.205030986716     0.237495736829    12.000000000000
         C           -0.890403568098    -0.387499013284     0.842463736829    12.000000000000
         C            3.900593431902     0.048078986716     0.279723736829    12.000000000000
         C           -2.156476868098     0.106605286716     0.008224036829    12.000000000000
         H            2.953747431902    -0.363158013284    -1.611393263171     1.007825032230
         H            2.500295431902     1.189443986716    -0.914332263171     1.007825032230
         H            1.500824431902    -1.548848013284     0.112623736829     1.007825032230
         H            0.302298431902     1.276997986716     0.037889736829     1.007825032230
         H           -0.801993568098    -1.477368013284     0.904694736829     1.007825032230
         H           -1.022272568098     0.008246986716     1.860084736829     1.007825032230
         H            4.121707431902    -0.994425013284     0.528350736829     1.007825032230
         H            3.691091431902     0.578995986716     1.212739736829     1.007825032230
         H            4.798276431902     0.485294986716    -0.168984263171     1.007825032230

  Basis Set: AUG-CC-PVTZ
    Blend: AUG-CC-PVTZ
  Basis Set: (AUG-CC-PVTZ AUX)
    Blend: AUG-CC-PVTZ-JKFIT
	 Reference Energy          =    -382.3209568628008697 [Eh]
	 Singles Energy            =      -0.0000000000000000 [Eh]
	 Same-Spin Energy          =      -0.3904842793533876 [Eh]
	 Opposite-Spin Energy      =      -1.2582277520362424 [Eh]
	 Correlation Energy        =      -1.6487120313896300 [Eh]
	 Total Energy              =    -383.9696688941904767 [Eh]

	 ================> DF-SCS-MP2 Energies <==================
	-----------------------------------------------------------
	 SCS Same-Spin Scale       =       0.3333333333333333 [-]
	 SCS Opposite-Spin Scale   =       1.2000000000000000 [-]
	 SCS Same-Spin Energy      =      -0.1301614264511292 [Eh]
	 SCS Opposite-Spin Energy  =      -1.5098733024434907 [Eh]
	 SCS Correlation Energy    =      -1.6400347288946200 [Eh]
	 SCS Total Energy          =    -383.9609915916955174 [Eh]
	-----------------------------------------------------------

  Dipole Moment: [D]
     X:    10.5332      Y:     0.2929      Z:     1.7652     Total:    10.6841

*** Psi4 exiting successfully. Buy a developer a beer!
