                               Psi4 1.3.2 release

  ==> Input File <==

--------------------------------------------------------------------------
#psi4
#
memory 32 gb

molecule  {
-1 1
  O       -2.9259140    -0.9099280    -0.5693610
  O       -2.5318610     1.2678500    -0.0507790
  C        2.5515340     0.1562790    -0.6847320
  C        1.3133740    -0.4576390    -0.0973370
  C        0.1996320     0.2215300     0.2212070
  C       -1.0388440    -0.3710000     0.8261750
  C        3.7521530     0.0645780     0.2634350
  C       -2.2892796     0.1108878    -0.0203989
  H        2.8053070    -0.3466590    -1.6276820
  H        2.3518550     1.2059430    -0.9306210
  H        1.3523840    -1.5323490     0.0963350
  H        0.1160341     1.2905637     0.0181568
  H       -0.9504340    -1.4608690     0.8884060
  H       -1.1707130     0.0247460     1.8437960
  H        3.9732670    -0.9779260     0.5120620
  H        3.5426510     0.5954950     1.1964510
  H        4.6498360     0.5017940    -0.1852730
units angstrom
no_reorient  #important for SAPT in psi4, default
symmetry c1  #important for SAPT in psi4, default
}

set PROPERTIES_ORIGIN ["COM"]
properties('MP2/aug-cc-pvtz', properties = ['dipole'])
--------------------------------------------------------------------------

    Molecular point group: c1
  Charge       = -1
  Multiplicity = 1
  Basis Set: AUG-CC-PVTZ
    Blend: AUG-CC-PVTZ
  Basis Set: (AUG-CC-PVTZ AUX)
    Blend: AUG-CC-PVTZ-JKFIT

    Orbital Energies [Eh]
    ---------------------

    Doubly Occupied:

       1A    -20.316840     2A    -20.281514     3A    -11.143016
       4A    -11.122697     5A    -11.120117     6A    -11.098426
       7A    -11.093555     8A    -11.065065     9A     -1.203922
      10A     -1.053731    11A     -0.967011    12A     -0.898143
      13A     -0.801983    14A     -0.718415    15A     -0.619928
      16A     -0.532344    17A     -0.514308    18A     -0.499800
      19A     -0.451647    20A     -0.446373    21A     -0.436861
      22A     -0.414965    23A     -0.402649    24A     -0.385110
      25A     -0.375999    26A     -0.351507    27A     -0.334553
      28A     -0.237052    29A     -0.213886    30A     -0.195098
      31A     -0.176540

  @DF-RHF Final Energy:  -382.32426916126064

   => Energetics <=

    Nuclear Repulsion Energy =            339.1054113194047659
    One-Electron Energy =               -1203.9132463176827059
    Two-Electron Energy =                 482.4835658370172951
    Total Energy =                       -382.3242691612606450
  Basis Set: (AUG-CC-PVTZ AUX)
    Blend: AUG-CC-PVTZ-RI
    Molecular point group: c1

    Geometry (in Angstrom), charge = -1, multiplicity = 1:

       Center              X                  Y                   Z               Mass
    ------------   -----------------  -----------------  -----------------  -----------------
         O           -2.778796159555    -0.925104229661    -0.551732432905    15.994914619570
         O           -2.384743159555     1.252673770339    -0.033150432905    15.994914619570
         C            2.698651840445     0.141102770339    -0.667103432905    12.000000000000
         C            1.460491840445    -0.472815229661    -0.079708432905    12.000000000000
         C            0.346749840445     0.206353770339     0.238835567095    12.000000000000
         C           -0.891726159555    -0.386176229661     0.843803567095    12.000000000000
         C            3.899270840445     0.049401770339     0.281063567095    12.000000000000
         C           -2.142161759555     0.095711570339    -0.002770332905    12.000000000000
         H            2.952424840445    -0.361835229661    -1.610053432905     1.007825032230
         H            2.498972840445     1.190766770339    -0.912992432905     1.007825032230
         H            1.499501840445    -1.547525229661     0.113963567095     1.007825032230
         H            0.263151940445     1.275387470339     0.035785367095     1.007825032230
         H           -0.803316159555    -1.476045229661     0.906034567095     1.007825032230
         H           -1.023595159555     0.009569770339     1.861424567095     1.007825032230
         H            4.120384840445    -0.993102229661     0.529690567095     1.007825032230
         H            3.689768840445     0.580318770339     1.214079567095     1.007825032230
         H            4.796953840445     0.486617770339    -0.167644432905     1.007825032230

  Basis Set: AUG-CC-PVTZ
    Blend: AUG-CC-PVTZ
  Basis Set: (AUG-CC-PVTZ AUX)
    Blend: AUG-CC-PVTZ-JKFIT
	 Reference Energy          =    -382.3242691612606450 [Eh]
	 Singles Energy            =      -0.0000000000000000 [Eh]
	 Same-Spin Energy          =      -0.3906096313320891 [Eh]
	 Opposite-Spin Energy      =      -1.2585422382643046 [Eh]
	 Correlation Energy        =      -1.6491518695963938 [Eh]
	 Total Energy              =    -383.9734210308570255 [Eh]

	 ================> DF-SCS-MP2 Energies <==================
	-----------------------------------------------------------
	 SCS Same-Spin Scale       =       0.3333333333333333 [-]
	 SCS Opposite-Spin Scale   =       1.2000000000000000 [-]
	 SCS Same-Spin Energy      =      -0.1302032104440297 [Eh]
	 SCS Opposite-Spin Energy  =      -1.5102506859171654 [Eh]
	 SCS Correlation Energy    =      -1.6404538963611950 [Eh]
	 SCS Total Energy          =    -383.9647230576218249 [Eh]
	-----------------------------------------------------------

  Dipole Moment: [D]
     X:    10.5725      Y:     0.1526      Z:     1.7493     Total:    10.7174

*** Psi4 exiting successfully. Buy a developer a beer!
