                               Psi4 1.3.2 release

  ==> Input File <==

--------------------------------------------------------------------------
#psi4
#
memory 32 gb

molecule  {
0 1
  N        0.5963620     0.0240630    -0.0000100
  N       -0.0914470    -1.1353650    -0.0000170
  C       -0.2099680     1.1214940     0.0000230
  C        2.0462730    -0.0202480    -0.0000060
  C       -1.5131730     0.6485270     0.0000150
  C       -1.3848740    -0.7486420    -0.0000060
  H        0.1985450     2.1230060     0.0000470
  H        2.3968620    -0.5435580     0.8909570
  H        2.3968520    -0.5436990    -0.8908890
  H        2.4236260     1.0030860    -0.0000880
  H       -2.4195430     1.2372430     0.0000190
  H       -2.1602879    -1.5037508     0.0499820
units angstrom
no_reorient  #important for SAPT in psi4, default
symmetry c1  #important for SAPT in psi4, default
}

set PROPERTIES_ORIGIN ["COM"]
properties('MP2/aug-cc-pvtz', properties = ['dipole'])
--------------------------------------------------------------------------

    Molecular point group: c1
  Charge       = 0
  Multiplicity = 1
  Basis Set: AUG-CC-PVTZ
    Blend: AUG-CC-PVTZ
  Basis Set: (AUG-CC-PVTZ AUX)
    Blend: AUG-CC-PVTZ-JKFIT

    Orbital Energies [Eh]
    ---------------------

    Doubly Occupied:

       1A    -15.641790     2A    -15.582208     3A    -11.275176
       4A    -11.274442     5A    -11.251022     6A    -11.219621
       7A     -1.372738     8A     -1.116232     9A     -1.054779
      10A     -0.945558    11A     -0.804055    12A     -0.772345
      13A     -0.714303    14A     -0.650093    15A     -0.612433
      16A     -0.581406    17A     -0.569718    18A     -0.546411
      19A     -0.544133    20A     -0.456194    21A     -0.349088
      22A     -0.340766

  @DF-RHF Final Energy:  -263.91823314926779

   => Energetics <=

    Nuclear Repulsion Energy =            226.2006738647722841
    One-Electron Energy =                -804.8887893771772042
    Two-Electron Energy =                 314.7698823631371283
    Total Energy =                       -263.9182331492677918
  Basis Set: (AUG-CC-PVTZ AUX)
    Blend: AUG-CC-PVTZ-RI
    Molecular point group: c1

    Geometry (in Angstrom), charge = 0, multiplicity = 1:

       Center              X                  Y                   Z               Mass
    ------------   -----------------  -----------------  -----------------  -----------------
         N            0.630636093678     0.045535393711    -0.000623668330    14.003074004430
         N           -0.057172906322    -1.113892606289    -0.000630668330    14.003074004430
         C           -0.175693906322     1.142966393711    -0.000590668330    12.000000000000
         C            2.080547093678     0.001224393711    -0.000619668330    12.000000000000
         C           -1.478898906322     0.669999393711    -0.000598668330    12.000000000000
         C           -1.350599906322    -0.727169606289    -0.000619668330    12.000000000000
         H            0.232819093678     2.144478393711    -0.000566668330     1.007825032230
         H            2.431136093678    -0.522085606289     0.890343331670     1.007825032230
         H            2.431126093678    -0.522226606289    -0.891502668330     1.007825032230
         H            2.457900093678     1.024558393711    -0.000701668330     1.007825032230
         H           -2.385268906322     1.258715393711    -0.000594668330     1.007825032230
         H           -2.126013806322    -1.482278406289     0.049368331670     1.007825032230

  Basis Set: AUG-CC-PVTZ
    Blend: AUG-CC-PVTZ
  Basis Set: (AUG-CC-PVTZ AUX)
    Blend: AUG-CC-PVTZ-JKFIT
	 Reference Energy          =    -263.9182331492677918 [Eh]
	 Singles Energy            =      -0.0000000000000000 [Eh]
	 Same-Spin Energy          =      -0.2883370265545031 [Eh]
	 Opposite-Spin Energy      =      -0.9014591012313619 [Eh]
	 Correlation Energy        =      -1.1897961277858649 [Eh]
	 Total Energy              =    -265.1080292770536744 [Eh]

	 ================> DF-SCS-MP2 Energies <==================
	-----------------------------------------------------------
	 SCS Same-Spin Scale       =       0.3333333333333333 [-]
	 SCS Opposite-Spin Scale   =       1.2000000000000000 [-]
	 SCS Same-Spin Energy      =      -0.0961123421848343 [Eh]
	 SCS Opposite-Spin Energy  =      -1.0817509214776342 [Eh]
	 SCS Correlation Energy    =      -1.1778632636624686 [Eh]
	 SCS Total Energy          =    -265.0960964129302511 [Eh]
	-----------------------------------------------------------

  Dipole Moment: [D]
     X:     1.3421      Y:     2.0589      Z:     0.0368     Total:     2.4579

*** Psi4 exiting successfully. Buy a developer a beer!
