                               Psi4 1.3.2 release

  ==> Input File <==

--------------------------------------------------------------------------
#psi4
#
memory 32 gb

molecule  {
0 1
  N        0.5963620     0.0240630    -0.0000100
  N       -0.0914470    -1.1353650    -0.0000170
  C       -0.2099680     1.1214940     0.0000230
  C        2.0462722    -0.0202445    -0.2000060
  C       -1.5131730     0.6485270     0.0000150
  C       -1.3848740    -0.7486420    -0.0000060
  H        0.1985450     2.1230060     0.0000470
  H        2.3968620    -0.5435580     0.8909570
  H        2.3968520    -0.5436990    -0.8908890
  H        2.4236260     1.0030860    -0.0000880
  H       -2.4195430     1.2372430     0.0000190
  H       -2.1602880    -1.5037500    -0.0000180
units angstrom
no_reorient  #important for SAPT in psi4, default
symmetry c1  #important for SAPT in psi4, default
}

set PROPERTIES_ORIGIN ["COM"]
properties('MP2/aug-cc-pvtz', properties = ['dipole'])
--------------------------------------------------------------------------

    Molecular point group: c1
  Charge       = 0
  Multiplicity = 1
  Basis Set: AUG-CC-PVTZ
    Blend: AUG-CC-PVTZ
  Basis Set: (AUG-CC-PVTZ AUX)
    Blend: AUG-CC-PVTZ-JKFIT

    Orbital Energies [Eh]
    ---------------------

    Doubly Occupied:

       1A    -15.643755     2A    -15.582600     3A    -11.280318
       4A    -11.275859     5A    -11.251792     6A    -11.220618
       7A     -1.372674     8A     -1.115064     9A     -1.055524
      10A     -0.951704    11A     -0.804379    12A     -0.778180
      13A     -0.721016    14A     -0.661959    15A     -0.614060
      16A     -0.588797    17A     -0.570846    18A     -0.553267
      19A     -0.502645    20A     -0.456624    21A     -0.348053
      22A     -0.341377

  @DF-RHF Final Energy:  -263.87346319697684

   => Energetics <=

    Nuclear Repulsion Energy =            226.0342261499101539
    One-Electron Energy =                -804.4331561763685841
    Two-Electron Energy =                 314.5254668294815588
    Total Energy =                       -263.8734631969768429
  Basis Set: (AUG-CC-PVTZ AUX)
    Blend: AUG-CC-PVTZ-RI
    Molecular point group: c1

    Geometry (in Angstrom), charge = 0, multiplicity = 1:

       Center              X                  Y                   Z               Mass
    ------------   -----------------  -----------------  -----------------  -----------------
         N            0.630636211903     0.045534872021     0.029239814041    14.003074004430
         N           -0.057172788097    -1.113893127979     0.029232814041    14.003074004430
         C           -0.175693788097     1.142965872021     0.029272814041    12.000000000000
         C            2.080546411903     0.001227372021    -0.170756185959    12.000000000000
         C           -1.478898788097     0.669998872021     0.029264814041    12.000000000000
         C           -1.350599788097    -0.727170127979     0.029243814041    12.000000000000
         H            0.232819211903     2.144477872021     0.029296814041     1.007825032230
         H            2.431136211903    -0.522086127979     0.920206814041     1.007825032230
         H            2.431126211903    -0.522227127979    -0.861639185959     1.007825032230
         H            2.457900211903     1.024557872021     0.029161814041     1.007825032230
         H           -2.385268788097     1.258714872021     0.029268814041     1.007825032230
         H           -2.126013788097    -1.482278127979     0.029231814041     1.007825032230

  Basis Set: AUG-CC-PVTZ
    Blend: AUG-CC-PVTZ
  Basis Set: (AUG-CC-PVTZ AUX)
    Blend: AUG-CC-PVTZ-JKFIT
	 Reference Energy          =    -263.8734631969768429 [Eh]
	 Singles Energy            =      -0.0000000000000000 [Eh]
	 Same-Spin Energy          =      -0.2888886698814046 [Eh]
	 Opposite-Spin Energy      =      -0.9033964966367372 [Eh]
	 Correlation Energy        =      -1.1922851665181418 [Eh]
	 Total Energy              =    -265.0657483634950040 [Eh]

	 ================> DF-SCS-MP2 Energies <==================
	-----------------------------------------------------------
	 SCS Same-Spin Scale       =       0.3333333333333333 [-]
	 SCS Opposite-Spin Scale   =       1.2000000000000000 [-]
	 SCS Same-Spin Energy      =      -0.0962962232938015 [Eh]
	 SCS Opposite-Spin Energy  =      -1.0840757959640845 [Eh]
	 SCS Correlation Energy    =      -1.1803720192578862 [Eh]
	 SCS Total Energy          =    -265.0538352162347451 [Eh]
	-----------------------------------------------------------

  Dipole Moment: [D]
     X:     1.2579      Y:     2.0807      Z:    -0.1868     Total:     2.4385

*** Psi4 exiting successfully. Buy a developer a beer!
