                               Psi4 1.3.2 release

  ==> Input File <==

--------------------------------------------------------------------------
#psi4
#
memory 32 gb

molecule  {
0 1
  N        0.5963620     0.0240630    -0.0000100
  N       -0.0914470    -1.1353650    -0.0000170
  C       -0.2099680     1.1214940     0.0000230
  C        2.0462730    -0.0202480    -0.0000060
  C       -1.5131730     0.6485270     0.0000150
  C       -1.3848740    -0.7486420    -0.0000060
  H        0.1985450     2.1230060     0.0000470
  H        2.3968620    -0.5435580     0.8909570
  H        2.3968520    -0.5436990    -0.8908890
  H        2.4236260     1.0030860    -0.0000880
  H       -2.4195430     1.2372430     0.0000190
  H       -2.1602880    -1.5037500    -0.0000180
units angstrom
no_reorient  #important for SAPT in psi4, default
symmetry c1  #important for SAPT in psi4, default
}

set PROPERTIES_ORIGIN ["COM"]
properties('MP2/aug-cc-pvtz', properties = ['dipole'])
--------------------------------------------------------------------------

    Molecular point group: c1
  Charge       = 0
  Multiplicity = 1
  Basis Set: AUG-CC-PVTZ
    Blend: AUG-CC-PVTZ
  Basis Set: (AUG-CC-PVTZ AUX)
    Blend: AUG-CC-PVTZ-JKFIT

    Orbital Energies [Eh]
    ---------------------

    Doubly Occupied:

       1A    -15.641761     2A    -15.582177     3A    -11.275166
       4A    -11.274428     5A    -11.250925     6A    -11.219606
       7A     -1.372714     8A     -1.116228     9A     -1.054762
      10A     -0.945577    11A     -0.804111    12A     -0.772399
      13A     -0.714361    14A     -0.650067    15A     -0.612483
      16A     -0.581432    17A     -0.569737    18A     -0.545468
      19A     -0.545204    20A     -0.456178    21A     -0.349103
      22A     -0.340755

  @DF-RHF Final Energy:  -263.91838693922352

   => Energetics <=

    Nuclear Repulsion Energy =            226.2050088610445471
    One-Electron Energy =                -804.8975094699376314
    Two-Electron Energy =                 314.7741136696695321
    Total Energy =                       -263.9183869392235238
  Basis Set: (AUG-CC-PVTZ AUX)
    Blend: AUG-CC-PVTZ-RI
    Molecular point group: c1

    Geometry (in Angstrom), charge = 0, multiplicity = 1:

       Center              X                  Y                   Z               Mass
    ------------   -----------------  -----------------  -----------------  -----------------
         N            0.630636094906     0.045535383885    -0.000009538544    14.003074004430
         N           -0.057172905094    -1.113892616115    -0.000016538544    14.003074004430
         C           -0.175693905094     1.142966383885     0.000023461456    12.000000000000
         C            2.080547094906     0.001224383885    -0.000005538544    12.000000000000
         C           -1.478898905094     0.669999383885     0.000015461456    12.000000000000
         C           -1.350599905094    -0.727169616115    -0.000005538544    12.000000000000
         H            0.232819094906     2.144478383885     0.000047461456     1.007825032230
         H            2.431136094906    -0.522085616115     0.890957461456     1.007825032230
         H            2.431126094906    -0.522226616115    -0.890888538544     1.007825032230
         H            2.457900094906     1.024558383885    -0.000087538544     1.007825032230
         H           -2.385268905094     1.258715383885     0.000019461456     1.007825032230
         H           -2.126013905094    -1.482277616115    -0.000017538544     1.007825032230

  Basis Set: AUG-CC-PVTZ
    Blend: AUG-CC-PVTZ
  Basis Set: (AUG-CC-PVTZ AUX)
    Blend: AUG-CC-PVTZ-JKFIT
	 Reference Energy          =    -263.9183869392235238 [Eh]
	 Singles Energy            =      -0.0000000000000000 [Eh]
	 Same-Spin Energy          =      -0.2883264208601043 [Eh]
	 Opposite-Spin Energy      =      -0.9014372188524483 [Eh]
	 Correlation Energy        =      -1.1897636397125526 [Eh]
	 Total Energy              =    -265.1081505789360904 [Eh]

	 ================> DF-SCS-MP2 Energies <==================
	-----------------------------------------------------------
	 SCS Same-Spin Scale       =       0.3333333333333333 [-]
	 SCS Opposite-Spin Scale   =       1.2000000000000000 [-]
	 SCS Same-Spin Energy      =      -0.0961088069533681 [Eh]
	 SCS Opposite-Spin Energy  =      -1.0817246626229380 [Eh]
	 SCS Correlation Energy    =      -1.1778334695763060 [Eh]
	 SCS Total Energy          =    -265.0962204087998089 [Eh]
	-----------------------------------------------------------

  Dipole Moment: [D]
     X:     1.3403      Y:     2.0574      Z:     0.0000     Total:     2.4554

*** Psi4 exiting successfully. Buy a developer a beer!
