                               Psi4 1.3.2 release

  ==> Input File <==

--------------------------------------------------------------------------
#psi4
#
memory 32 gb

molecule  {
0 1
  N        0.5963620     0.0240630    -0.0000100
  N       -0.0914470    -1.1353650    -0.0000170
  C       -0.2099680     1.1214940     0.0000230
  C        2.0462730    -0.0202480    -0.0000060
  C       -1.5131730     0.6485270     0.0000150
  C       -1.3848740    -0.7486420    -0.0000060
  H        0.1985448     2.1230073    -0.0499530
  H        2.3968620    -0.5435580     0.8909570
  H        2.3968520    -0.5436990    -0.8908890
  H        2.4236260     1.0030860    -0.0000880
  H       -2.4195430     1.2372430     0.0000190
  H       -2.1602880    -1.5037500    -0.0000180
units angstrom
no_reorient  #important for SAPT in psi4, default
symmetry c1  #important for SAPT in psi4, default
}

set PROPERTIES_ORIGIN ["COM"]
properties('MP2/aug-cc-pvtz', properties = ['dipole'])
--------------------------------------------------------------------------

    Molecular point group: c1
  Charge       = 0
  Multiplicity = 1
  Basis Set: AUG-CC-PVTZ
    Blend: AUG-CC-PVTZ
  Basis Set: (AUG-CC-PVTZ AUX)
    Blend: AUG-CC-PVTZ-JKFIT

    Orbital Energies [Eh]
    ---------------------

    Doubly Occupied:

       1A    -15.641774     2A    -15.582220     3A    -11.275244
       4A    -11.274426     5A    -11.250940     6A    -11.219634
       7A     -1.372733     8A     -1.116236     9A     -1.054745
      10A     -0.945582    11A     -0.804073    12A     -0.772294
      13A     -0.714225    14A     -0.650082    15A     -0.612459
      16A     -0.581438    17A     -0.569653    18A     -0.545782
      19A     -0.544824    20A     -0.456201    21A     -0.349110
      22A     -0.340760

  @DF-RHF Final Energy:  -263.91824837740972

   => Energetics <=

    Nuclear Repulsion Energy =            226.2005326555151896
    One-Electron Energy =                -804.8886900662977268
    Two-Electron Energy =                 314.7699090333728122
    Total Energy =                       -263.9182483774097250
  Basis Set: (AUG-CC-PVTZ AUX)
    Blend: AUG-CC-PVTZ-RI
    Molecular point group: c1

    Geometry (in Angstrom), charge = 0, multiplicity = 1:

       Center              X                  Y                   Z               Mass
    ------------   -----------------  -----------------  -----------------  -----------------
         N            0.630636097362     0.045535367918     0.000604591242    14.003074004430
         N           -0.057172902638    -1.113892632082     0.000597591242    14.003074004430
         C           -0.175693902638     1.142966367918     0.000637591242    12.000000000000
         C            2.080547097362     0.001224367918     0.000608591242    12.000000000000
         C           -1.478898902638     0.669999367918     0.000629591242    12.000000000000
         C           -1.350599902638    -0.727169632082     0.000608591242    12.000000000000
         H            0.232818897362     2.144479667918    -0.049338408758     1.007825032230
         H            2.431136097362    -0.522085632082     0.891571591242     1.007825032230
         H            2.431126097362    -0.522226632082    -0.890274408758     1.007825032230
         H            2.457900097362     1.024558367918     0.000526591242     1.007825032230
         H           -2.385268902638     1.258715367918     0.000633591242     1.007825032230
         H           -2.126013902638    -1.482277632082     0.000596591242     1.007825032230

  Basis Set: AUG-CC-PVTZ
    Blend: AUG-CC-PVTZ
  Basis Set: (AUG-CC-PVTZ AUX)
    Blend: AUG-CC-PVTZ-JKFIT
	 Reference Energy          =    -263.9182483774097250 [Eh]
	 Singles Energy            =      -0.0000000000000000 [Eh]
	 Same-Spin Energy          =      -0.2883388647413199 [Eh]
	 Opposite-Spin Energy      =      -0.9014620099801627 [Eh]
	 Correlation Energy        =      -1.1898008747214825 [Eh]
	 Total Energy              =    -265.1080492521311953 [Eh]

	 ================> DF-SCS-MP2 Energies <==================
	-----------------------------------------------------------
	 SCS Same-Spin Scale       =       0.3333333333333333 [-]
	 SCS Opposite-Spin Scale   =       1.2000000000000000 [-]
	 SCS Same-Spin Energy      =      -0.0961129549137733 [Eh]
	 SCS Opposite-Spin Energy  =      -1.0817544119761953 [Eh]
	 SCS Correlation Energy    =      -1.1778673668899686 [Eh]
	 SCS Total Energy          =    -265.0961157442997091 [Eh]
	-----------------------------------------------------------

  Dipole Moment: [D]
     X:     1.3393      Y:     2.0552      Z:    -0.0456     Total:     2.4535

*** Psi4 exiting successfully. Buy a developer a beer!
