                               Psi4 1.3.2 release

  ==> Input File <==

--------------------------------------------------------------------------
#psi4
#
memory 32 gb

molecule  {
0 1
  N        0.5963620     0.0240630    -0.0000100
  N       -0.0914470    -1.1353650    -0.0000170
  C       -0.2099680     1.1214940     0.0000230
  C        2.0462724    -0.0202454    -0.1500060
  C       -1.5131730     0.6485270     0.0000150
  C       -1.3848740    -0.7486420    -0.0000060
  H        0.1985450     2.1230060     0.0000470
  H        2.3968620    -0.5435580     0.8909570
  H        2.3968520    -0.5436990    -0.8908890
  H        2.4236260     1.0030860    -0.0000880
  H       -2.4195430     1.2372430     0.0000190
  H       -2.1602880    -1.5037500    -0.0000180
units angstrom
no_reorient  #important for SAPT in psi4, default
symmetry c1  #important for SAPT in psi4, default
}

set PROPERTIES_ORIGIN ["COM"]
properties('MP2/aug-cc-pvtz', properties = ['dipole'])
--------------------------------------------------------------------------

    Molecular point group: c1
  Charge       = 0
  Multiplicity = 1
  Basis Set: AUG-CC-PVTZ
    Blend: AUG-CC-PVTZ
  Basis Set: (AUG-CC-PVTZ AUX)
    Blend: AUG-CC-PVTZ-JKFIT

    Orbital Energies [Eh]
    ---------------------

    Doubly Occupied:

       1A    -15.642901     2A    -15.582417     3A    -11.277749
       4A    -11.275560     5A    -11.251417     6A    -11.220180
       7A     -1.372693     8A     -1.115564     9A     -1.055191
      10A     -0.948945    11A     -0.804254    12A     -0.775564
      13A     -0.718055    14A     -0.658186    15A     -0.613028
      16A     -0.586717    17A     -0.571575    18A     -0.553124
      19A     -0.514924    20A     -0.456433    21A     -0.348528
      22A     -0.341116

  @DF-RHF Final Energy:  -263.89331085501033

   => Energetics <=

    Nuclear Repulsion Energy =            226.1084054577283098
    One-Electron Energy =                -804.6351930251734075
    Two-Electron Energy =                 314.6334767124347991
    Total Energy =                       -263.8933108550103270
  Basis Set: (AUG-CC-PVTZ AUX)
    Blend: AUG-CC-PVTZ-RI
    Molecular point group: c1

    Geometry (in Angstrom), charge = 0, multiplicity = 1:

       Center              X                  Y                   Z               Mass
    ------------   -----------------  -----------------  -----------------  -----------------
         N            0.630636182654     0.045535003643     0.021927475895    14.003074004430
         N           -0.057172817346    -1.113892996357     0.021920475895    14.003074004430
         C           -0.175693817346     1.142966003643     0.021960475895    12.000000000000
         C            2.080546582654     0.001226603643    -0.128068524105    12.000000000000
         C           -1.478898817346     0.669999003643     0.021952475895    12.000000000000
         C           -1.350599817346    -0.727169996357     0.021931475895    12.000000000000
         H            0.232819182654     2.144478003643     0.021984475895     1.007825032230
         H            2.431136182654    -0.522085996357     0.912894475895     1.007825032230
         H            2.431126182654    -0.522226996357    -0.868951524105     1.007825032230
         H            2.457900182654     1.024558003643     0.021849475895     1.007825032230
         H           -2.385268817346     1.258715003643     0.021956475895     1.007825032230
         H           -2.126013817346    -1.482277996357     0.021919475895     1.007825032230

  Basis Set: AUG-CC-PVTZ
    Blend: AUG-CC-PVTZ
  Basis Set: (AUG-CC-PVTZ AUX)
    Blend: AUG-CC-PVTZ-JKFIT
	 Reference Energy          =    -263.8933108550103270 [Eh]
	 Singles Energy            =      -0.0000000000000000 [Eh]
	 Same-Spin Energy          =      -0.2886407456961477 [Eh]
	 Opposite-Spin Energy      =      -0.9025179128415791 [Eh]
	 Correlation Energy        =      -1.1911586585377267 [Eh]
	 Total Energy              =    -265.0844695135480720 [Eh]

	 ================> DF-SCS-MP2 Energies <==================
	-----------------------------------------------------------
	 SCS Same-Spin Scale       =       0.3333333333333333 [-]
	 SCS Opposite-Spin Scale   =       1.2000000000000000 [-]
	 SCS Same-Spin Energy      =      -0.0962135818987159 [Eh]
	 SCS Opposite-Spin Energy  =      -1.0830214954098949 [Eh]
	 SCS Correlation Energy    =      -1.1792350773086109 [Eh]
	 SCS Total Energy          =    -265.0725459323189170 [Eh]
	-----------------------------------------------------------

  Dipole Moment: [D]
     X:     1.2932      Y:     2.0713      Z:    -0.1446     Total:     2.4461

*** Psi4 exiting successfully. Buy a developer a beer!
