                               Psi4 1.3.2 release

  ==> Input File <==

--------------------------------------------------------------------------
#psi4
#
memory 32 gb

molecule  {
0 1
  N        0.5963620     0.0240630    -0.0000100
  N       -0.0914470    -1.1353650    -0.0000170
  C       -0.2099680     1.1214940     0.0000230
  C        2.0462730    -0.0202480    -0.0000060
  C       -1.5131730     0.6485270     0.0000150
  C       -1.3848740    -0.7486420    -0.0000060
  H        0.1985450     2.1230060     0.0000470
  H        2.3968620    -0.5435580     0.8909570
  H        2.3968520    -0.5436990    -0.8908890
  H        2.4236260     1.0030860    -0.0000880
  H       -2.4195430     1.2372430     0.0000190
  H       -2.1602874    -1.5037540     0.2499820
units angstrom
no_reorient  #important for SAPT in psi4, default
symmetry c1  #important for SAPT in psi4, default
}

set PROPERTIES_ORIGIN ["COM"]
properties('MP2/aug-cc-pvtz', properties = ['dipole'])
--------------------------------------------------------------------------

    Molecular point group: c1
  Charge       = 0
  Multiplicity = 1
  Basis Set: AUG-CC-PVTZ
    Blend: AUG-CC-PVTZ
  Basis Set: (AUG-CC-PVTZ AUX)
    Blend: AUG-CC-PVTZ-JKFIT

    Orbital Energies [Eh]
    ---------------------

    Doubly Occupied:

       1A    -15.642466     2A    -15.582937     3A    -11.275430
       4A    -11.274774     5A    -11.253311     6A    -11.219992
       7A     -1.373302     8A     -1.116349     9A     -1.055188
      10A     -0.945148    11A     -0.802919    12A     -0.771124
      13A     -0.712980    14A     -0.650695    15A     -0.611378
      16A     -0.580871    17A     -0.569270    18A     -0.549684
      19A     -0.537645    20A     -0.456545    21A     -0.348743
      22A     -0.341034

  @DF-RHF Final Energy:  -263.91419563666813

   => Energetics <=

    Nuclear Repulsion Energy =            226.0997449899052185
    One-Electron Energy =                -804.6843127418214863
    Two-Electron Energy =                 314.6703721152480853
    Total Energy =                       -263.9141956366681256
  Basis Set: (AUG-CC-PVTZ AUX)
    Blend: AUG-CC-PVTZ-RI
    Molecular point group: c1

    Geometry (in Angstrom), charge = 0, multiplicity = 1:

       Center              X                  Y                   Z               Mass
    ------------   -----------------  -----------------  -----------------  -----------------
         N            0.630636087536     0.045535433015    -0.003080187472    14.003074004430
         N           -0.057172912464    -1.113892566985    -0.003087187472    14.003074004430
         C           -0.175693912464     1.142966433015    -0.003047187472    12.000000000000
         C            2.080547087536     0.001224433015    -0.003076187472    12.000000000000
         C           -1.478898912464     0.669999433015    -0.003055187472    12.000000000000
         C           -1.350599912464    -0.727169566985    -0.003076187472    12.000000000000
         H            0.232819087536     2.144478433015    -0.003023187472     1.007825032230
         H            2.431136087536    -0.522085566985     0.887886812528     1.007825032230
         H            2.431126087536    -0.522226566985    -0.893959187472     1.007825032230
         H            2.457900087536     1.024558433015    -0.003158187472     1.007825032230
         H           -2.385268912464     1.258715433015    -0.003051187472     1.007825032230
         H           -2.126013312464    -1.482281566985     0.246911812528     1.007825032230

  Basis Set: AUG-CC-PVTZ
    Blend: AUG-CC-PVTZ
  Basis Set: (AUG-CC-PVTZ AUX)
    Blend: AUG-CC-PVTZ-JKFIT
	 Reference Energy          =    -263.9141956366681256 [Eh]
	 Singles Energy            =      -0.0000000000000000 [Eh]
	 Same-Spin Energy          =      -0.2885858462549831 [Eh]
	 Opposite-Spin Energy      =      -0.9020226534287330 [Eh]
	 Correlation Energy        =      -1.1906084996837161 [Eh]
	 Total Energy              =    -265.1048041363518450 [Eh]

	 ================> DF-SCS-MP2 Energies <==================
	-----------------------------------------------------------
	 SCS Same-Spin Scale       =       0.3333333333333333 [-]
	 SCS Opposite-Spin Scale   =       1.2000000000000000 [-]
	 SCS Same-Spin Energy      =      -0.0961952820849944 [Eh]
	 SCS Opposite-Spin Energy  =      -1.0824271841144795 [Eh]
	 SCS Correlation Energy    =      -1.1786224661994738 [Eh]
	 SCS Total Energy          =    -265.0928181028676249 [Eh]
	-----------------------------------------------------------

  Dipole Moment: [D]
     X:     1.3841      Y:     2.0936      Z:     0.1813     Total:     2.5163

*** Psi4 exiting successfully. Buy a developer a beer!
