                               Psi4 1.3.2 release

  ==> Input File <==

--------------------------------------------------------------------------
#psi4
#
memory 32 gb

molecule  {
0 1
  N        0.5963620     0.0240630    -0.0000100
  N       -0.0914470    -1.1353650    -0.0000170
  C       -0.2099680     1.1214940     0.0000230
  C        2.0462730    -0.0202480    -0.0000060
  C       -1.5131730     0.6485270     0.0000150
  C       -1.3848740    -0.7486420    -0.0000060
  H        0.1985442     2.1230113    -0.1999530
  H        2.3968620    -0.5435580     0.8909570
  H        2.3968520    -0.5436990    -0.8908890
  H        2.4236260     1.0030860    -0.0000880
  H       -2.4195430     1.2372430     0.0000190
  H       -2.1602880    -1.5037500    -0.0000180
units angstrom
no_reorient  #important for SAPT in psi4, default
symmetry c1  #important for SAPT in psi4, default
}

set PROPERTIES_ORIGIN ["COM"]
properties('MP2/aug-cc-pvtz', properties = ['dipole'])
--------------------------------------------------------------------------

    Molecular point group: c1
  Charge       = 0
  Multiplicity = 1
  Basis Set: AUG-CC-PVTZ
    Blend: AUG-CC-PVTZ
  Basis Set: (AUG-CC-PVTZ AUX)
    Blend: AUG-CC-PVTZ-JKFIT

    Orbital Energies [Eh]
    ---------------------

    Doubly Occupied:

       1A    -15.641966     2A    -15.582853     3A    -11.276408
       4A    -11.274395     5A    -11.251160     6A    -11.220058
       7A     -1.373004     8A     -1.116361     9A     -1.054516
      10A     -0.945664    11A     -0.803589    12A     -0.770813
      13A     -0.712202    14A     -0.650301    15A     -0.612115
      16A     -0.581550    17A     -0.568403    18A     -0.546763
      19A     -0.542790    20A     -0.456540    21A     -0.349215
      22A     -0.340847

  @DF-RHF Final Energy:  -263.91601983485447

   => Energetics <=

    Nuclear Repulsion Energy =            226.1346648338202385
    One-Electron Energy =                -804.7583477377629606
    Two-Electron Energy =                 314.7076630690882553
    Total Energy =                       -263.9160198348544668
  Basis Set: (AUG-CC-PVTZ AUX)
    Blend: AUG-CC-PVTZ-RI
    Molecular point group: c1

    Geometry (in Angstrom), charge = 0, multiplicity = 1:

       Center              X                  Y                   Z               Mass
    ------------   -----------------  -----------------  -----------------  -----------------
         N            0.630636104732     0.045535318787     0.002446980599    14.003074004430
         N           -0.057172895268    -1.113892681213     0.002439980599    14.003074004430
         C           -0.175693895268     1.142966318787     0.002479980599    12.000000000000
         C            2.080547104732     0.001224318787     0.002450980599    12.000000000000
         C           -1.478898895268     0.669999318787     0.002471980599    12.000000000000
         C           -1.350599895268    -0.727169681213     0.002450980599    12.000000000000
         H            0.232818304732     2.144483618787    -0.197496019401     1.007825032230
         H            2.431136104732    -0.522085681213     0.893413980599     1.007825032230
         H            2.431126104732    -0.522226681213    -0.888432019401     1.007825032230
         H            2.457900104732     1.024558318787     0.002368980599     1.007825032230
         H           -2.385268895268     1.258715318787     0.002475980599     1.007825032230
         H           -2.126013895268    -1.482277681213     0.002438980599     1.007825032230

  Basis Set: AUG-CC-PVTZ
    Blend: AUG-CC-PVTZ
  Basis Set: (AUG-CC-PVTZ AUX)
    Blend: AUG-CC-PVTZ-JKFIT
	 Reference Energy          =    -263.9160198348544668 [Eh]
	 Singles Energy            =      -0.0000000000000000 [Eh]
	 Same-Spin Energy          =      -0.2885224987380212 [Eh]
	 Opposite-Spin Energy      =      -0.9018454673340257 [Eh]
	 Correlation Energy        =      -1.1903679660720470 [Eh]
	 Total Energy              =    -265.1063878009265409 [Eh]

	 ================> DF-SCS-MP2 Energies <==================
	-----------------------------------------------------------
	 SCS Same-Spin Scale       =       0.3333333333333333 [-]
	 SCS Opposite-Spin Scale   =       1.2000000000000000 [-]
	 SCS Same-Spin Energy      =      -0.0961741662460071 [Eh]
	 SCS Opposite-Spin Energy  =      -1.0822145608008309 [Eh]
	 SCS Correlation Energy    =      -1.1783887270468381 [Eh]
	 SCS Total Energy          =    -265.0944085619013322 [Eh]
	-----------------------------------------------------------

  Dipole Moment: [D]
     X:     1.3252      Y:     2.0228      Z:    -0.1803     Total:     2.4250

*** Psi4 exiting successfully. Buy a developer a beer!
