                               Psi4 1.3.2 release

  ==> Input File <==

--------------------------------------------------------------------------
#psi4
#
memory 32 gb

molecule  {
0 1
  N        0.5963620     0.0240630    -0.0000100
  N       -0.0914470    -1.1353650    -0.0000170
  C       -0.2099680     1.1214940     0.0000230
  C        2.0462730    -0.0202480    -0.0000060
  C       -1.5131730     0.6485270     0.0000150
  C       -1.3848740    -0.7486420    -0.0000060
  H        0.1985446     2.1230086    -0.0999530
  H        2.3968620    -0.5435580     0.8909570
  H        2.3968520    -0.5436990    -0.8908890
  H        2.4236260     1.0030860    -0.0000880
  H       -2.4195430     1.2372430     0.0000190
  H       -2.1602880    -1.5037500    -0.0000180
units angstrom
no_reorient  #important for SAPT in psi4, default
symmetry c1  #important for SAPT in psi4, default
}

set PROPERTIES_ORIGIN ["COM"]
properties('MP2/aug-cc-pvtz', properties = ['dipole'])
--------------------------------------------------------------------------

    Molecular point group: c1
  Charge       = 0
  Multiplicity = 1
  Basis Set: AUG-CC-PVTZ
    Blend: AUG-CC-PVTZ
  Basis Set: (AUG-CC-PVTZ AUX)
    Blend: AUG-CC-PVTZ-JKFIT

    Orbital Energies [Eh]
    ---------------------

    Doubly Occupied:

       1A    -15.641812     2A    -15.582348     3A    -11.275479
       4A    -11.274420     5A    -11.250984     6A    -11.219720
       7A     -1.372787     8A     -1.116260     9A     -1.054697
      10A     -0.945599    11A     -0.803964    12A     -0.771986
      13A     -0.713819    14A     -0.650126    15A     -0.612388
      16A     -0.581459    17A     -0.569402    18A     -0.546145
      19A     -0.544257    20A     -0.456270    21A     -0.349131
      22A     -0.340777

  @DF-RHF Final Energy:  -263.91782477016818

   => Energetics <=

    Nuclear Repulsion Energy =            226.1871693890774964
    One-Electron Energy =                -804.8623313155693495
    Two-Electron Energy =                 314.7573371563237288
    Total Energy =                       -263.9178247701681812
  Basis Set: (AUG-CC-PVTZ AUX)
    Blend: AUG-CC-PVTZ-RI
    Molecular point group: c1

    Geometry (in Angstrom), charge = 0, multiplicity = 1:

       Center              X                  Y                   Z               Mass
    ------------   -----------------  -----------------  -----------------  -----------------
         N            0.630636099819     0.045535351950     0.001218721027    14.003074004430
         N           -0.057172900181    -1.113892648050     0.001211721027    14.003074004430
         C           -0.175693900181     1.142966351950     0.001251721027    12.000000000000
         C            2.080547099819     0.001224351950     0.001222721027    12.000000000000
         C           -1.478898900181     0.669999351950     0.001243721027    12.000000000000
         C           -1.350599900181    -0.727169648050     0.001222721027    12.000000000000
         H            0.232818699819     2.144480951950    -0.098724278973     1.007825032230
         H            2.431136099819    -0.522085648050     0.892185721027     1.007825032230
         H            2.431126099819    -0.522226648050    -0.889660278973     1.007825032230
         H            2.457900099819     1.024558351950     0.001140721027     1.007825032230
         H           -2.385268900181     1.258715351950     0.001247721027     1.007825032230
         H           -2.126013900181    -1.482277648050     0.001210721027     1.007825032230

  Basis Set: AUG-CC-PVTZ
    Blend: AUG-CC-PVTZ
  Basis Set: (AUG-CC-PVTZ AUX)
    Blend: AUG-CC-PVTZ-JKFIT
	 Reference Energy          =    -263.9178247701681812 [Eh]
	 Singles Energy            =      -0.0000000000000000 [Eh]
	 Same-Spin Energy          =      -0.2883760497142400 [Eh]
	 Opposite-Spin Energy      =      -0.9015371494287714 [Eh]
	 Correlation Energy        =      -1.1899131991430114 [Eh]
	 Total Energy              =    -265.1077379693111880 [Eh]

	 ================> DF-SCS-MP2 Energies <==================
	-----------------------------------------------------------
	 SCS Same-Spin Scale       =       0.3333333333333333 [-]
	 SCS Opposite-Spin Scale   =       1.2000000000000000 [-]
	 SCS Same-Spin Energy      =      -0.0961253499047467 [Eh]
	 SCS Opposite-Spin Energy  =      -1.0818445793145257 [Eh]
	 SCS Correlation Energy    =      -1.1779699292192725 [Eh]
	 SCS Total Energy          =    -265.0957946993874543 [Eh]
	-----------------------------------------------------------

  Dipole Moment: [D]
     X:     1.3365      Y:     2.0487      Z:    -0.0910     Total:     2.4477

*** Psi4 exiting successfully. Buy a developer a beer!
