                               Psi4 1.3.2 release

  ==> Input File <==

--------------------------------------------------------------------------
#psi4
#
memory 32 gb

molecule  {
0 1
  N        0.5963620     0.0240630    -0.0000100
  N       -0.0914470    -1.1353650    -0.0000170
  C       -0.2099680     1.1214940     0.0000230
  C        2.0462730    -0.0202480    -0.0000060
  C       -1.5131730     0.6485270     0.0000150
  C       -1.3848740    -0.7486420    -0.0000060
  H        0.1985444     2.1230100    -0.1499530
  H        2.3968620    -0.5435580     0.8909570
  H        2.3968520    -0.5436990    -0.8908890
  H        2.4236260     1.0030860    -0.0000880
  H       -2.4195430     1.2372430     0.0000190
  H       -2.1602880    -1.5037500    -0.0000180
units angstrom
no_reorient  #important for SAPT in psi4, default
symmetry c1  #important for SAPT in psi4, default
}

set PROPERTIES_ORIGIN ["COM"]
properties('MP2/aug-cc-pvtz', properties = ['dipole'])
--------------------------------------------------------------------------

    Molecular point group: c1
  Charge       = 0
  Multiplicity = 1
  Basis Set: AUG-CC-PVTZ
    Blend: AUG-CC-PVTZ
  Basis Set: (AUG-CC-PVTZ AUX)
    Blend: AUG-CC-PVTZ-JKFIT

    Orbital Energies [Eh]
    ---------------------

    Doubly Occupied:

       1A    -15.641876     2A    -15.582559     3A    -11.275868
       4A    -11.274409     5A    -11.251057     6A    -11.219861
       7A     -1.372877     8A     -1.116302     9A     -1.054620
      10A     -0.945626    11A     -0.803797    12A     -0.771485
      13A     -0.713144    14A     -0.650200    15A     -0.612272
      16A     -0.581495    17A     -0.568984    18A     -0.546471
      19A     -0.543585    20A     -0.456383    21A     -0.349165
      22A     -0.340806

  @DF-RHF Final Energy:  -263.91709353643836

   => Energetics <=

    Nuclear Repulsion Energy =            226.1651101577967893
    One-Electron Energy =                -804.8187245859000996
    Two-Electron Energy =                 314.7365208916649522
    Total Energy =                       -263.9170935364383581
  Basis Set: (AUG-CC-PVTZ AUX)
    Blend: AUG-CC-PVTZ-RI
    Molecular point group: c1

    Geometry (in Angstrom), charge = 0, multiplicity = 1:

       Center              X                  Y                   Z               Mass
    ------------   -----------------  -----------------  -----------------  -----------------
         N            0.630636102275     0.045535334755     0.001832850813    14.003074004430
         N           -0.057172897725    -1.113892665245     0.001825850813    14.003074004430
         C           -0.175693897725     1.142966334755     0.001865850813    12.000000000000
         C            2.080547102275     0.001224334755     0.001836850813    12.000000000000
         C           -1.478898897725     0.669999334755     0.001857850813    12.000000000000
         C           -1.350599897725    -0.727169665245     0.001836850813    12.000000000000
         H            0.232818502275     2.144482334755    -0.148110149187     1.007825032230
         H            2.431136102275    -0.522085665245     0.892799850813     1.007825032230
         H            2.431126102275    -0.522226665245    -0.889046149187     1.007825032230
         H            2.457900102275     1.024558334755     0.001754850813     1.007825032230
         H           -2.385268897725     1.258715334755     0.001861850813     1.007825032230
         H           -2.126013897725    -1.482277665245     0.001824850813     1.007825032230

  Basis Set: AUG-CC-PVTZ
    Blend: AUG-CC-PVTZ
  Basis Set: (AUG-CC-PVTZ AUX)
    Blend: AUG-CC-PVTZ-JKFIT
	 Reference Energy          =    -263.9170935364383581 [Eh]
	 Singles Energy            =      -0.0000000000000000 [Eh]
	 Same-Spin Energy          =      -0.2884375177933771 [Eh]
	 Opposite-Spin Energy      =      -0.9016643902955164 [Eh]
	 Correlation Energy        =      -1.1901019080888935 [Eh]
	 Total Energy              =    -265.1071954445272354 [Eh]

	 ================> DF-SCS-MP2 Energies <==================
	-----------------------------------------------------------
	 SCS Same-Spin Scale       =       0.3333333333333333 [-]
	 SCS Opposite-Spin Scale   =       1.2000000000000000 [-]
	 SCS Same-Spin Energy      =      -0.0961458392644590 [Eh]
	 SCS Opposite-Spin Energy  =      -1.0819972683546195 [Eh]
	 SCS Correlation Energy    =      -1.1781431076190785 [Eh]
	 SCS Total Energy          =    -265.0952366440574224 [Eh]
	-----------------------------------------------------------

  Dipole Moment: [D]
     X:     1.3317      Y:     2.0378      Z:    -0.1359     Total:     2.4382

*** Psi4 exiting successfully. Buy a developer a beer!
