                               Psi4 1.3.2 release

  ==> Input File <==

--------------------------------------------------------------------------
#psi4
#
memory 32 gb

molecule  {
0 1
  N        0.5963620     0.0240630    -0.0000100
  N       -0.0914470    -1.1353650    -0.0000170
  C       -0.2099680     1.1214940     0.0000230
  C        2.0462730    -0.0202480    -0.0000060
  C       -1.5131730     0.6485270     0.0000150
  C       -1.3848740    -0.7486420    -0.0000060
  H        0.1985440     2.1230126    -0.2499530
  H        2.3968620    -0.5435580     0.8909570
  H        2.3968520    -0.5436990    -0.8908890
  H        2.4236260     1.0030860    -0.0000880
  H       -2.4195430     1.2372430     0.0000190
  H       -2.1602880    -1.5037500    -0.0000180
units angstrom
no_reorient  #important for SAPT in psi4, default
symmetry c1  #important for SAPT in psi4, default
}

set PROPERTIES_ORIGIN ["COM"]
properties('MP2/aug-cc-pvtz', properties = ['dipole'])
--------------------------------------------------------------------------

    Molecular point group: c1
  Charge       = 0
  Multiplicity = 1
  Basis Set: AUG-CC-PVTZ
    Blend: AUG-CC-PVTZ
  Basis Set: (AUG-CC-PVTZ AUX)
    Blend: AUG-CC-PVTZ-JKFIT

    Orbital Energies [Eh]
    ---------------------

    Doubly Occupied:

       1A    -15.642084     2A    -15.583225     3A    -11.277094
       4A    -11.274377     5A    -11.251291     6A    -11.220310
       7A     -1.373165     8A     -1.116438     9A     -1.054392
      10A     -0.945715    11A     -0.803361    12A     -0.769997
      13A     -0.711000    14A     -0.650430    15A     -0.611920
      16A     -0.581627    17A     -0.567664    18A     -0.547029
      19A     -0.541848    20A     -0.456738    21A     -0.349280
      22A     -0.340901

  @DF-RHF Final Energy:  -263.91456033003698

   => Energetics <=

    Nuclear Repulsion Energy =            226.0962447899514416
    One-Electron Energy =                -804.6818427646790042
    Two-Electron Energy =                 314.6710376446905570
    Total Energy =                       -263.9145603300369771
  Basis Set: (AUG-CC-PVTZ AUX)
    Blend: AUG-CC-PVTZ-RI
    Molecular point group: c1

    Geometry (in Angstrom), charge = 0, multiplicity = 1:

       Center              X                  Y                   Z               Mass
    ------------   -----------------  -----------------  -----------------  -----------------
         N            0.630636107188     0.045535302820     0.003061110384    14.003074004430
         N           -0.057172892812    -1.113892697180     0.003054110384    14.003074004430
         C           -0.175693892812     1.142966302820     0.003094110384    12.000000000000
         C            2.080547107188     0.001224302820     0.003065110384    12.000000000000
         C           -1.478898892812     0.669999302820     0.003086110384    12.000000000000
         C           -1.350599892812    -0.727169697180     0.003065110384    12.000000000000
         H            0.232818107188     2.144484902820    -0.246881889616     1.007825032230
         H            2.431136107188    -0.522085697180     0.894028110384     1.007825032230
         H            2.431126107188    -0.522226697180    -0.887817889616     1.007825032230
         H            2.457900107188     1.024558302820     0.002983110384     1.007825032230
         H           -2.385268892812     1.258715302820     0.003090110384     1.007825032230
         H           -2.126013892812    -1.482277697180     0.003053110384     1.007825032230

  Basis Set: AUG-CC-PVTZ
    Blend: AUG-CC-PVTZ
  Basis Set: (AUG-CC-PVTZ AUX)
    Blend: AUG-CC-PVTZ-JKFIT
	 Reference Energy          =    -263.9145603300369771 [Eh]
	 Singles Energy            =      -0.0000000000000000 [Eh]
	 Same-Spin Energy          =      -0.2886299275575925 [Eh]
	 Opposite-Spin Energy      =      -0.9020813764965130 [Eh]
	 Correlation Energy        =      -1.1907113040541055 [Eh]
	 Total Energy              =    -265.1052716340910820 [Eh]

	 ================> DF-SCS-MP2 Energies <==================
	-----------------------------------------------------------
	 SCS Same-Spin Scale       =       0.3333333333333333 [-]
	 SCS Opposite-Spin Scale   =       1.2000000000000000 [-]
	 SCS Same-Spin Energy      =      -0.0962099758525308 [Eh]
	 SCS Opposite-Spin Energy  =      -1.0824976517958156 [Eh]
	 SCS Correlation Energy    =      -1.1787076276483464 [Eh]
	 SCS Total Energy          =    -265.0932679576853275 [Eh]
	-----------------------------------------------------------

  Dipole Moment: [D]
     X:     1.3170      Y:     2.0039      Z:    -0.2239     Total:     2.4083

*** Psi4 exiting successfully. Buy a developer a beer!
