                               Psi4 1.3.2 release

  ==> Input File <==

--------------------------------------------------------------------------
#psi4
#
memory 32 gb

molecule  {
0 1
  N        0.5963620     0.0240630    -0.0000100
  N       -0.0914470    -1.1353650    -0.0000170
  C       -0.2099680     1.1214940     0.0000230
  C        2.0462728    -0.0202471    -0.0500060
  C       -1.5131730     0.6485270     0.0000150
  C       -1.3848740    -0.7486420    -0.0000060
  H        0.1985450     2.1230060     0.0000470
  H        2.3968620    -0.5435580     0.8909570
  H        2.3968520    -0.5436990    -0.8908890
  H        2.4236260     1.0030860    -0.0000880
  H       -2.4195430     1.2372430     0.0000190
  H       -2.1602880    -1.5037500    -0.0000180
units angstrom
no_reorient  #important for SAPT in psi4, default
symmetry c1  #important for SAPT in psi4, default
}

set PROPERTIES_ORIGIN ["COM"]
properties('MP2/aug-cc-pvtz', properties = ['dipole'])
--------------------------------------------------------------------------

    Molecular point group: c1
  Charge       = 0
  Multiplicity = 1
  Basis Set: AUG-CC-PVTZ
    Blend: AUG-CC-PVTZ
  Basis Set: (AUG-CC-PVTZ AUX)
    Blend: AUG-CC-PVTZ-JKFIT

    Orbital Energies [Eh]
    ---------------------

    Doubly Occupied:

       1A    -15.641890     2A    -15.582204     3A    -11.275210
       4A    -11.274798     5A    -11.250980     6A    -11.219670
       7A     -1.372712     8A     -1.116153     9A     -1.054809
      10A     -0.945940    11A     -0.804126    12A     -0.772736
      13A     -0.714750    14A     -0.651206    15A     -0.612463
      16A     -0.582154    17A     -0.570480    18A     -0.550131
      19A     -0.537263    20A     -0.456207    21A     -0.349041
      22A     -0.340796

  @DF-RHF Final Energy:  -263.91562737249762

   => Energetics <=

    Nuclear Repulsion Energy =            226.1942045249484465
    One-Electron Energy =                -804.8682203585236721
    Two-Electron Energy =                 314.7583884610776295
    Total Energy =                       -263.9156273724976245
  Basis Set: (AUG-CC-PVTZ AUX)
    Blend: AUG-CC-PVTZ-RI
    Molecular point group: c1

    Geometry (in Angstrom), charge = 0, multiplicity = 1:

       Center              X                  Y                   Z               Mass
    ------------   -----------------  -----------------  -----------------  -----------------
         N            0.630636124155     0.045535252263     0.007302799602    14.003074004430
         N           -0.057172875845    -1.113892747737     0.007295799602    14.003074004430
         C           -0.175693875845     1.142966252263     0.007335799602    12.000000000000
         C            2.080546924155     0.001225152263    -0.042693200398    12.000000000000
         C           -1.478898875845     0.669999252263     0.007327799602    12.000000000000
         C           -1.350599875845    -0.727169747737     0.007306799602    12.000000000000
         H            0.232819124155     2.144478252263     0.007359799602     1.007825032230
         H            2.431136124155    -0.522085747737     0.898269799602     1.007825032230
         H            2.431126124155    -0.522226747737    -0.883576200398     1.007825032230
         H            2.457900124155     1.024558252263     0.007224799602     1.007825032230
         H           -2.385268875845     1.258715252263     0.007331799602     1.007825032230
         H           -2.126013875845    -1.482277747737     0.007294799602     1.007825032230

  Basis Set: AUG-CC-PVTZ
    Blend: AUG-CC-PVTZ
  Basis Set: (AUG-CC-PVTZ AUX)
    Blend: AUG-CC-PVTZ-JKFIT
	 Reference Energy          =    -263.9156273724976245 [Eh]
	 Singles Energy            =      -0.0000000000000000 [Eh]
	 Same-Spin Energy          =      -0.2883611133792813 [Eh]
	 Opposite-Spin Energy      =      -0.9015540665712822 [Eh]
	 Correlation Energy        =      -1.1899151799505634 [Eh]
	 Total Energy              =    -265.1055425524481848 [Eh]

	 ================> DF-SCS-MP2 Energies <==================
	-----------------------------------------------------------
	 SCS Same-Spin Scale       =       0.3333333333333333 [-]
	 SCS Opposite-Spin Scale   =       1.2000000000000000 [-]
	 SCS Same-Spin Energy      =      -0.0961203711264271 [Eh]
	 SCS Opposite-Spin Energy  =      -1.0818648798855386 [Eh]
	 SCS Correlation Energy    =      -1.1779852510119657 [Eh]
	 SCS Total Energy          =    -265.0936126235096140 [Eh]
	-----------------------------------------------------------

  Dipole Moment: [D]
     X:     1.3349      Y:     2.0590      Z:    -0.0498     Total:     2.4544

*** Psi4 exiting successfully. Buy a developer a beer!
