                               Psi4 1.3.2 release

  ==> Input File <==

--------------------------------------------------------------------------
#psi4
#
memory 32 gb

molecule  {
0 1
  N        0.5963620     0.0240630    -0.0000100
  N       -0.0914470    -1.1353650    -0.0000170
  C       -0.2099680     1.1214940     0.0000230
  C        2.0462730    -0.0202480    -0.0000060
  C       -1.5131730     0.6485270     0.0000150
  C       -1.3848740    -0.7486420    -0.0000060
  H        0.1985450     2.1230060     0.0000470
  H        2.3968620    -0.5435580     0.8909570
  H        2.3968520    -0.5436990    -0.8908890
  H        2.4236260     1.0030860    -0.0000880
  H       -2.4195430     1.2372430     0.0000190
  H       -2.1602876    -1.5037524     0.1499820
units angstrom
no_reorient  #important for SAPT in psi4, default
symmetry c1  #important for SAPT in psi4, default
}

set PROPERTIES_ORIGIN ["COM"]
properties('MP2/aug-cc-pvtz', properties = ['dipole'])
--------------------------------------------------------------------------

    Molecular point group: c1
  Charge       = 0
  Multiplicity = 1
  Basis Set: AUG-CC-PVTZ
    Blend: AUG-CC-PVTZ
  Basis Set: (AUG-CC-PVTZ AUX)
    Blend: AUG-CC-PVTZ-JKFIT

    Orbital Energies [Eh]
    ---------------------

    Doubly Occupied:

       1A    -15.642017     2A    -15.582452     3A    -11.275260
       4A    -11.274553     5A    -11.251795     6A    -11.219744
       7A     -1.372927     8A     -1.116269     9A     -1.054915
      10A     -0.945410    11A     -0.803636    12A     -0.771925
      13A     -0.713851    14A     -0.650301    15A     -0.612054
      16A     -0.581210    17A     -0.569568    18A     -0.548219
      19A     -0.541282    20A     -0.456316    21A     -0.348968
      22A     -0.340855

  @DF-RHF Final Energy:  -263.91695861152266

   => Energetics <=

    Nuclear Repulsion Energy =            226.1663769907709707
    One-Electron Energy =                -804.8196139102337838
    Two-Electron Energy =                 314.7362783079402107
    Total Energy =                       -263.9169586115226593
  Basis Set: (AUG-CC-PVTZ AUX)
    Blend: AUG-CC-PVTZ-RI
    Molecular point group: c1

    Geometry (in Angstrom), charge = 0, multiplicity = 1:

       Center              X                  Y                   Z               Mass
    ------------   -----------------  -----------------  -----------------  -----------------
         N            0.630636089993     0.045535413363    -0.001851927901    14.003074004430
         N           -0.057172910007    -1.113892586637    -0.001858927901    14.003074004430
         C           -0.175693910007     1.142966413363    -0.001818927901    12.000000000000
         C            2.080547089993     0.001224413363    -0.001847927901    12.000000000000
         C           -1.478898910007     0.669999413363    -0.001826927901    12.000000000000
         C           -1.350599910007    -0.727169586637    -0.001847927901    12.000000000000
         H            0.232819089993     2.144478413363    -0.001794927901     1.007825032230
         H            2.431136089993    -0.522085586637     0.889115072099     1.007825032230
         H            2.431126089993    -0.522226586637    -0.892730927901     1.007825032230
         H            2.457900089993     1.024558413363    -0.001929927901     1.007825032230
         H           -2.385268910007     1.258715413363    -0.001822927901     1.007825032230
         H           -2.126013510007    -1.482279986637     0.148140072099     1.007825032230

  Basis Set: AUG-CC-PVTZ
    Blend: AUG-CC-PVTZ
  Basis Set: (AUG-CC-PVTZ AUX)
    Blend: AUG-CC-PVTZ-JKFIT
	 Reference Energy          =    -263.9169586115226593 [Eh]
	 Singles Energy            =      -0.0000000000000000 [Eh]
	 Same-Spin Energy          =      -0.2884212156958790 [Eh]
	 Opposite-Spin Energy      =      -0.9016403927381732 [Eh]
	 Correlation Energy        =      -1.1900616084340521 [Eh]
	 Total Energy              =    -265.1070202199567234 [Eh]

	 ================> DF-SCS-MP2 Energies <==================
	-----------------------------------------------------------
	 SCS Same-Spin Scale       =       0.3333333333333333 [-]
	 SCS Opposite-Spin Scale   =       1.2000000000000000 [-]
	 SCS Same-Spin Energy      =      -0.0961404052319597 [Eh]
	 SCS Opposite-Spin Energy  =      -1.0819684712858078 [Eh]
	 SCS Correlation Energy    =      -1.1781088765177674 [Eh]
	 SCS Total Energy          =    -265.0950674880403994 [Eh]
	-----------------------------------------------------------

  Dipole Moment: [D]
     X:     1.3563      Y:     2.0706      Z:     0.1098     Total:     2.4777

*** Psi4 exiting successfully. Buy a developer a beer!
