                               Psi4 1.3.2 release

  ==> Input File <==

--------------------------------------------------------------------------
#psi4
#
memory 32 gb

molecule  {
0 1
  N        0.5963620     0.0240630    -0.0000100
  N       -0.0914470    -1.1353650    -0.0000170
  C       -0.2099680     1.1214940     0.0000230
  C        2.0462726    -0.0202462    -0.1000060
  C       -1.5131730     0.6485270     0.0000150
  C       -1.3848740    -0.7486420    -0.0000060
  H        0.1985450     2.1230060     0.0000470
  H        2.3968620    -0.5435580     0.8909570
  H        2.3968520    -0.5436990    -0.8908890
  H        2.4236260     1.0030860    -0.0000880
  H       -2.4195430     1.2372430     0.0000190
  H       -2.1602880    -1.5037500    -0.0000180
units angstrom
no_reorient  #important for SAPT in psi4, default
symmetry c1  #important for SAPT in psi4, default
}

set PROPERTIES_ORIGIN ["COM"]
properties('MP2/aug-cc-pvtz', properties = ['dipole'])
--------------------------------------------------------------------------

    Molecular point group: c1
  Charge       = 0
  Multiplicity = 1
  Basis Set: AUG-CC-PVTZ
    Blend: AUG-CC-PVTZ
  Basis Set: (AUG-CC-PVTZ AUX)
    Blend: AUG-CC-PVTZ-JKFIT

    Orbital Energies [Eh]
    ---------------------

    Doubly Occupied:

       1A    -15.642274     2A    -15.582284     3A    -11.275907
       4A    -11.275342     5A    -11.251145     6A    -11.219863
       7A     -1.372705     8A     -1.115930     9A     -1.054952
      10A     -0.947047    11A     -0.804172    12A     -0.773771
      13A     -0.715958    14A     -0.654236    15A     -0.612549
      16A     -0.584193    17A     -0.571486    18A     -0.552302
      19A     -0.526743    20A     -0.456293    21A     -0.348853
      22A     -0.340918

  @DF-RHF Final Energy:  -263.90730769030495

   => Energetics <=

    Nuclear Repulsion Energy =            226.1618957424098255
    One-Electron Energy =                -804.7805635824024648
    Two-Electron Energy =                 314.7113601496877209
    Total Energy =                       -263.9073076903049468
  Basis Set: (AUG-CC-PVTZ AUX)
    Blend: AUG-CC-PVTZ-RI
    Molecular point group: c1

    Geometry (in Angstrom), charge = 0, multiplicity = 1:

       Center              X                  Y                   Z               Mass
    ------------   -----------------  -----------------  -----------------  -----------------
         N            0.630636153404     0.045535120641     0.014615137748    14.003074004430
         N           -0.057172846596    -1.113892879359     0.014608137748    14.003074004430
         C           -0.175693846596     1.142966120641     0.014648137748    12.000000000000
         C            2.080546753404     0.001225920641    -0.085380862252    12.000000000000
         C           -1.478898846596     0.669999120641     0.014640137748    12.000000000000
         C           -1.350599846596    -0.727169879359     0.014619137748    12.000000000000
         H            0.232819153404     2.144478120641     0.014672137748     1.007825032230
         H            2.431136153404    -0.522085879359     0.905582137748     1.007825032230
         H            2.431126153404    -0.522226879359    -0.876263862252     1.007825032230
         H            2.457900153404     1.024558120641     0.014537137748     1.007825032230
         H           -2.385268846596     1.258715120641     0.014644137748     1.007825032230
         H           -2.126013846596    -1.482277879359     0.014607137748     1.007825032230

  Basis Set: AUG-CC-PVTZ
    Blend: AUG-CC-PVTZ
  Basis Set: (AUG-CC-PVTZ AUX)
    Blend: AUG-CC-PVTZ-JKFIT
	 Reference Energy          =    -263.9073076903049468 [Eh]
	 Singles Energy            =      -0.0000000000000000 [Eh]
	 Same-Spin Energy          =      -0.2884655369698971 [Eh]
	 Opposite-Spin Energy      =      -0.9019098111385113 [Eh]
	 Correlation Energy        =      -1.1903753481084083 [Eh]
	 Total Energy              =    -265.0976830384133791 [Eh]

	 ================> DF-SCS-MP2 Energies <==================
	-----------------------------------------------------------
	 SCS Same-Spin Scale       =       0.3333333333333333 [-]
	 SCS Opposite-Spin Scale   =       1.2000000000000000 [-]
	 SCS Same-Spin Energy      =      -0.0961551789899657 [Eh]
	 SCS Opposite-Spin Energy  =      -1.0822917733662136 [Eh]
	 SCS Correlation Energy    =      -1.1784469523561794 [Eh]
	 SCS Total Energy          =    -265.0857546426611293 [Eh]
	-----------------------------------------------------------

  Dipole Moment: [D]
     X:     1.3191      Y:     2.0638      Z:    -0.0985     Total:     2.4513

*** Psi4 exiting successfully. Buy a developer a beer!
