                               Psi4 1.3.2 release

  ==> Input File <==

--------------------------------------------------------------------------
#psi4
#
memory 32 gb

molecule  {
0 1
  N        0.5963620     0.0240630    -0.0000100
  N       -0.0914470    -1.1353650    -0.0000170
  C       -0.2099680     1.1214940     0.0000230
  C        2.0462730    -0.0202480    -0.0000060
  C       -1.5131730     0.6485270     0.0000150
  C       -1.3848740    -0.7486420    -0.0000060
  H        0.1985450     2.1230060     0.0000470
  H        2.3968620    -0.5435580     0.8909570
  H        2.3968520    -0.5436990    -0.8908890
  H        2.4236260     1.0030860    -0.0000880
  H       -2.4195430     1.2372430     0.0000190
  H       -2.1602875    -1.5037532     0.1999820
units angstrom
no_reorient  #important for SAPT in psi4, default
symmetry c1  #important for SAPT in psi4, default
}

set PROPERTIES_ORIGIN ["COM"]
properties('MP2/aug-cc-pvtz', properties = ['dipole'])
--------------------------------------------------------------------------

    Molecular point group: c1
  Charge       = 0
  Multiplicity = 1
  Basis Set: AUG-CC-PVTZ
    Blend: AUG-CC-PVTZ
  Basis Set: (AUG-CC-PVTZ AUX)
    Blend: AUG-CC-PVTZ-JKFIT

    Orbital Energies [Eh]
    ---------------------

    Doubly Occupied:

       1A    -15.642215     2A    -15.582665     3A    -11.275334
       4A    -11.274650     5A    -11.252463     6A    -11.219852
       7A     -1.373092     8A     -1.116303     9A     -1.055035
      10A     -0.945290    11A     -0.803304    12A     -0.771568
      13A     -0.713464    14A     -0.650477    15A     -0.611745
      16A     -0.581053    17A     -0.569437    18A     -0.548990
      19A     -0.539574    20A     -0.456418    21A     -0.348867
      22A     -0.340933

  @DF-RHF Final Energy:  -263.91578285885282

   => Energetics <=

    Nuclear Repulsion Energy =            226.1369113219219855
    One-Electron Energy =                -804.7599270616844933
    Two-Electron Energy =                 314.7072328809097144
    Total Energy =                       -263.9157828588528218
  Basis Set: (AUG-CC-PVTZ AUX)
    Blend: AUG-CC-PVTZ-RI
    Molecular point group: c1

    Geometry (in Angstrom), charge = 0, multiplicity = 1:

       Center              X                  Y                   Z               Mass
    ------------   -----------------  -----------------  -----------------  -----------------
         N            0.630636088764     0.045535423189    -0.002466057687    14.003074004430
         N           -0.057172911236    -1.113892576811    -0.002473057687    14.003074004430
         C           -0.175693911236     1.142966423189    -0.002433057687    12.000000000000
         C            2.080547088764     0.001224423189    -0.002462057687    12.000000000000
         C           -1.478898911236     0.669999423189    -0.002441057687    12.000000000000
         C           -1.350599911236    -0.727169576811    -0.002462057687    12.000000000000
         H            0.232819088764     2.144478423189    -0.002409057687     1.007825032230
         H            2.431136088764    -0.522085576811     0.888500942313     1.007825032230
         H            2.431126088764    -0.522226576811    -0.893345057687     1.007825032230
         H            2.457900088764     1.024558423189    -0.002544057687     1.007825032230
         H           -2.385268911236     1.258715423189    -0.002437057687     1.007825032230
         H           -2.126013411236    -1.482280776811     0.197525942313     1.007825032230

  Basis Set: AUG-CC-PVTZ
    Blend: AUG-CC-PVTZ
  Basis Set: (AUG-CC-PVTZ AUX)
    Blend: AUG-CC-PVTZ-JKFIT
	 Reference Energy          =    -263.9157828588528218 [Eh]
	 Singles Energy            =      -0.0000000000000000 [Eh]
	 Same-Spin Energy          =      -0.2884938606771519 [Eh]
	 Opposite-Spin Energy      =      -0.9018053103358327 [Eh]
	 Correlation Energy        =      -1.1902991710129847 [Eh]
	 Total Energy              =    -265.1060820298658314 [Eh]

	 ================> DF-SCS-MP2 Energies <==================
	-----------------------------------------------------------
	 SCS Same-Spin Scale       =       0.3333333333333333 [-]
	 SCS Opposite-Spin Scale   =       1.2000000000000000 [-]
	 SCS Same-Spin Energy      =      -0.0961646202257173 [Eh]
	 SCS Opposite-Spin Energy  =      -1.0821663724029991 [Eh]
	 SCS Correlation Energy    =      -1.1783309926287164 [Eh]
	 SCS Total Energy          =    -265.0941138514815520 [Eh]
	-----------------------------------------------------------

  Dipole Moment: [D]
     X:     1.3685      Y:     2.0807      Z:     0.1458     Total:     2.4947

*** Psi4 exiting successfully. Buy a developer a beer!
