                               Psi4 1.3.2 release

  ==> Input File <==

--------------------------------------------------------------------------
#psi4
#
memory 32 gb

molecule  {
0 1
  N        0.5963620     0.0240630    -0.0000100
  N       -0.0914470    -1.1353650    -0.0000170
  C       -0.2099680     1.1214940     0.0000230
  C        2.0462720    -0.0202436    -0.2500060
  C       -1.5131730     0.6485270     0.0000150
  C       -1.3848740    -0.7486420    -0.0000060
  H        0.1985450     2.1230060     0.0000470
  H        2.3968620    -0.5435580     0.8909570
  H        2.3968520    -0.5436990    -0.8908890
  H        2.4236260     1.0030860    -0.0000880
  H       -2.4195430     1.2372430     0.0000190
  H       -2.1602880    -1.5037500    -0.0000180
units angstrom
no_reorient  #important for SAPT in psi4, default
symmetry c1  #important for SAPT in psi4, default
}

set PROPERTIES_ORIGIN ["COM"]
properties('MP2/aug-cc-pvtz', properties = ['dipole'])
--------------------------------------------------------------------------

    Molecular point group: c1
  Charge       = 0
  Multiplicity = 1
  Basis Set: AUG-CC-PVTZ
    Blend: AUG-CC-PVTZ
  Basis Set: (AUG-CC-PVTZ AUX)
    Blend: AUG-CC-PVTZ-JKFIT

    Orbital Energies [Eh]
    ---------------------

    Doubly Occupied:

       1A    -15.644809     2A    -15.582832     3A    -11.283598
       4A    -11.276233     5A    -11.252265     6A    -11.221169
       7A     -1.372644     8A     -1.114441     9A     -1.055952
      10A     -0.955401    11A     -0.804558    12A     -0.781622
      13A     -0.724592    14A     -0.664757    15A     -0.615569
      16A     -0.590187    17A     -0.569640    18A     -0.552903
      19A     -0.490477    20A     -0.456857    21A     -0.347415
      22A     -0.341682

  @DF-RHF Final Energy:  -263.84756755657122

   => Energetics <=

    Nuclear Repulsion Energy =            225.9399514911450240
    One-Electron Energy =                -804.1758310050877299
    Two-Electron Energy =                 314.3883119573714566
    Total Energy =                       -263.8475675565712208
  Basis Set: (AUG-CC-PVTZ AUX)
    Blend: AUG-CC-PVTZ-RI
    Molecular point group: c1

    Geometry (in Angstrom), charge = 0, multiplicity = 1:

       Center              X                  Y                   Z               Mass
    ------------   -----------------  -----------------  -----------------  -----------------
         N            0.630636241153     0.045534740399     0.036552152187    14.003074004430
         N           -0.057172758847    -1.113893259601     0.036545152187    14.003074004430
         C           -0.175693758847     1.142965740399     0.036585152187    12.000000000000
         C            2.080546241153     0.001228140399    -0.213443847813    12.000000000000
         C           -1.478898758847     0.669998740399     0.036577152187    12.000000000000
         C           -1.350599758847    -0.727170259601     0.036556152187    12.000000000000
         H            0.232819241153     2.144477740399     0.036609152187     1.007825032230
         H            2.431136241153    -0.522086259601     0.927519152187     1.007825032230
         H            2.431126241153    -0.522227259601    -0.854326847813     1.007825032230
         H            2.457900241153     1.024557740399     0.036474152187     1.007825032230
         H           -2.385268758847     1.258714740399     0.036581152187     1.007825032230
         H           -2.126013758847    -1.482278259601     0.036544152187     1.007825032230

  Basis Set: AUG-CC-PVTZ
    Blend: AUG-CC-PVTZ
  Basis Set: (AUG-CC-PVTZ AUX)
    Blend: AUG-CC-PVTZ-JKFIT
	 Reference Energy          =    -263.8475675565712208 [Eh]
	 Singles Energy            =      -0.0000000000000000 [Eh]
	 Same-Spin Energy          =      -0.2892123561324409 [Eh]
	 Opposite-Spin Energy      =      -0.9045654395146357 [Eh]
	 Correlation Energy        =      -1.1937777956470765 [Eh]
	 Total Energy              =    -265.0413453522182863 [Eh]

	 ================> DF-SCS-MP2 Energies <==================
	-----------------------------------------------------------
	 SCS Same-Spin Scale       =       0.3333333333333333 [-]
	 SCS Opposite-Spin Scale   =       1.2000000000000000 [-]
	 SCS Same-Spin Energy      =      -0.0964041187108136 [Eh]
	 SCS Opposite-Spin Energy  =      -1.0854785274175629 [Eh]
	 SCS Correlation Energy    =      -1.1818826461283765 [Eh]
	 SCS Total Energy          =    -265.0294502026995929 [Eh]
	-----------------------------------------------------------

  Dipole Moment: [D]
     X:     1.2144      Y:     2.0908      Z:    -0.2236     Total:     2.4283

*** Psi4 exiting successfully. Buy a developer a beer!
