                               Psi4 1.3.2 release

  ==> Input File <==

--------------------------------------------------------------------------
#psi4
#
memory 32 gb

molecule  {
0 1
  N        0.5963620     0.0240630    -0.0000100
  N       -0.0914470    -1.1353650    -0.0000170
  C       -0.2099680     1.1214940     0.0000230
  C        2.0462730    -0.0202480    -0.0000060
  C       -1.5131730     0.6485270     0.0000150
  C       -1.3848740    -0.7486420    -0.0000060
  H        0.1985450     2.1230060     0.0000470
  H        2.3968620    -0.5435580     0.8909570
  H        2.3968520    -0.5436990    -0.8908890
  H        2.4236260     1.0030860    -0.0000880
  H       -2.4195430     1.2372430     0.0000190
  H       -2.1602878    -1.5037516     0.0999820
units angstrom
no_reorient  #important for SAPT in psi4, default
symmetry c1  #important for SAPT in psi4, default
}

set PROPERTIES_ORIGIN ["COM"]
properties('MP2/aug-cc-pvtz', properties = ['dipole'])
--------------------------------------------------------------------------

    Molecular point group: c1
  Charge       = 0
  Multiplicity = 1
  Basis Set: AUG-CC-PVTZ
    Blend: AUG-CC-PVTZ
  Basis Set: (AUG-CC-PVTZ AUX)
    Blend: AUG-CC-PVTZ-JKFIT

    Orbital Energies [Eh]
    ---------------------

    Doubly Occupied:

       1A    -15.641875     2A    -15.582299     3A    -11.275208
       4A    -11.274484     5A    -11.251313     6A    -11.219667
       7A     -1.372809     8A     -1.116246     9A     -1.054830
      10A     -0.945501    11A     -0.803893    12A     -0.772186
      13A     -0.714132    14A     -0.650172    15A     -0.612288
      16A     -0.581331    17A     -0.569662    18A     -0.547363
      19A     -0.542794    20A     -0.456240    21A     -0.349042
      22A     -0.340799

  @DF-RHF Final Energy:  -263.91776425608089

   => Energetics <=

    Nuclear Repulsion Energy =            226.1877330956323533
    One-Electron Energy =                -804.8627266168900860
    Two-Electron Energy =                 314.7572292651768748
    Total Energy =                       -263.9177642560808863
  Basis Set: (AUG-CC-PVTZ AUX)
    Blend: AUG-CC-PVTZ-RI
    Molecular point group: c1

    Geometry (in Angstrom), charge = 0, multiplicity = 1:

       Center              X                  Y                   Z               Mass
    ------------   -----------------  -----------------  -----------------  -----------------
         N            0.630636092449     0.045535403537    -0.001237798115    14.003074004430
         N           -0.057172907551    -1.113892596463    -0.001244798115    14.003074004430
         C           -0.175693907551     1.142966403537    -0.001204798115    12.000000000000
         C            2.080547092449     0.001224403537    -0.001233798115    12.000000000000
         C           -1.478898907551     0.669999403537    -0.001212798115    12.000000000000
         C           -1.350599907551    -0.727169596463    -0.001233798115    12.000000000000
         H            0.232819092449     2.144478403537    -0.001180798115     1.007825032230
         H            2.431136092449    -0.522085596463     0.889729201885     1.007825032230
         H            2.431126092449    -0.522226596463    -0.892116798115     1.007825032230
         H            2.457900092449     1.024558403537    -0.001315798115     1.007825032230
         H           -2.385268907551     1.258715403537    -0.001208798115     1.007825032230
         H           -2.126013707551    -1.482279196463     0.098754201885     1.007825032230

  Basis Set: AUG-CC-PVTZ
    Blend: AUG-CC-PVTZ
  Basis Set: (AUG-CC-PVTZ AUX)
    Blend: AUG-CC-PVTZ-JKFIT
	 Reference Energy          =    -263.9177642560808863 [Eh]
	 Singles Energy            =      -0.0000000000000000 [Eh]
	 Same-Spin Energy          =      -0.2883687398577047 [Eh]
	 Opposite-Spin Energy      =      -0.9015259226460123 [Eh]
	 Correlation Energy        =      -1.1898946625037170 [Eh]
	 Total Energy              =    -265.1076589185846046 [Eh]

	 ================> DF-SCS-MP2 Energies <==================
	-----------------------------------------------------------
	 SCS Same-Spin Scale       =       0.3333333333333333 [-]
	 SCS Opposite-Spin Scale   =       1.2000000000000000 [-]
	 SCS Same-Spin Energy      =      -0.0961229132859016 [Eh]
	 SCS Opposite-Spin Energy  =      -1.0818311071752147 [Eh]
	 SCS Correlation Energy    =      -1.1779540204611163 [Eh]
	 SCS Total Energy          =    -265.0957182765420157 [Eh]
	-----------------------------------------------------------

  Dipole Moment: [D]
     X:     1.3474      Y:     2.0633      Z:     0.0735     Total:     2.4654

*** Psi4 exiting successfully. Buy a developer a beer!
