                               Psi4 1.3.2 release

  ==> Input File <==

--------------------------------------------------------------------------
#psi4
#
memory 32 gb

molecule  {
0 1
  C       -2.6260010    -1.3181790     0.0001460
  C       -0.1785650    -0.3909870     0.0002200
  C       -1.6028750    -0.2271810    -0.0000330
  C        0.4037930     0.9065250    -0.0001510
  C       -1.8343220     1.1308500    -0.0000640
  C        2.0432510    -1.3188980     0.0000320
  C        2.5978260    -0.0201320    -0.0000760
  C        0.6688440    -1.5149670    -0.0002860
  C        1.7894520     1.1098640     0.0002960
  N       -0.6328400     1.8116850    -0.0001020
  H        2.7093930    -2.1785160    -0.0003580
  H        3.4801286     0.0761603     0.0002056
  H        0.2537760    -2.5213680    -0.0000660
  H        2.2194000     2.1097800     0.0002850
  H       -3.6376700    -0.9013790    -0.0001930
  H       -2.5281620    -1.9588410     0.8832840
  H       -2.7737480     1.6710560    -0.0003610
  H       -0.5326520     2.8176750    -0.0001200
  H       -2.5278290    -1.9594320    -0.8825300
units angstrom
no_reorient  #important for SAPT in psi4, default
symmetry c1  #important for SAPT in psi4, default
}

set PROPERTIES_ORIGIN ["COM"]
properties('MP2/aug-cc-pvtz', properties = ['dipole'])
--------------------------------------------------------------------------

    Molecular point group: c1
  Charge       = 0
  Multiplicity = 1
  Basis Set: AUG-CC-PVTZ
    Blend: AUG-CC-PVTZ
  Basis Set: (AUG-CC-PVTZ AUX)
    Blend: AUG-CC-PVTZ-JKFIT

    Orbital Energies [Eh]
    ---------------------

    Doubly Occupied:

       1A    -15.599358     2A    -11.264243     3A    -11.264190
       4A    -11.230477     5A    -11.229511     6A    -11.222281
       7A    -11.221393     8A    -11.220976     9A    -11.219728
      10A    -11.205226    11A     -1.291118    12A     -1.128605
      13A     -1.072973    14A     -0.997522    15A     -0.992789
      16A     -0.932141    17A     -0.844400    18A     -0.816316
      19A     -0.755211    20A     -0.724699    21A     -0.676492
      22A     -0.647376    23A     -0.604420    24A     -0.592806
      25A     -0.591411    26A     -0.570250    27A     -0.550932
      28A     -0.548667    29A     -0.537704    30A     -0.497701
      31A     -0.477220    32A     -0.462126    33A     -0.373883
      34A     -0.297832    35A     -0.277284

  @DF-RHF Final Energy:  -400.60557451441866

   => Energetics <=

    Nuclear Repulsion Energy =            484.4322522224163663
    One-Electron Energy =               -1502.1971307221745064
    Two-Electron Energy =                 617.1593039853395339
    Total Energy =                       -400.6055745144186631
  Basis Set: (AUG-CC-PVTZ AUX)
    Blend: AUG-CC-PVTZ-RI
    Molecular point group: c1

    Geometry (in Angstrom), charge = 0, multiplicity = 1:

       Center              X                  Y                   Z               Mass
    ------------   -----------------  -----------------  -----------------  -----------------
         C           -2.648214889814    -1.339424890929     0.000148079493    12.000000000000
         C           -0.200778889814    -0.412232890929     0.000222079493    12.000000000000
         C           -1.625088889814    -0.248426890929    -0.000030920507    12.000000000000
         C            0.381579110186     0.885279109071    -0.000148920507    12.000000000000
         C           -1.856535889814     1.109604109071    -0.000061920507    12.000000000000
         C            2.021037110186    -1.340143890929     0.000034079493    12.000000000000
         C            2.575612110186    -0.041377890929    -0.000073920507    12.000000000000
         C            0.646630110186    -1.536212890929    -0.000283920507    12.000000000000
         C            1.767238110186     1.088618109071     0.000298079493    12.000000000000
         N           -0.655053889814     1.790439109071    -0.000099920507    14.003074004430
         H            2.687179110186    -2.199761890929    -0.000355920507     1.007825032230
         H            3.457914710186     0.054914409071     0.000207679493     1.007825032230
         H            0.231562110186    -2.542613890929    -0.000063920507     1.007825032230
         H            2.197186110186     2.088534109071     0.000287079493     1.007825032230
         H           -3.659883889814    -0.922624890929    -0.000190920507     1.007825032230
         H           -2.550375889814    -1.980086890929     0.883286079493     1.007825032230
         H           -2.795961889814     1.649810109071    -0.000358920507     1.007825032230
         H           -0.554865889814     2.796429109071    -0.000117920507     1.007825032230
         H           -2.550042889814    -1.980677890929    -0.882527920507     1.007825032230

  Basis Set: AUG-CC-PVTZ
    Blend: AUG-CC-PVTZ
  Basis Set: (AUG-CC-PVTZ AUX)
    Blend: AUG-CC-PVTZ-JKFIT
	 Reference Energy          =    -400.6055745144186631 [Eh]
	 Singles Energy            =      -0.0000000000000000 [Eh]
	 Same-Spin Energy          =      -0.4515389364794886 [Eh]
	 Opposite-Spin Energy      =      -1.4035683741569758 [Eh]
	 Correlation Energy        =      -1.8551073106364644 [Eh]
	 Total Energy              =    -402.4606818250551328 [Eh]

	 ================> DF-SCS-MP2 Energies <==================
	-----------------------------------------------------------
	 SCS Same-Spin Scale       =       0.3333333333333333 [-]
	 SCS Opposite-Spin Scale   =       1.2000000000000000 [-]
	 SCS Same-Spin Energy      =      -0.1505129788264962 [Eh]
	 SCS Opposite-Spin Energy  =      -1.6842820489883710 [Eh]
	 SCS Correlation Energy    =      -1.8347950278148670 [Eh]
	 SCS Total Energy          =    -402.4403695422335545 [Eh]
	-----------------------------------------------------------

  Dipole Moment: [D]
     X:    -0.8987      Y:     1.8163      Z:    -0.0001     Total:     2.0265

*** Psi4 exiting successfully. Buy a developer a beer!
