                               Psi4 1.4a3.dev225

  ==> Input File <==

--------------------------------------------------------------------------
#psi4
#
memory 32 gb

molecule  {
0 1
  C       -2.6260070    -1.3181640     0.0000030
  C       -0.1785920    -0.3910100    -0.0000140
  C       -1.6028860    -0.2271800    -0.0000070
  C        0.4037990     0.9065080    -0.0000120
  C       -1.8343130     1.1308630     0.0000070
  C        2.0432640    -1.3188820     0.0000040
  C        2.5978420    -0.0201300     0.0000040
  C        0.6688530    -1.5149630     0.0000000
  C        1.7894440     1.1098670     0.0000020
  N       -0.6328500     1.8116730     0.0000060
  H        2.7093900    -2.1785170     0.0000140
  H        3.6789570     0.0979150     0.0000120
  H        0.2538510    -2.5213940    -0.0000090
  H        2.2194160     2.1097700    -0.0000210
  H       -3.6376970    -0.9014040    -0.0000240
  H       -2.5280300    -1.9591080     0.8829250
  H       -2.7737400     1.6710680     0.0000050
  H       -0.5375752     2.7679073     0.0000031
  H       -2.5279980    -1.9591520    -0.8828820
units angstrom
no_reorient  #important for SAPT in psi4, default
symmetry c1  #important for SAPT in psi4, default
}

set PROPERTIES_ORIGIN ["COM"]
properties('MP2/aug-cc-pvtz', properties = ['dipole'])
--------------------------------------------------------------------------

    Molecular point group: c1
  Charge       = 0
  Multiplicity = 1
  Basis Set: AUG-CC-PVTZ
    Blend: AUG-CC-PVTZ
  Basis Set: (AUG-CC-PVTZ AUX)
    Blend: AUG-CC-PVTZ-JKFIT

    Orbital Energies [Eh]
    ---------------------

    Doubly Occupied:

       1A    -15.595149     2A    -11.265437     3A    -11.264680
       4A    -11.232102     5A    -11.230832     6A    -11.229684
       7A    -11.223019     8A    -11.222032     9A    -11.221582
      10A    -11.221316    11A     -1.295541    12A     -1.128345
      13A     -1.074194    14A     -0.998449    15A     -0.986323
      16A     -0.933971    17A     -0.840116    18A     -0.807813
      19A     -0.757327    20A     -0.725922    21A     -0.660347
      22A     -0.644954    23A     -0.604804    24A     -0.594122
      25A     -0.592409    26A     -0.570038    27A     -0.551775
      28A     -0.542894    29A     -0.530002    30A     -0.497906
      31A     -0.476161    32A     -0.463486    33A     -0.374862
      34A     -0.299090    35A     -0.278103

  @DF-RHF Final Energy:  -400.63992385372990

   => Energetics <=

    Nuclear Repulsion Energy =            483.5812827719068991
    One-Electron Energy =               -1500.5728427593492142
    Two-Electron Energy =                 616.3516361337124181
    Total Energy =                       -400.6399238537298970
  Basis Set: (AUG-CC-PVTZ AUX)
    Blend: AUG-CC-PVTZ-RI
    Molecular point group: c1

    Geometry (in Angstrom), charge = 0, multiplicity = 1:

       Center              X                  Y                   Z               Mass
    ------------   -----------------  -----------------  -----------------  -----------------
         C           -2.649711097485    -1.339194214006     0.000003371553    12.000000000000
         C           -0.202296097485    -0.412040214006    -0.000013628447    12.000000000000
         C           -1.626590097485    -0.248210214006    -0.000006628447    12.000000000000
         C            0.380094902515     0.885477785994    -0.000011628447    12.000000000000
         C           -1.858017097485     1.109832785994     0.000007371553    12.000000000000
         C            2.019559902515    -1.339912214006     0.000004371553    12.000000000000
         C            2.574137902515    -0.041160214006     0.000004371553    12.000000000000
         C            0.645148902515    -1.535993214006     0.000000371553    12.000000000000
         C            1.765739902515     1.088836785994     0.000002371553    12.000000000000
         N           -0.656554097485     1.790642785994     0.000006371553    14.003074004430
         H            2.685685902515    -2.199547214006     0.000014371553     1.007825032230
         H            3.655252902515     0.076884785994     0.000012371553     1.007825032230
         H            0.230146902515    -2.542424214006    -0.000008628447     1.007825032230
         H            2.195711902515     2.088739785994    -0.000020628447     1.007825032230
         H           -3.661401097485    -0.922434214006    -0.000023628447     1.007825032230
         H           -2.551734097485    -1.980138214006     0.882925371553     1.007825032230
         H           -2.797444097485     1.650037785994     0.000005371553     1.007825032230
         H           -0.561279297485     2.746877085994     0.000003471553     1.007825032230
         H           -2.551702097485    -1.980182214006    -0.882881628447     1.007825032230

  Basis Set: AUG-CC-PVTZ
    Blend: AUG-CC-PVTZ
  Basis Set: (AUG-CC-PVTZ AUX)
    Blend: AUG-CC-PVTZ-JKFIT
	 Reference Energy          =    -400.6399238537298970 [Eh]
	 Singles Energy            =      -0.0000000000000000 [Eh]
	 Same-Spin Energy          =      -0.4512708921769947 [Eh]
	 Opposite-Spin Energy      =      -1.4031992422462332 [Eh]
	 Correlation Energy        =      -1.8544701344232277 [Eh]
	 Total Energy              =    -402.4943939881531492 [Eh]

	 ================> DF-SCS-MP2 Energies <==================
	-----------------------------------------------------------
	 SCS Same-Spin Scale       =       0.3333333333333333 [-]
	 SCS Opposite-Spin Scale   =       1.2000000000000000 [-]
	 SCS Same-Spin Energy      =      -0.1504236307256649 [Eh]
	 SCS Opposite-Spin Energy  =      -1.6838390906954797 [Eh]
	 SCS Correlation Energy    =      -1.8342627214211444 [Eh]
	 SCS Total Energy          =    -402.4741865751510659 [Eh]
	-----------------------------------------------------------

  Dipole Moment: [D]
     X:    -0.9560      Y:     1.7433      Z:    -0.0000     Total:     1.9882

*** Psi4 exiting successfully. Buy a developer a beer!
