                               Psi4 1.3.2 release

  ==> Input File <==

--------------------------------------------------------------------------
#psi4
#
memory 32 gb

molecule  {
0 1
  C       -2.6260010    -1.3181790     0.0001460
  C       -0.1785650    -0.3909870     0.0002200
  C       -1.6108320    -0.3269348    -0.0000988
  C        0.4037930     0.9065250    -0.0001510
  C       -1.8343220     1.1308500    -0.0000640
  C        2.0432510    -1.3188980     0.0000320
  C        2.5978260    -0.0201320    -0.0000760
  C        0.6688440    -1.5149670    -0.0002860
  C        1.7894520     1.1098640     0.0002960
  N       -0.6328400     1.8116850    -0.0001020
  H        2.7093930    -2.1785160    -0.0003580
  H        3.6789480     0.0978590     0.0002690
  H        0.2537760    -2.5213680    -0.0000660
  H        2.2194000     2.1097800     0.0002850
  H       -3.6376700    -0.9013790    -0.0001930
  H       -2.5281620    -1.9588410     0.8832840
  H       -2.7737480     1.6710560    -0.0003610
  H       -0.5326520     2.8176750    -0.0001200
  H       -2.5278290    -1.9594320    -0.8825300
units angstrom
no_reorient  #important for SAPT in psi4, default
symmetry c1  #important for SAPT in psi4, default
}

set PROPERTIES_ORIGIN ["COM"]
properties('MP2/aug-cc-pvtz', properties = ['dipole'])
--------------------------------------------------------------------------

    Molecular point group: c1
  Charge       = 0
  Multiplicity = 1
  Basis Set: AUG-CC-PVTZ
    Blend: AUG-CC-PVTZ
  Basis Set: (AUG-CC-PVTZ AUX)
    Blend: AUG-CC-PVTZ-JKFIT

    Orbital Energies [Eh]
    ---------------------

    Doubly Occupied:

       1A    -15.607001     2A    -11.275340     3A    -11.265717
       4A    -11.232849     5A    -11.230092     6A    -11.227932
       7A    -11.227688     8A    -11.224256     9A    -11.220550
      10A    -11.218679    11A     -1.289495    12A     -1.127652
      13A     -1.075601    14A     -1.000007    15A     -0.987848
      16A     -0.926611    17A     -0.838130    18A     -0.803507
      19A     -0.757000    20A     -0.721159    21A     -0.656859
      22A     -0.643124    23A     -0.608474    24A     -0.593504
      25A     -0.593253    26A     -0.569484    27A     -0.560270
      28A     -0.555595    29A     -0.524727    30A     -0.486933
      31A     -0.477883    32A     -0.462328    33A     -0.370122
      34A     -0.299857    35A     -0.264343

  @DF-RHF Final Energy:  -400.62128011578744

   => Energetics <=

    Nuclear Repulsion Energy =            482.5912918020536040
    One-Electron Energy =               -1498.5774041661481988
    Two-Electron Energy =                 615.3648322483071524
    Total Energy =                       -400.6212801157874992
  Basis Set: (AUG-CC-PVTZ AUX)
    Blend: AUG-CC-PVTZ-RI
    Molecular point group: c1

    Geometry (in Angstrom), charge = 0, multiplicity = 1:

       Center              X                  Y                   Z               Mass
    ------------   -----------------  -----------------  -----------------  -----------------
         C           -2.649015136765    -1.330459103693     0.000153616111    12.000000000000
         C           -0.201579136765    -0.403267103693     0.000227616111    12.000000000000
         C           -1.633846136765    -0.339214903693    -0.000091183889    12.000000000000
         C            0.380778863235     0.894244896307    -0.000143383889    12.000000000000
         C           -1.857336136765     1.118569896307    -0.000056383889    12.000000000000
         C            2.020236863235    -1.331178103693     0.000039616111    12.000000000000
         C            2.574811863235    -0.032412103693    -0.000068383889    12.000000000000
         C            0.645829863235    -1.527247103693    -0.000278383889    12.000000000000
         C            1.766437863235     1.097583896307     0.000303616111    12.000000000000
         N           -0.655854136765     1.799404896307    -0.000094383889    14.003074004430
         H            2.686378863235    -2.190796103693    -0.000350383889     1.007825032230
         H            3.655933863235     0.085578896307     0.000276616111     1.007825032230
         H            0.230761863235    -2.533648103693    -0.000058383889     1.007825032230
         H            2.196385863235     2.097499896307     0.000292616111     1.007825032230
         H           -3.660684136765    -0.913659103693    -0.000185383889     1.007825032230
         H           -2.551176136765    -1.971121103693     0.883291616111     1.007825032230
         H           -2.796762136765     1.658775896307    -0.000353383889     1.007825032230
         H           -0.555666136765     2.805394896307    -0.000112383889     1.007825032230
         H           -2.550843136765    -1.971712103693    -0.882522383889     1.007825032230

  Basis Set: AUG-CC-PVTZ
    Blend: AUG-CC-PVTZ
  Basis Set: (AUG-CC-PVTZ AUX)
    Blend: AUG-CC-PVTZ-JKFIT
	 Reference Energy          =    -400.6212801157874424 [Eh]
	 Singles Energy            =      -0.0000000000000000 [Eh]
	 Same-Spin Energy          =      -0.4541626954714205 [Eh]
	 Opposite-Spin Energy      =      -1.4080895845529149 [Eh]
	 Correlation Energy        =      -1.8622522800243355 [Eh]
	 Total Energy              =    -402.4835323958117783 [Eh]

	 ================> DF-SCS-MP2 Energies <==================
	-----------------------------------------------------------
	 SCS Same-Spin Scale       =       0.3333333333333333 [-]
	 SCS Opposite-Spin Scale   =       1.2000000000000000 [-]
	 SCS Same-Spin Energy      =      -0.1513875651571402 [Eh]
	 SCS Opposite-Spin Energy  =      -1.6897075014634979 [Eh]
	 SCS Correlation Energy    =      -1.8410950666206380 [Eh]
	 SCS Total Energy          =    -402.4623751824080955 [Eh]
	-----------------------------------------------------------

  Dipole Moment: [D]
     X:    -1.0067      Y:     1.7925      Z:    -0.0000     Total:     2.0559

*** Psi4 exiting successfully. Buy a developer a beer!
