                               Psi4 1.3.2 release

  ==> Input File <==

--------------------------------------------------------------------------
#psi4
#
memory 32 gb

molecule  {
0 1
  C       -2.6260010    -1.3181790     0.0001460
  C       -0.1785650    -0.3909870     0.0002200
  C       -1.6028750    -0.2271810    -0.0000330
  C        0.4213526     0.8103616    -0.0001954
  C       -1.8343220     1.1308500    -0.0000640
  C        2.0432510    -1.3188980     0.0000320
  C        2.5978260    -0.0201320    -0.0000760
  C        0.6688440    -1.5149670    -0.0002860
  C        1.7894520     1.1098640     0.0002960
  N       -0.6328400     1.8116850    -0.0001020
  H        2.7093930    -2.1785160    -0.0003580
  H        3.6789480     0.0978590     0.0002690
  H        0.2537760    -2.5213680    -0.0000660
  H        2.2194000     2.1097800     0.0002850
  H       -3.6376700    -0.9013790    -0.0001930
  H       -2.5281620    -1.9588410     0.8832840
  H       -2.7737480     1.6710560    -0.0003610
  H       -0.5326520     2.8176750    -0.0001200
  H       -2.5278290    -1.9594320    -0.8825300
units angstrom
no_reorient  #important for SAPT in psi4, default
symmetry c1  #important for SAPT in psi4, default
}

set PROPERTIES_ORIGIN ["COM"]
properties('MP2/aug-cc-pvtz', properties = ['dipole'])
--------------------------------------------------------------------------

    Molecular point group: c1
  Charge       = 0
  Multiplicity = 1
  Basis Set: AUG-CC-PVTZ
    Blend: AUG-CC-PVTZ
  Basis Set: (AUG-CC-PVTZ AUX)
    Blend: AUG-CC-PVTZ-JKFIT

    Orbital Energies [Eh]
    ---------------------

    Doubly Occupied:

       1A    -15.590572     2A    -11.264148     3A    -11.262277
       4A    -11.235366     5A    -11.232556     6A    -11.230577
       7A    -11.224159     8A    -11.220218     9A    -11.218197
      10A    -11.216876    11A     -1.273656    12A     -1.135073
      13A     -1.068966    14A     -0.998255    15A     -0.993611
      16A     -0.924405    17A     -0.836855    18A     -0.801951
      19A     -0.760757    20A     -0.713395    21A     -0.649125
      22A     -0.645478    23A     -0.616792    24A     -0.592732
      25A     -0.587494    26A     -0.562807    27A     -0.546514
      28A     -0.541106    29A     -0.525213    30A     -0.495312
      31A     -0.487548    32A     -0.465173    33A     -0.369623
      34A     -0.310549    35A     -0.275983

  @DF-RHF Final Energy:  -400.63020609526086

   => Energetics <=

    Nuclear Repulsion Energy =            483.9531540028889935
    One-Electron Energy =               -1501.4200819560167020
    Two-Electron Energy =                 616.8367218578667917
    Total Energy =                       -400.6302060952608599
  Basis Set: (AUG-CC-PVTZ AUX)
    Blend: AUG-CC-PVTZ-RI
    Molecular point group: c1

    Geometry (in Angstrom), charge = 0, multiplicity = 1:

       Center              X                  Y                   Z               Mass
    ------------   -----------------  -----------------  -----------------  -----------------
         C           -2.651351224546    -1.330787810871     0.000151656905    12.000000000000
         C           -0.203915224546    -0.403595810871     0.000225656905    12.000000000000
         C           -1.628225224546    -0.239789810871    -0.000027343095    12.000000000000
         C            0.396002375454     0.797752789129    -0.000189743095    12.000000000000
         C           -1.859672224546     1.118241189129    -0.000058343095    12.000000000000
         C            2.017900775454    -1.331506810871     0.000037656905    12.000000000000
         C            2.572475775454    -0.032740810871    -0.000070343095    12.000000000000
         C            0.643493775454    -1.527575810871    -0.000280343095    12.000000000000
         C            1.764101775454     1.097255189129     0.000301656905    12.000000000000
         N           -0.658190224546     1.799076189129    -0.000096343095    14.003074004430
         H            2.684042775454    -2.191124810871    -0.000352343095     1.007825032230
         H            3.653597775454     0.085250189129     0.000274656905     1.007825032230
         H            0.228425775454    -2.533976810871    -0.000060343095     1.007825032230
         H            2.194049775454     2.097171189129     0.000290656905     1.007825032230
         H           -3.663020224546    -0.913987810871    -0.000187343095     1.007825032230
         H           -2.553512224546    -1.971449810871     0.883289656905     1.007825032230
         H           -2.799098224546     1.658447189129    -0.000355343095     1.007825032230
         H           -0.558002224546     2.805066189129    -0.000114343095     1.007825032230
         H           -2.553179224546    -1.972040810871    -0.882524343095     1.007825032230

  Basis Set: AUG-CC-PVTZ
    Blend: AUG-CC-PVTZ
  Basis Set: (AUG-CC-PVTZ AUX)
    Blend: AUG-CC-PVTZ-JKFIT
	 Reference Energy          =    -400.6302060952608599 [Eh]
	 Singles Energy            =      -0.0000000000000000 [Eh]
	 Same-Spin Energy          =      -0.4509625905881745 [Eh]
	 Opposite-Spin Energy      =      -1.4041650109246129 [Eh]
	 Correlation Energy        =      -1.8551276015127873 [Eh]
	 Total Energy              =    -402.4853336967736368 [Eh]

	 ================> DF-SCS-MP2 Energies <==================
	-----------------------------------------------------------
	 SCS Same-Spin Scale       =       0.3333333333333333 [-]
	 SCS Opposite-Spin Scale   =       1.2000000000000000 [-]
	 SCS Same-Spin Energy      =      -0.1503208635293915 [Eh]
	 SCS Opposite-Spin Energy  =      -1.6849980131095355 [Eh]
	 SCS Correlation Energy    =      -1.8353188766389270 [Eh]
	 SCS Total Energy          =    -402.4655249718998107 [Eh]
	-----------------------------------------------------------

  Dipole Moment: [D]
     X:    -0.6592      Y:     1.6377      Z:    -0.0000     Total:     1.7654

*** Psi4 exiting successfully. Buy a developer a beer!
