                               Psi4 1.3.2 release

  ==> Input File <==

--------------------------------------------------------------------------
#psi4
#
memory 32 gb

molecule  {
0 1
  C       -2.6260010    -1.3181790     0.0001460
  C       -0.1785650    -0.3909870     0.0002200
  C       -1.5556214    -0.2182763    -0.0000340
  C        0.4037930     0.9065250    -0.0001510
  C       -1.8343220     1.1308500    -0.0000640
  C        2.0432510    -1.3188980     0.0000320
  C        2.5978260    -0.0201320    -0.0000760
  C        0.6688440    -1.5149670    -0.0002860
  C        1.7894520     1.1098640     0.0002960
  N       -0.6328400     1.8116850    -0.0001020
  H        2.7093930    -2.1785160    -0.0003580
  H        3.6789480     0.0978590     0.0002690
  H        0.2537760    -2.5213680    -0.0000660
  H        2.2194000     2.1097800     0.0002850
  H       -3.6376700    -0.9013790    -0.0001930
  H       -2.5281620    -1.9588410     0.8832840
  H       -2.7737480     1.6710560    -0.0003610
  H       -0.5326520     2.8176750    -0.0001200
  H       -2.5278290    -1.9594320    -0.8825300
units angstrom
no_reorient  #important for SAPT in psi4, default
symmetry c1  #important for SAPT in psi4, default
}

set PROPERTIES_ORIGIN ["COM"]
properties('MP2/aug-cc-pvtz', properties = ['dipole'])
--------------------------------------------------------------------------

    Molecular point group: c1
  Charge       = 0
  Multiplicity = 1
  Basis Set: AUG-CC-PVTZ
    Blend: AUG-CC-PVTZ
  Basis Set: (AUG-CC-PVTZ AUX)
    Blend: AUG-CC-PVTZ-JKFIT

    Orbital Energies [Eh]
    ---------------------

    Doubly Occupied:

       1A    -15.600941     2A    -11.264565     3A    -11.263610
       4A    -11.232232     5A    -11.230771     6A    -11.229314
       7A    -11.222476     8A    -11.221613     9A    -11.219969
      10A    -11.218177    11A     -1.294162    12A     -1.128025
      13A     -1.073042    14A     -0.996948    15A     -0.984403
      16A     -0.928504    17A     -0.840320    18A     -0.807428
      19A     -0.756234    20A     -0.719817    21A     -0.660958
      22A     -0.645928    23A     -0.602868    24A     -0.593296
      25A     -0.592257    26A     -0.570503    27A     -0.549300
      28A     -0.533706    29A     -0.529210    30A     -0.501149
      31A     -0.476019    32A     -0.463053    33A     -0.378950
      34A     -0.300181    35A     -0.275049

  @DF-RHF Final Energy:  -400.63681851947712

   => Energetics <=

    Nuclear Repulsion Energy =            483.8961567531970900
    One-Electron Energy =               -1501.2559915058993738
    Two-Electron Energy =                 616.7230162332251666
    Total Energy =                       -400.6368185194770604
  Basis Set: (AUG-CC-PVTZ AUX)
    Blend: AUG-CC-PVTZ-RI
    Molecular point group: c1

    Geometry (in Angstrom), charge = 0, multiplicity = 1:

       Center              X                  Y                   Z               Mass
    ------------   -----------------  -----------------  -----------------  -----------------
         C           -2.654069760343    -1.340406972691     0.000147683561    12.000000000000
         C           -0.206633760344    -0.413214972691     0.000221683561    12.000000000000
         C           -1.583690160344    -0.240504272691    -0.000032316439    12.000000000000
         C            0.375724239656     0.884297027309    -0.000149316439    12.000000000000
         C           -1.862390760344     1.108622027309    -0.000062316439    12.000000000000
         C            2.015182239657    -1.341125972691     0.000033683561    12.000000000000
         C            2.569757239656    -0.042359972691    -0.000074316439    12.000000000000
         C            0.640775239657    -1.537194972691    -0.000284316439    12.000000000000
         C            1.761383239657     1.087636027309     0.000297683561    12.000000000000
         N           -0.660908760343     1.789457027309    -0.000100316439    14.003074004430
         H            2.681324239656    -2.200743972691    -0.000356316439     1.007825032230
         H            3.650879239657     0.075631027309     0.000270683561     1.007825032230
         H            0.225707239656    -2.543595972691    -0.000064316439     1.007825032230
         H            2.191331239656     2.087552027309     0.000286683561     1.007825032230
         H           -3.665738760343    -0.923606972691    -0.000191316439     1.007825032230
         H           -2.556230760343    -1.981068972691     0.883285683561     1.007825032230
         H           -2.801816760343     1.648828027309    -0.000359316439     1.007825032230
         H           -0.560720760343     2.795447027309    -0.000118316439     1.007825032230
         H           -2.555897760344    -1.981659972691    -0.882528316439     1.007825032230

  Basis Set: AUG-CC-PVTZ
    Blend: AUG-CC-PVTZ
  Basis Set: (AUG-CC-PVTZ AUX)
    Blend: AUG-CC-PVTZ-JKFIT
	 Reference Energy          =    -400.6368185194771172 [Eh]
	 Singles Energy            =      -0.0000000000000000 [Eh]
	 Same-Spin Energy          =      -0.4521446528406532 [Eh]
	 Opposite-Spin Energy      =      -1.4047329143013829 [Eh]
	 Correlation Energy        =      -1.8568775671420361 [Eh]
	 Total Energy              =    -402.4936960866191384 [Eh]

	 ================> DF-SCS-MP2 Energies <==================
	-----------------------------------------------------------
	 SCS Same-Spin Scale       =       0.3333333333333333 [-]
	 SCS Opposite-Spin Scale   =       1.2000000000000000 [-]
	 SCS Same-Spin Energy      =      -0.1507148842802177 [Eh]
	 SCS Opposite-Spin Energy  =      -1.6856794971616595 [Eh]
	 SCS Correlation Energy    =      -1.8363943814418773 [Eh]
	 SCS Total Energy          =    -402.4732129009190089 [Eh]
	-----------------------------------------------------------

  Dipole Moment: [D]
     X:    -0.9500      Y:     1.8643      Z:    -0.0001     Total:     2.0924

*** Psi4 exiting successfully. Buy a developer a beer!
