                               Psi4 1.3.2 release

  ==> Input File <==

--------------------------------------------------------------------------
#psi4
#
memory 32 gb

molecule  {
0 1
  C       -2.6260010    -1.3181790     0.0001460
  C       -0.1785650    -0.3909870     0.0002200
  C       -1.7396857    -0.3730674    -0.0000091
  C        0.4037930     0.9065250    -0.0001510
  C       -1.8343220     1.1308500    -0.0000640
  C        2.0432510    -1.3188980     0.0000320
  C        2.5978260    -0.0201320    -0.0000760
  C        0.6688440    -1.5149670    -0.0002860
  C        1.7894520     1.1098640     0.0002960
  N       -0.6328400     1.8116850    -0.0001020
  H        2.7093930    -2.1785160    -0.0003580
  H        3.6789480     0.0978590     0.0002690
  H        0.2537760    -2.5213680    -0.0000660
  H        2.2194000     2.1097800     0.0002850
  H       -3.6376700    -0.9013790    -0.0001930
  H       -2.5281620    -1.9588410     0.8832840
  H       -2.7737480     1.6710560    -0.0003610
  H       -0.5326520     2.8176750    -0.0001200
  H       -2.5278290    -1.9594320    -0.8825300
units angstrom
no_reorient  #important for SAPT in psi4, default
symmetry c1  #important for SAPT in psi4, default
}

set PROPERTIES_ORIGIN ["COM"]
properties('MP2/aug-cc-pvtz', properties = ['dipole'])
--------------------------------------------------------------------------

    Molecular point group: c1
  Charge       = 0
  Multiplicity = 1
  Basis Set: AUG-CC-PVTZ
    Blend: AUG-CC-PVTZ
  Basis Set: (AUG-CC-PVTZ AUX)
    Blend: AUG-CC-PVTZ-JKFIT

    Orbital Energies [Eh]
    ---------------------

    Doubly Occupied:

       1A    -15.606258     2A    -11.281548     3A    -11.268379
       4A    -11.238953     5A    -11.232856     6A    -11.232567
       7A    -11.228569     8A    -11.227204     9A    -11.219614
      10A    -11.212829    11A     -1.285568    12A     -1.126245
      13A     -1.093086    14A     -1.006968    15A     -0.986496
      16A     -0.924767    17A     -0.836132    18A     -0.795335
      19A     -0.753698    20A     -0.722478    21A     -0.655211
      22A     -0.644046    23A     -0.615013    24A     -0.601292
      25A     -0.593623    26A     -0.584129    27A     -0.572577
      28A     -0.560752    29A     -0.523032    30A     -0.489598
      31A     -0.462425    32A     -0.444404    33A     -0.358156
      34A     -0.297051    35A     -0.264280

  @DF-RHF Final Energy:  -400.56968249796608

   => Energetics <=

    Nuclear Repulsion Energy =            481.1326066713616001
    One-Electron Energy =               -1495.5142975355342969
    Two-Electron Energy =                 613.8120083662065554
    Total Energy =                       -400.5696824979661415
  Basis Set: (AUG-CC-PVTZ AUX)
    Blend: AUG-CC-PVTZ-RI
    Molecular point group: c1

    Geometry (in Angstrom), charge = 0, multiplicity = 1:

       Center              X                  Y                   Z               Mass
    ------------   -----------------  -----------------  -----------------  -----------------
         C           -2.637218363136    -1.326235586331     0.000145403924    12.000000000000
         C           -0.189782363136    -0.399043586331     0.000219403924    12.000000000000
         C           -1.750903063136    -0.381123986331    -0.000009696076    12.000000000000
         C            0.392575636864     0.898468413669    -0.000151596076    12.000000000000
         C           -1.845539363136     1.122793413669    -0.000064596076    12.000000000000
         C            2.032033636864    -1.326954586331     0.000031403924    12.000000000000
         C            2.586608636864    -0.028188586331    -0.000076596076    12.000000000000
         C            0.657626636864    -1.523023586331    -0.000286596076    12.000000000000
         C            1.778234636864     1.101807413669     0.000295403924    12.000000000000
         N           -0.644057363136     1.803628413669    -0.000102596076    14.003074004430
         H            2.698175636864    -2.186572586331    -0.000358596076     1.007825032230
         H            3.667730636864     0.089802413669     0.000268403924     1.007825032230
         H            0.242558636864    -2.529424586331    -0.000066596076     1.007825032230
         H            2.208182636864     2.101723413669     0.000284403924     1.007825032230
         H           -3.648887363136    -0.909435586331    -0.000193596076     1.007825032230
         H           -2.539379363136    -1.966897586331     0.883283403924     1.007825032230
         H           -2.784965363136     1.662999413669    -0.000361596076     1.007825032230
         H           -0.543869363136     2.809618413669    -0.000120596076     1.007825032230
         H           -2.539046363136    -1.967488586331    -0.882530596076     1.007825032230

  Basis Set: AUG-CC-PVTZ
    Blend: AUG-CC-PVTZ
  Basis Set: (AUG-CC-PVTZ AUX)
    Blend: AUG-CC-PVTZ-JKFIT
	 Reference Energy          =    -400.5696824979660846 [Eh]
	 Singles Energy            =      -0.0000000000000000 [Eh]
	 Same-Spin Energy          =      -0.4557824087155170 [Eh]
	 Opposite-Spin Energy      =      -1.4110364112162341 [Eh]
	 Correlation Energy        =      -1.8668188199317512 [Eh]
	 Total Energy              =    -402.4365013178978643 [Eh]

	 ================> DF-SCS-MP2 Energies <==================
	-----------------------------------------------------------
	 SCS Same-Spin Scale       =       0.3333333333333333 [-]
	 SCS Opposite-Spin Scale   =       1.2000000000000000 [-]
	 SCS Same-Spin Energy      =      -0.1519274695718390 [Eh]
	 SCS Opposite-Spin Energy  =      -1.6932436934594810 [Eh]
	 SCS Correlation Energy    =      -1.8451711630313201 [Eh]
	 SCS Total Energy          =    -402.4148536609973803 [Eh]
	-----------------------------------------------------------

  Dipole Moment: [D]
     X:    -1.0166      Y:     1.6257      Z:    -0.0001     Total:     1.9174

*** Psi4 exiting successfully. Buy a developer a beer!
