                               Psi4 1.3.2 release

  ==> Input File <==

--------------------------------------------------------------------------
#psi4
#
memory 32 gb

molecule  {
0 1
  C       -2.6260010    -1.3181790     0.0001460
  C       -0.1785650    -0.3909870     0.0002200
  C       -1.6028750    -0.2271810    -0.0000330
  C        0.4037930     0.9065250    -0.0001510
  C       -1.8343220     1.1308500    -0.0000640
  C        2.0432510    -1.3188980     0.0000320
  C        2.7305460    -0.0852156    -0.0000290
  C        0.6688440    -1.5149670    -0.0002860
  C        1.7894520     1.1098640     0.0002960
  N       -0.6328400     1.8116850    -0.0001020
  H        2.7093930    -2.1785160    -0.0003580
  H        3.6789480     0.0978590     0.0002690
  H        0.2537760    -2.5213680    -0.0000660
  H        2.2194000     2.1097800     0.0002850
  H       -3.6376700    -0.9013790    -0.0001930
  H       -2.5281620    -1.9588410     0.8832840
  H       -2.7737480     1.6710560    -0.0003610
  H       -0.5326520     2.8176750    -0.0001200
  H       -2.5278290    -1.9594320    -0.8825300
units angstrom
no_reorient  #important for SAPT in psi4, default
symmetry c1  #important for SAPT in psi4, default
}

set PROPERTIES_ORIGIN ["COM"]
properties('MP2/aug-cc-pvtz', properties = ['dipole'])
--------------------------------------------------------------------------

    Molecular point group: c1
  Charge       = 0
  Multiplicity = 1
  Basis Set: AUG-CC-PVTZ
    Blend: AUG-CC-PVTZ
  Basis Set: (AUG-CC-PVTZ AUX)
    Blend: AUG-CC-PVTZ-JKFIT

    Orbital Energies [Eh]
    ---------------------

    Doubly Occupied:

       1A    -15.599338     2A    -11.270130     3A    -11.266595
       4A    -11.243163     5A    -11.232522     6A    -11.230040
       7A    -11.227358     8A    -11.224935     9A    -11.223417
      10A    -11.222425    11A     -1.292959    12A     -1.117752
      13A     -1.069752    14A     -0.994322    15A     -0.983928
      16A     -0.932109    17A     -0.843005    18A     -0.810070
      19A     -0.755747    20A     -0.722358    21A     -0.674481
      22A     -0.639778    23A     -0.606049    24A     -0.592414
      25A     -0.590711    26A     -0.568275    27A     -0.555962
      28A     -0.551697    29A     -0.532627    30A     -0.490032
      31A     -0.469867    32A     -0.456433    33A     -0.368948
      34A     -0.303323    35A     -0.271210

  @DF-RHF Final Energy:  -400.60944475520097

   => Energetics <=

    Nuclear Repulsion Energy =            480.8115793326753078
    One-Electron Energy =               -1494.9745861722299196
    Two-Electron Energy =                 613.5535620843535298
    Total Energy =                       -400.6094447552010251
  Basis Set: (AUG-CC-PVTZ AUX)
    Blend: AUG-CC-PVTZ-RI
    Molecular point group: c1

    Geometry (in Angstrom), charge = 0, multiplicity = 1:

       Center              X                  Y                   Z               Mass
    ------------   -----------------  -----------------  -----------------  -----------------
         C           -2.661894353457    -1.333633218997     0.000143289080    12.000000000000
         C           -0.214458353457    -0.406441218997     0.000217289080    12.000000000000
         C           -1.638768353457    -0.242635218997    -0.000035710920    12.000000000000
         C            0.367899646543     0.891070781003    -0.000153710920    12.000000000000
         C           -1.870215353457     1.115395781003    -0.000066710920    12.000000000000
         C            2.007357646543    -1.334352218997     0.000029289080    12.000000000000
         C            2.694652646543    -0.100669818997    -0.000031710920    12.000000000000
         C            0.632950646543    -1.530421218997    -0.000288710920    12.000000000000
         C            1.753558646543     1.094409781003     0.000293289080    12.000000000000
         N           -0.668733353457     1.796230781003    -0.000104710920    14.003074004430
         H            2.673499646543    -2.193970218997    -0.000360710920     1.007825032230
         H            3.643054646543     0.082404781003     0.000266289080     1.007825032230
         H            0.217882646543    -2.536822218997    -0.000068710920     1.007825032230
         H            2.183506646543     2.094325781003     0.000282289080     1.007825032230
         H           -3.673563353457    -0.916833218997    -0.000195710920     1.007825032230
         H           -2.564055353457    -1.974295218997     0.883281289080     1.007825032230
         H           -2.809641353457     1.655601781003    -0.000363710920     1.007825032230
         H           -0.568545353457     2.802220781003    -0.000122710920     1.007825032230
         H           -2.563722353457    -1.974886218997    -0.882532710920     1.007825032230

  Basis Set: AUG-CC-PVTZ
    Blend: AUG-CC-PVTZ
  Basis Set: (AUG-CC-PVTZ AUX)
    Blend: AUG-CC-PVTZ-JKFIT
	 Reference Energy          =    -400.6094447552009683 [Eh]
	 Singles Energy            =      -0.0000000000000000 [Eh]
	 Same-Spin Energy          =      -0.4522822121911690 [Eh]
	 Opposite-Spin Energy      =      -1.4065744529063715 [Eh]
	 Correlation Energy        =      -1.8588566650975404 [Eh]
	 Total Energy              =    -402.4683014202985305 [Eh]

	 ================> DF-SCS-MP2 Energies <==================
	-----------------------------------------------------------
	 SCS Same-Spin Scale       =       0.3333333333333333 [-]
	 SCS Opposite-Spin Scale   =       1.2000000000000000 [-]
	 SCS Same-Spin Energy      =      -0.1507607373970563 [Eh]
	 SCS Opposite-Spin Energy  =      -1.6878893434876459 [Eh]
	 SCS Correlation Energy    =      -1.8386500808847022 [Eh]
	 SCS Total Energy          =    -402.4480948360856587 [Eh]
	-----------------------------------------------------------

  Dipole Moment: [D]
     X:    -1.0619      Y:     1.7922      Z:    -0.0001     Total:     2.0832

*** Psi4 exiting successfully. Buy a developer a beer!
