                               Psi4 1.3.2 release

  ==> Input File <==

--------------------------------------------------------------------------
#psi4
#
memory 32 gb

molecule  {
0 1
  C       -2.6260010    -1.3181790     0.0001460
  C       -0.1785650    -0.3909870     0.0002200
  C       -1.6028750    -0.2271810    -0.0000330
  C        0.3810596     0.9164909    -0.0001372
  C       -1.8343220     1.1308500    -0.0000640
  C        2.0432510    -1.3188980     0.0000320
  C        2.5978260    -0.0201320    -0.0000760
  C        0.6688440    -1.5149670    -0.0002860
  C        1.7894520     1.1098640     0.0002960
  N       -0.6328400     1.8116850    -0.0001020
  H        2.7093930    -2.1785160    -0.0003580
  H        3.6789480     0.0978590     0.0002690
  H        0.2537760    -2.5213680    -0.0000660
  H        2.2194000     2.1097800     0.0002850
  H       -3.6376700    -0.9013790    -0.0001930
  H       -2.5281620    -1.9588410     0.8832840
  H       -2.7737480     1.6710560    -0.0003610
  H       -0.5326520     2.8176750    -0.0001200
  H       -2.5278290    -1.9594320    -0.8825300
units angstrom
no_reorient  #important for SAPT in psi4, default
symmetry c1  #important for SAPT in psi4, default
}

set PROPERTIES_ORIGIN ["COM"]
properties('MP2/aug-cc-pvtz', properties = ['dipole'])
--------------------------------------------------------------------------

    Molecular point group: c1
  Charge       = 0
  Multiplicity = 1
  Basis Set: AUG-CC-PVTZ
    Blend: AUG-CC-PVTZ
  Basis Set: (AUG-CC-PVTZ AUX)
    Blend: AUG-CC-PVTZ-JKFIT

    Orbital Energies [Eh]
    ---------------------

    Doubly Occupied:

       1A    -15.601926     2A    -11.265668     3A    -11.263151
       4A    -11.233080     5A    -11.230903     6A    -11.229581
       7A    -11.223126     8A    -11.221540     9A    -11.220518
      10A    -11.220275    11A     -1.299170    12A     -1.125167
      13A     -1.072516    14A     -0.994860    15A     -0.985734
      16A     -0.932458    17A     -0.840467    18A     -0.802696
      19A     -0.755638    20A     -0.722405    21A     -0.662694
      22A     -0.644244    23A     -0.600582    24A     -0.594394
      25A     -0.593476    26A     -0.569499    27A     -0.552805
      28A     -0.542449    29A     -0.530118    30A     -0.498036
      31A     -0.473467    32A     -0.462327    33A     -0.374198
      34A     -0.295701    35A     -0.279335

  @DF-RHF Final Energy:  -400.63945697537514

   => Energetics <=

    Nuclear Repulsion Energy =            483.3268073084827279
    One-Electron Energy =               -1500.1041236984774514
    Two-Electron Energy =                 616.1378594146194700
    Total Energy =                       -400.6394569753751966
  Basis Set: (AUG-CC-PVTZ AUX)
    Blend: AUG-CC-PVTZ-RI
    Molecular point group: c1

    Geometry (in Angstrom), charge = 0, multiplicity = 1:

       Center              X                  Y                   Z               Mass
    ------------   -----------------  -----------------  -----------------  -----------------
         C           -2.647662332416    -1.340504127341     0.000146328596    12.000000000000
         C           -0.200226332416    -0.413312127341     0.000220328596    12.000000000000
         C           -1.624536332416    -0.249506127341    -0.000032671404    12.000000000000
         C            0.359398267584     0.894165772659    -0.000136871404    12.000000000000
         C           -1.855983332416     1.108524872659    -0.000063671404    12.000000000000
         C            2.021589667584    -1.341223127341     0.000032328596    12.000000000000
         C            2.576164667584    -0.042457127341    -0.000075671404    12.000000000000
         C            0.647182667584    -1.537292127341    -0.000285671404    12.000000000000
         C            1.767790667584     1.087538872659     0.000296328596    12.000000000000
         N           -0.654501332416     1.789359872659    -0.000101671404    14.003074004430
         H            2.687731667584    -2.200841127341    -0.000357671404     1.007825032230
         H            3.657286667584     0.075533872659     0.000269328596     1.007825032230
         H            0.232114667584    -2.543693127341    -0.000065671404     1.007825032230
         H            2.197738667584     2.087454872659     0.000285328596     1.007825032230
         H           -3.659331332416    -0.923704127341    -0.000192671404     1.007825032230
         H           -2.549823332416    -1.981166127341     0.883284328596     1.007825032230
         H           -2.795409332416     1.648730872659    -0.000360671404     1.007825032230
         H           -0.554313332416     2.795349872659    -0.000119671404     1.007825032230
         H           -2.549490332416    -1.981757127341    -0.882529671404     1.007825032230

  Basis Set: AUG-CC-PVTZ
    Blend: AUG-CC-PVTZ
  Basis Set: (AUG-CC-PVTZ AUX)
    Blend: AUG-CC-PVTZ-JKFIT
	 Reference Energy          =    -400.6394569753751398 [Eh]
	 Singles Energy            =      -0.0000000000000000 [Eh]
	 Same-Spin Energy          =      -0.4516754516443552 [Eh]
	 Opposite-Spin Energy      =      -1.4040908920129644 [Eh]
	 Correlation Energy        =      -1.8557663436573195 [Eh]
	 Total Energy              =    -402.4952233190324478 [Eh]

	 ================> DF-SCS-MP2 Energies <==================
	-----------------------------------------------------------
	 SCS Same-Spin Scale       =       0.3333333333333333 [-]
	 SCS Opposite-Spin Scale   =       1.2000000000000000 [-]
	 SCS Same-Spin Energy      =      -0.1505584838814517 [Eh]
	 SCS Opposite-Spin Energy  =      -1.6849090704155574 [Eh]
	 SCS Correlation Energy    =      -1.8354675542970091 [Eh]
	 SCS Total Energy          =    -402.4749245296721369 [Eh]
	-----------------------------------------------------------

  Dipole Moment: [D]
     X:    -1.0001      Y:     1.8514      Z:    -0.0001     Total:     2.1042

*** Psi4 exiting successfully. Buy a developer a beer!
