                               Psi4 1.4a3.dev225

  ==> Input File <==

--------------------------------------------------------------------------
#psi4
#
memory 32 gb

molecule  {
0 1
  C       -2.6260070    -1.3181640     0.0000030
  C       -0.1785920    -0.3910100    -0.0000140
  C       -1.6028860    -0.2271800    -0.0000070
  C        0.4037990     0.9065080    -0.0000120
  C       -1.8343130     1.1308630     0.0000070
  C        2.0432640    -1.3188820     0.0000040
  C        2.5978420    -0.0201300     0.0000040
  C        0.6688530    -1.5149630     0.0000000
  C        1.7894440     1.1098670     0.0000020
  N       -0.6328500     1.8116730     0.0000060
  H        2.7093900    -2.1785170     0.0000140
  H        3.6789570     0.0979150     0.0000120
  H        0.2538510    -2.5213940    -0.0000090
  H        2.2273168     2.1281433    -0.0000214
  H       -3.6376970    -0.9014040    -0.0000240
  H       -2.5280300    -1.9591080     0.8829250
  H       -2.7737400     1.6710680     0.0000050
  H       -0.5326180     2.8176610     0.0000030
  H       -2.5279980    -1.9591520    -0.8828820
units angstrom
no_reorient  #important for SAPT in psi4, default
symmetry c1  #important for SAPT in psi4, default
}

set PROPERTIES_ORIGIN ["COM"]
properties('MP2/aug-cc-pvtz', properties = ['dipole'])
--------------------------------------------------------------------------

    Molecular point group: c1
  Charge       = 0
  Multiplicity = 1
  Basis Set: AUG-CC-PVTZ
    Blend: AUG-CC-PVTZ
  Basis Set: (AUG-CC-PVTZ AUX)
    Blend: AUG-CC-PVTZ-JKFIT

    Orbital Energies [Eh]
    ---------------------

    Doubly Occupied:

       1A    -15.599977     2A    -11.265485     3A    -11.264613
       4A    -11.234118     5A    -11.230719     6A    -11.229719
       7A    -11.222819     8A    -11.221921     9A    -11.221420
      10A    -11.221207    11A     -1.291732    12A     -1.127023
      13A     -1.072040    14A     -0.996880    15A     -0.985785
      16A     -0.930994    17A     -0.838331    18A     -0.804030
      19A     -0.755109    20A     -0.719626    21A     -0.659440
      22A     -0.644166    23A     -0.602571    24A     -0.592010
      25A     -0.591409    26A     -0.569805    27A     -0.551433
      28A     -0.542309    29A     -0.529815    30A     -0.497599
      31A     -0.475143    32A     -0.463171    33A     -0.374629
      34A     -0.298754    35A     -0.277800

  @DF-RHF Final Energy:  -400.63953131554018

   => Energetics <=

    Nuclear Repulsion Energy =            483.1553412328305512
    One-Electron Energy =               -1499.7825436699170041
    Two-Electron Energy =                 615.9876711215463274
    Total Energy =                       -400.6395313155401254
  Basis Set: (AUG-CC-PVTZ AUX)
    Blend: AUG-CC-PVTZ-RI
    Molecular point group: c1

    Geometry (in Angstrom), charge = 0, multiplicity = 1:

       Center              X                  Y                   Z               Mass
    ------------   -----------------  -----------------  -----------------  -----------------
         C           -2.649809962735    -1.339718042975     0.000003375398    12.000000000000
         C           -0.202394962735    -0.412564042975    -0.000013624602    12.000000000000
         C           -1.626688962735    -0.248734042975    -0.000006624602    12.000000000000
         C            0.379996037265     0.884953957025    -0.000011624602    12.000000000000
         C           -1.858115962735     1.109308957025     0.000007375398    12.000000000000
         C            2.019461037265    -1.340436042975     0.000004375398    12.000000000000
         C            2.574039037265    -0.041684042975     0.000004375398    12.000000000000
         C            0.645050037265    -1.536517042975     0.000000375398    12.000000000000
         C            1.765641037265     1.088312957025     0.000002375398    12.000000000000
         N           -0.656652962735     1.790118957025     0.000006375398    14.003074004430
         H            2.685587037265    -2.200071042975     0.000014375398     1.007825032230
         H            3.655154037265     0.076360957025     0.000012375398     1.007825032230
         H            0.230048037265    -2.542948042975    -0.000008624602     1.007825032230
         H            2.203513837265     2.106589257025    -0.000021024602     1.007825032230
         H           -3.661499962735    -0.922958042975    -0.000023624602     1.007825032230
         H           -2.551832962735    -1.980662042975     0.882925375398     1.007825032230
         H           -2.797542962735     1.649513957025     0.000005375398     1.007825032230
         H           -0.556420962735     2.796106957025     0.000003375398     1.007825032230
         H           -2.551800962735    -1.980706042975    -0.882881624602     1.007825032230

  Basis Set: AUG-CC-PVTZ
    Blend: AUG-CC-PVTZ
  Basis Set: (AUG-CC-PVTZ AUX)
    Blend: AUG-CC-PVTZ-JKFIT
	 Reference Energy          =    -400.6395313155401823 [Eh]
	 Singles Energy            =      -0.0000000000000000 [Eh]
	 Same-Spin Energy          =      -0.4517331888993264 [Eh]
	 Opposite-Spin Energy      =      -1.4042870981829219 [Eh]
	 Correlation Energy        =      -1.8560202870822482 [Eh]
	 Total Energy              =    -402.4955516026224132 [Eh]

	 ================> DF-SCS-MP2 Energies <==================
	-----------------------------------------------------------
	 SCS Same-Spin Scale       =       0.3333333333333333 [-]
	 SCS Opposite-Spin Scale   =       1.2000000000000000 [-]
	 SCS Same-Spin Energy      =      -0.1505777296331088 [Eh]
	 SCS Opposite-Spin Energy  =      -1.6851445178195061 [Eh]
	 SCS Correlation Energy    =      -1.8357222474526149 [Eh]
	 SCS Total Energy          =    -402.4752535629928047 [Eh]
	-----------------------------------------------------------

  Dipole Moment: [D]
     X:    -0.9619      Y:     1.7972      Z:    -0.0000     Total:     2.0384

*** Psi4 exiting successfully. Buy a developer a beer!
