                               Psi4 1.3.2 release

  ==> Input File <==

--------------------------------------------------------------------------
#psi4
#
memory 32 gb

molecule  {
0 1
  C       -2.6448857    -1.3001568     0.0001476
  C       -0.1785650    -0.3909870     0.0002200
  C       -1.6028750    -0.2271810    -0.0000330
  C        0.4037930     0.9065250    -0.0001510
  C       -1.8343220     1.1308500    -0.0000640
  C        2.0432510    -1.3188980     0.0000320
  C        2.5978260    -0.0201320    -0.0000760
  C        0.6688440    -1.5149670    -0.0002860
  C        1.7894520     1.1098640     0.0002960
  N       -0.6328400     1.8116850    -0.0001020
  H        2.7093930    -2.1785160    -0.0003580
  H        3.6789480     0.0978590     0.0002690
  H        0.2537760    -2.5213680    -0.0000660
  H        2.2194000     2.1097800     0.0002850
  H       -3.6376700    -0.9013790    -0.0001930
  H       -2.5281620    -1.9588410     0.8832840
  H       -2.7737480     1.6710560    -0.0003610
  H       -0.5326520     2.8176750    -0.0001200
  H       -2.5278290    -1.9594320    -0.8825300
units angstrom
no_reorient  #important for SAPT in psi4, default
symmetry c1  #important for SAPT in psi4, default
}

set PROPERTIES_ORIGIN ["COM"]
properties('MP2/aug-cc-pvtz', properties = ['dipole'])
--------------------------------------------------------------------------

    Molecular point group: c1
  Charge       = 0
  Multiplicity = 1
  Basis Set: AUG-CC-PVTZ
    Blend: AUG-CC-PVTZ
  Basis Set: (AUG-CC-PVTZ AUX)
    Blend: AUG-CC-PVTZ-JKFIT

    Orbital Energies [Eh]
    ---------------------

    Doubly Occupied:

       1A    -15.599734     2A    -11.265471     3A    -11.263952
       4A    -11.231935     5A    -11.230755     6A    -11.229548
       7A    -11.223001     8A    -11.222124     9A    -11.221507
      10A    -11.221098    11A     -1.291571    12A     -1.127046
      13A     -1.072158    14A     -0.997436    15A     -0.986125
      16A     -0.930536    17A     -0.839002    18A     -0.804091
      19A     -0.755978    20A     -0.719942    21A     -0.660062
      22A     -0.644638    23A     -0.605139    24A     -0.592826
      25A     -0.590372    26A     -0.572347    27A     -0.546148
      28A     -0.540956    29A     -0.531921    30A     -0.498351
      31A     -0.477454    32A     -0.463073    33A     -0.374050
      34A     -0.298686    35A     -0.277431

  @DF-RHF Final Energy:  -400.63951976457042

   => Energetics <=

    Nuclear Repulsion Energy =            483.1911461605590148
    One-Electron Energy =               -1499.8483997233352056
    Two-Electron Energy =                 616.0177337982057679
    Total Energy =                       -400.6395197645704229
  Basis Set: (AUG-CC-PVTZ AUX)
    Blend: AUG-CC-PVTZ-RI
    Molecular point group: c1

    Geometry (in Angstrom), charge = 0, multiplicity = 1:

       Center              X                  Y                   Z               Mass
    ------------   -----------------  -----------------  -----------------  -----------------
         C           -2.666899387394    -1.323219495198     0.000149045527    12.000000000000
         C           -0.200578687394    -0.414049695198     0.000221445527    12.000000000000
         C           -1.624888687394    -0.250243695198    -0.000031554473    12.000000000000
         C            0.381779312606     0.883462304802    -0.000149554473    12.000000000000
         C           -1.856335687394     1.107787304802    -0.000062554473    12.000000000000
         C            2.021237312606    -1.341960695198     0.000033445527    12.000000000000
         C            2.575812312606    -0.043194695198    -0.000074554473    12.000000000000
         C            0.646830312606    -1.538029695198    -0.000284554473    12.000000000000
         C            1.767438312606     1.086801304802     0.000297445527    12.000000000000
         N           -0.654853687394     1.788622304802    -0.000100554473    14.003074004430
         H            2.687379312606    -2.201578695198    -0.000356554473     1.007825032230
         H            3.656934312606     0.074796304802     0.000270445527     1.007825032230
         H            0.231762312606    -2.544430695198    -0.000064554473     1.007825032230
         H            2.197386312606     2.086717304802     0.000286445527     1.007825032230
         H           -3.659683687394    -0.924441695198    -0.000191554473     1.007825032230
         H           -2.550175687394    -1.981903695198     0.883285445527     1.007825032230
         H           -2.795761687394     1.647993304802    -0.000359554473     1.007825032230
         H           -0.554665687394     2.794612304802    -0.000118554473     1.007825032230
         H           -2.549842687394    -1.982494695198    -0.882528554473     1.007825032230

  Basis Set: AUG-CC-PVTZ
    Blend: AUG-CC-PVTZ
  Basis Set: (AUG-CC-PVTZ AUX)
    Blend: AUG-CC-PVTZ-JKFIT
	 Reference Energy          =    -400.6395197645704229 [Eh]
	 Singles Energy            =      -0.0000000000000000 [Eh]
	 Same-Spin Energy          =      -0.4516861764007100 [Eh]
	 Opposite-Spin Energy      =      -1.4041256488725331 [Eh]
	 Correlation Energy        =      -1.8558118252732432 [Eh]
	 Total Energy              =    -402.4953315898436585 [Eh]

	 ================> DF-SCS-MP2 Energies <==================
	-----------------------------------------------------------
	 SCS Same-Spin Scale       =       0.3333333333333333 [-]
	 SCS Opposite-Spin Scale   =       1.2000000000000000 [-]
	 SCS Same-Spin Energy      =      -0.1505620588002367 [Eh]
	 SCS Opposite-Spin Energy  =      -1.6849507786470397 [Eh]
	 SCS Correlation Energy    =      -1.8355128374472764 [Eh]
	 SCS Total Energy          =    -402.4750326020176772 [Eh]
	-----------------------------------------------------------

  Dipole Moment: [D]
     X:    -0.9644      Y:     1.8115      Z:    -0.0001     Total:     2.0522

*** Psi4 exiting successfully. Buy a developer a beer!
