                               Psi4 1.3.2 release

  ==> Input File <==

--------------------------------------------------------------------------
#psi4
#
memory 32 gb

molecule  {
0 1
  C       -2.6260010    -1.3181790     0.0001460
  C       -0.1785650    -0.3909870     0.0002200
  C       -1.6121948    -0.3769593    -0.0001311
  C        0.4037930     0.9065250    -0.0001510
  C       -1.8343220     1.1308500    -0.0000640
  C        2.0432510    -1.3188980     0.0000320
  C        2.5978260    -0.0201320    -0.0000760
  C        0.6688440    -1.5149670    -0.0002860
  C        1.7894520     1.1098640     0.0002960
  N       -0.6328400     1.8116850    -0.0001020
  H        2.7093930    -2.1785160    -0.0003580
  H        3.6789480     0.0978590     0.0002690
  H        0.2537760    -2.5213680    -0.0000660
  H        2.2194000     2.1097800     0.0002850
  H       -3.6376700    -0.9013790    -0.0001930
  H       -2.5281620    -1.9588410     0.8832840
  H       -2.7737480     1.6710560    -0.0003610
  H       -0.5326520     2.8176750    -0.0001200
  H       -2.5278290    -1.9594320    -0.8825300
units angstrom
no_reorient  #important for SAPT in psi4, default
symmetry c1  #important for SAPT in psi4, default
}

set PROPERTIES_ORIGIN ["COM"]
properties('MP2/aug-cc-pvtz', properties = ['dipole'])
--------------------------------------------------------------------------

    Molecular point group: c1
  Charge       = 0
  Multiplicity = 1
  Basis Set: AUG-CC-PVTZ
    Blend: AUG-CC-PVTZ
  Basis Set: (AUG-CC-PVTZ AUX)
    Blend: AUG-CC-PVTZ-JKFIT

    Orbital Energies [Eh]
    ---------------------

    Doubly Occupied:

       1A    -15.610394     2A    -11.279595     3A    -11.265869
       4A    -11.233916     5A    -11.233338     6A    -11.227055
       7A    -11.226604     8A    -11.225457     9A    -11.220239
      10A    -11.217456    11A     -1.288935    12A     -1.128107
      13A     -1.079147    14A     -1.002169    15A     -0.989113
      16A     -0.923536    17A     -0.837894    18A     -0.803917
      19A     -0.756810    20A     -0.721590    21A     -0.655528
      22A     -0.643331    23A     -0.611473    24A     -0.595346
      25A     -0.593382    26A     -0.571323    27A     -0.567483
      28A     -0.557675    29A     -0.522214    30A     -0.487211
      31A     -0.469190    32A     -0.462070    33A     -0.368416
      34A     -0.300445    35A     -0.257617

  @DF-RHF Final Energy:  -400.60277881331353

   => Energetics <=

    Nuclear Repulsion Energy =            482.3301286783673163
    One-Electron Energy =               -1497.9981192872296560
    Two-Electron Energy =                 615.0652117955487483
    Total Energy =                       -400.6027788133135346
  Basis Set: (AUG-CC-PVTZ AUX)
    Blend: AUG-CC-PVTZ-RI
    Molecular point group: c1

    Geometry (in Angstrom), charge = 0, multiplicity = 1:

       Center              X                  Y                   Z               Mass
    ------------   -----------------  -----------------  -----------------  -----------------
         C           -2.648890370126    -1.325879276320     0.000156573230    12.000000000000
         C           -0.201454370126    -0.398687276320     0.000230573230    12.000000000000
         C           -1.635084170126    -0.384659576320    -0.000120526770    12.000000000000
         C            0.380903629874     0.898824723680    -0.000140426770    12.000000000000
         C           -1.857211370126     1.123149723680    -0.000053426770    12.000000000000
         C            2.020361629874    -1.326598276320     0.000042573230    12.000000000000
         C            2.574936629874    -0.027832276320    -0.000065426770    12.000000000000
         C            0.645954629874    -1.522667276320    -0.000275426770    12.000000000000
         C            1.766562629874     1.102163723680     0.000306573230    12.000000000000
         N           -0.655729370126     1.803984723680    -0.000091426770    14.003074004430
         H            2.686503629874    -2.186216276320    -0.000347426770     1.007825032230
         H            3.656058629874     0.090158723680     0.000279573230     1.007825032230
         H            0.230886629874    -2.529068276320    -0.000055426770     1.007825032230
         H            2.196510629874     2.102079723680     0.000295573230     1.007825032230
         H           -3.660559370126    -0.909079276320    -0.000182426770     1.007825032230
         H           -2.551051370126    -1.966541276320     0.883294573230     1.007825032230
         H           -2.796637370126     1.663355723680    -0.000350426770     1.007825032230
         H           -0.555541370126     2.809974723680    -0.000109426770     1.007825032230
         H           -2.550718370126    -1.967132276320    -0.882519426770     1.007825032230

  Basis Set: AUG-CC-PVTZ
    Blend: AUG-CC-PVTZ
  Basis Set: (AUG-CC-PVTZ AUX)
    Blend: AUG-CC-PVTZ-JKFIT
	 Reference Energy          =    -400.6027788133135346 [Eh]
	 Singles Energy            =      -0.0000000000000000 [Eh]
	 Same-Spin Energy          =      -0.4556884841186696 [Eh]
	 Opposite-Spin Energy      =      -1.4105997690786127 [Eh]
	 Correlation Energy        =      -1.8662882531972822 [Eh]
	 Total Energy              =    -402.4690670665108314 [Eh]

	 ================> DF-SCS-MP2 Energies <==================
	-----------------------------------------------------------
	 SCS Same-Spin Scale       =       0.3333333333333333 [-]
	 SCS Opposite-Spin Scale   =       1.2000000000000000 [-]
	 SCS Same-Spin Energy      =      -0.1518961613728899 [Eh]
	 SCS Opposite-Spin Energy  =      -1.6927197228943351 [Eh]
	 SCS Correlation Energy    =      -1.8446158842672249 [Eh]
	 SCS Total Energy          =    -402.4473946975807621 [Eh]
	-----------------------------------------------------------

  Dipole Moment: [D]
     X:    -1.0339      Y:     1.7670      Z:     0.0000     Total:     2.0473

*** Psi4 exiting successfully. Buy a developer a beer!
