                               Psi4 1.4a3.dev225

  ==> Input File <==

--------------------------------------------------------------------------
#psi4
#
memory 32 gb

molecule  {
0 1
  C       -2.6260070    -1.3181640     0.0000030
  C       -0.1785920    -0.3910100    -0.0000140
  C       -1.6028860    -0.2271800    -0.0000070
  C        0.4037990     0.9065080    -0.0000120
  C       -1.8343130     1.1308630     0.0000070
  C        2.0432640    -1.3188820     0.0000040
  C        2.5978420    -0.0201300     0.0000040
  C        0.6688530    -1.5149630     0.0000000
  C        1.7894440     1.1098670     0.0000020
  N       -0.6328500     1.8116730     0.0000060
  H        2.7093900    -2.1785170     0.0000140
  H        3.6988388     0.1000859     0.0000121
  H        0.2538510    -2.5213940    -0.0000090
  H        2.2194160     2.1097700    -0.0000210
  H       -3.6376970    -0.9014040    -0.0000240
  H       -2.5280300    -1.9591080     0.8829250
  H       -2.7737400     1.6710680     0.0000050
  H       -0.5326180     2.8176610     0.0000030
  H       -2.5279980    -1.9591520    -0.8828820
units angstrom
no_reorient  #important for SAPT in psi4, default
symmetry c1  #important for SAPT in psi4, default
}

set PROPERTIES_ORIGIN ["COM"]
properties('MP2/aug-cc-pvtz', properties = ['dipole'])
--------------------------------------------------------------------------

    Molecular point group: c1
  Charge       = 0
  Multiplicity = 1
  Basis Set: AUG-CC-PVTZ
    Blend: AUG-CC-PVTZ
  Basis Set: (AUG-CC-PVTZ AUX)
    Blend: AUG-CC-PVTZ-JKFIT

    Orbital Energies [Eh]
    ---------------------

    Doubly Occupied:

       1A    -15.600031     2A    -11.265417     3A    -11.264612
       4A    -11.232557     5A    -11.231301     6A    -11.230786
       7A    -11.222797     8A    -11.221884     9A    -11.221416
      10A    -11.221267    11A     -1.291770    12A     -1.126979
      13A     -1.072121    14A     -0.997433    15A     -0.985245
      16A     -0.930895    17A     -0.838824    18A     -0.802976
      19A     -0.755894    20A     -0.719784    21A     -0.658877
      22A     -0.643971    23A     -0.603432    24A     -0.592714
      25A     -0.592023    26A     -0.569702    27A     -0.551447
      28A     -0.542123    29A     -0.528079    30A     -0.497617
      31A     -0.475486    32A     -0.463196    33A     -0.374640
      34A     -0.298754    35A     -0.277811

  @DF-RHF Final Energy:  -400.63954579309143

   => Energetics <=

    Nuclear Repulsion Energy =            483.1562728891064467
    One-Electron Energy =               -1499.7839188309490055
    Two-Electron Energy =                 615.9881001487510730
    Total Energy =                       -400.6395457930914290
  Basis Set: (AUG-CC-PVTZ AUX)
    Blend: AUG-CC-PVTZ-RI
    Molecular point group: c1

    Geometry (in Angstrom), charge = 0, multiplicity = 1:

       Center              X                  Y                   Z               Mass
    ------------   -----------------  -----------------  -----------------  -----------------
         C           -2.649902084726    -1.339593462611     0.000003371553    12.000000000000
         C           -0.202487084726    -0.412439462611    -0.000013628447    12.000000000000
         C           -1.626781084726    -0.248609462611    -0.000006628447    12.000000000000
         C            0.379903915274     0.885078537389    -0.000011628447    12.000000000000
         C           -1.858208084726     1.109433537389     0.000007371553    12.000000000000
         C            2.019368915274    -1.340311462611     0.000004371553    12.000000000000
         C            2.573946915274    -0.041559462611     0.000004371553    12.000000000000
         C            0.644957915274    -1.536392462611     0.000000371553    12.000000000000
         C            1.765548915274     1.088437537389     0.000002371553    12.000000000000
         N           -0.656745084726     1.790243537389     0.000006371553    14.003074004430
         H            2.685494915274    -2.199946462611     0.000014371553     1.007825032230
         H            3.674943715274     0.078656437389     0.000012471553     1.007825032230
         H            0.229955915274    -2.542823462611    -0.000008628447     1.007825032230
         H            2.195520915274     2.088340537389    -0.000020628447     1.007825032230
         H           -3.661592084726    -0.922833462611    -0.000023628447     1.007825032230
         H           -2.551925084726    -1.980537462611     0.882925371553     1.007825032230
         H           -2.797635084726     1.649638537389     0.000005371553     1.007825032230
         H           -0.556513084726     2.796231537389     0.000003371553     1.007825032230
         H           -2.551893084726    -1.980581462611    -0.882881628447     1.007825032230

  Basis Set: AUG-CC-PVTZ
    Blend: AUG-CC-PVTZ
  Basis Set: (AUG-CC-PVTZ AUX)
    Blend: AUG-CC-PVTZ-JKFIT
	 Reference Energy          =    -400.6395457930914290 [Eh]
	 Singles Energy            =      -0.0000000000000000 [Eh]
	 Same-Spin Energy          =      -0.4517253380653085 [Eh]
	 Opposite-Spin Energy      =      -1.4042857805288187 [Eh]
	 Correlation Energy        =      -1.8560111185941270 [Eh]
	 Total Energy              =    -402.4955569116855827 [Eh]

	 ================> DF-SCS-MP2 Energies <==================
	-----------------------------------------------------------
	 SCS Same-Spin Scale       =       0.3333333333333333 [-]
	 SCS Opposite-Spin Scale   =       1.2000000000000000 [-]
	 SCS Same-Spin Energy      =      -0.1505751126884362 [Eh]
	 SCS Opposite-Spin Energy  =      -1.6851429366345825 [Eh]
	 SCS Correlation Energy    =      -1.8357180493230185 [Eh]
	 SCS Total Energy          =    -402.4752638424144493 [Eh]
	-----------------------------------------------------------

  Dipole Moment: [D]
     X:    -0.9678      Y:     1.8034      Z:    -0.0000     Total:     2.0467

*** Psi4 exiting successfully. Buy a developer a beer!
