                               Psi4 1.3.2 release

  ==> Input File <==

--------------------------------------------------------------------------
#psi4
#
memory 32 gb

molecule  {
0 1
  C       -2.6260010    -1.3181790     0.0001460
  C       -0.1785650    -0.3909870     0.0002200
  C       -1.6028750    -0.2271810    -0.0000330
  C        0.4928843     0.8627411    -0.0002050
  C       -1.8343220     1.1308500    -0.0000640
  C        2.0432510    -1.3188980     0.0000320
  C        2.5978260    -0.0201320    -0.0000760
  C        0.6688440    -1.5149670    -0.0002860
  C        1.7894520     1.1098640     0.0002960
  N       -0.6328400     1.8116850    -0.0001020
  H        2.7093930    -2.1785160    -0.0003580
  H        3.6789480     0.0978590     0.0002690
  H        0.2537760    -2.5213680    -0.0000660
  H        2.2194000     2.1097800     0.0002850
  H       -3.6376700    -0.9013790    -0.0001930
  H       -2.5281620    -1.9588410     0.8832840
  H       -2.7737480     1.6710560    -0.0003610
  H       -0.5326520     2.8176750    -0.0001200
  H       -2.5278290    -1.9594320    -0.8825300
units angstrom
no_reorient  #important for SAPT in psi4, default
symmetry c1  #important for SAPT in psi4, default
}

set PROPERTIES_ORIGIN ["COM"]
properties('MP2/aug-cc-pvtz', properties = ['dipole'])
--------------------------------------------------------------------------

    Molecular point group: c1
  Charge       = 0
  Multiplicity = 1
  Basis Set: AUG-CC-PVTZ
    Blend: AUG-CC-PVTZ
  Basis Set: (AUG-CC-PVTZ AUX)
    Blend: AUG-CC-PVTZ-JKFIT

    Orbital Energies [Eh]
    ---------------------

    Doubly Occupied:

       1A    -15.591241     2A    -11.269335     3A    -11.264242
       4A    -11.229907     5A    -11.229789     6A    -11.227730
       7A    -11.226082     8A    -11.223796     9A    -11.221407
      10A    -11.219593    11A     -1.266518    12A     -1.136520
      13A     -1.071414    14A     -1.007040    15A     -0.985403
      16A     -0.925393    17A     -0.835811    18A     -0.806872
      19A     -0.757690    20A     -0.711641    21A     -0.650948
      22A     -0.644788    23A     -0.618062    24A     -0.589531
      25A     -0.585218    26A     -0.566138    27A     -0.546260
      28A     -0.541623    29A     -0.526863    30A     -0.497008
      31A     -0.479027    32A     -0.466184    33A     -0.377071
      34A     -0.309664    35A     -0.271536

  @DF-RHF Final Energy:  -400.62600850521926

   => Energetics <=

    Nuclear Repulsion Energy =            483.1632818398207405
    One-Electron Energy =               -1499.8238890332190749
    Two-Electron Energy =                 616.0345986881791305
    Total Energy =                       -400.6260085052192608
  Basis Set: (AUG-CC-PVTZ AUX)
    Blend: AUG-CC-PVTZ-RI
    Molecular point group: c1

    Geometry (in Angstrom), charge = 0, multiplicity = 1:

       Center              X                  Y                   Z               Mass
    ------------   -----------------  -----------------  -----------------  -----------------
         C           -2.657900072365    -1.335583242467     0.000152535801    12.000000000000
         C           -0.210464072365    -0.408391242467     0.000226535801    12.000000000000
         C           -1.634774072365    -0.244585242467    -0.000026464199    12.000000000000
         C            0.460985227635     0.845336857533    -0.000198464199    12.000000000000
         C           -1.866221072365     1.113445757533    -0.000057464199    12.000000000000
         C            2.011351927635    -1.336302242467     0.000038535801    12.000000000000
         C            2.565926927635    -0.037536242467    -0.000069464199    12.000000000000
         C            0.636944927635    -1.532371242467    -0.000279464199    12.000000000000
         C            1.757552927635     1.092459757533     0.000302535801    12.000000000000
         N           -0.664739072365     1.794280757533    -0.000095464199    14.003074004430
         H            2.677493927635    -2.195920242467    -0.000351464199     1.007825032230
         H            3.647048927635     0.080454757533     0.000275535801     1.007825032230
         H            0.221876927635    -2.538772242467    -0.000059464199     1.007825032230
         H            2.187500927635     2.092375757533     0.000291535801     1.007825032230
         H           -3.669569072365    -0.918783242467    -0.000186464199     1.007825032230
         H           -2.560061072365    -1.976245242467     0.883290535801     1.007825032230
         H           -2.805647072365     1.653651757533    -0.000354464199     1.007825032230
         H           -0.564551072365     2.800270757533    -0.000113464199     1.007825032230
         H           -2.559728072365    -1.976836242467    -0.882523464199     1.007825032230

  Basis Set: AUG-CC-PVTZ
    Blend: AUG-CC-PVTZ
  Basis Set: (AUG-CC-PVTZ AUX)
    Blend: AUG-CC-PVTZ-JKFIT
	 Reference Energy          =    -400.6260085052192608 [Eh]
	 Singles Energy            =      -0.0000000000000000 [Eh]
	 Same-Spin Energy          =      -0.4518428255179713 [Eh]
	 Opposite-Spin Energy      =      -1.4047880413507383 [Eh]
	 Correlation Energy        =      -1.8566308668687097 [Eh]
	 Total Energy              =    -402.4826393720879878 [Eh]

	 ================> DF-SCS-MP2 Energies <==================
	-----------------------------------------------------------
	 SCS Same-Spin Scale       =       0.3333333333333333 [-]
	 SCS Opposite-Spin Scale   =       1.2000000000000000 [-]
	 SCS Same-Spin Energy      =      -0.1506142751726571 [Eh]
	 SCS Opposite-Spin Energy  =      -1.6857456496208860 [Eh]
	 SCS Correlation Energy    =      -1.8363599247935432 [Eh]
	 SCS Total Energy          =    -402.4623684300128161 [Eh]
	-----------------------------------------------------------

  Dipole Moment: [D]
     X:    -0.7608      Y:     1.6290      Z:    -0.0000     Total:     1.7979

*** Psi4 exiting successfully. Buy a developer a beer!
