                               Psi4 1.3.2 release

  ==> Input File <==

--------------------------------------------------------------------------
#psi4
#
memory 32 gb

molecule  {
0 1
  C       -2.6260010    -1.3181790     0.0001460
  C       -0.1785650    -0.3909870     0.0002200
  C       -1.6028750    -0.2271810    -0.0000330
  C        0.4037930     0.9065250    -0.0001510
  C       -1.8343220     1.1308500    -0.0000640
  C        2.0432510    -1.3188980     0.0000320
  C        2.5978260    -0.0201320    -0.0000760
  C        0.6688440    -1.5149670    -0.0002860
  C        1.7894520     1.1098640     0.0002960
  N       -0.6328400     1.8116850    -0.0001020
  H        2.7093930    -2.1785160    -0.0003580
  H        3.6789480     0.0978590     0.0002690
  H        0.2537760    -2.5213680    -0.0000660
  H        2.2589015     2.2016474     0.0002840
  H       -3.6376700    -0.9013790    -0.0001930
  H       -2.5281620    -1.9588410     0.8832840
  H       -2.7737480     1.6710560    -0.0003610
  H       -0.5326520     2.8176750    -0.0001200
  H       -2.5278290    -1.9594320    -0.8825300
units angstrom
no_reorient  #important for SAPT in psi4, default
symmetry c1  #important for SAPT in psi4, default
}

set PROPERTIES_ORIGIN ["COM"]
properties('MP2/aug-cc-pvtz', properties = ['dipole'])
--------------------------------------------------------------------------

    Molecular point group: c1
  Charge       = 0
  Multiplicity = 1
  Basis Set: AUG-CC-PVTZ
    Blend: AUG-CC-PVTZ
  Basis Set: (AUG-CC-PVTZ AUX)
    Blend: AUG-CC-PVTZ-JKFIT

    Orbital Energies [Eh]
    ---------------------

    Doubly Occupied:

       1A    -15.600151     2A    -11.266431     3A    -11.264916
       4A    -11.243094     5A    -11.231101     6A    -11.230622
       7A    -11.223301     8A    -11.222391     9A    -11.221872
      10A    -11.221687    11A     -1.291971    12A     -1.127298
      13A     -1.071868    14A     -0.995602    15A     -0.986168
      16A     -0.931239    17A     -0.836321    18A     -0.804489
      19A     -0.752918    20A     -0.718201    21A     -0.658119
      22A     -0.642618    23A     -0.600648    24A     -0.592321
      25A     -0.583806    26A     -0.570230    27A     -0.551693
      28A     -0.542281    29A     -0.530346    30A     -0.497481
      31A     -0.472161    32A     -0.463703    33A     -0.375068
      34A     -0.299277    35A     -0.278158

  @DF-RHF Final Energy:  -400.63277905855256

   => Energetics <=

    Nuclear Repulsion Energy =            482.7668545272189817
    One-Electron Energy =               -1499.0001637018328893
    Two-Electron Energy =                 615.6005301160612362
    Total Energy =                       -400.6327790585526145
  Basis Set: (AUG-CC-PVTZ AUX)
    Blend: AUG-CC-PVTZ-RI
    Molecular point group: c1

    Geometry (in Angstrom), charge = 0, multiplicity = 1:

       Center              X                  Y                   Z               Mass
    ------------   -----------------  -----------------  -----------------  -----------------
         C           -2.650047340844    -1.340298101449     0.000147599699    12.000000000000
         C           -0.202611340844    -0.413106101449     0.000221599699    12.000000000000
         C           -1.626921340844    -0.249300101449    -0.000031400301    12.000000000000
         C            0.379746659156     0.884405898551    -0.000149400301    12.000000000000
         C           -1.858368340844     1.108730898551    -0.000062400301    12.000000000000
         C            2.019204659156    -1.341017101449     0.000033599699    12.000000000000
         C            2.573779659156    -0.042251101449    -0.000074400301    12.000000000000
         C            0.644797659156    -1.537086101449    -0.000284400301    12.000000000000
         C            1.765405659156     1.087744898551     0.000297599699    12.000000000000
         N           -0.656886340844     1.789565898551    -0.000100400301    14.003074004430
         H            2.685346659156    -2.200635101449    -0.000356400301     1.007825032230
         H            3.654901659156     0.075739898551     0.000270599699     1.007825032230
         H            0.229729659156    -2.543487101449    -0.000064400301     1.007825032230
         H            2.234855159156     2.179528298551     0.000285599699     1.007825032230
         H           -3.661716340844    -0.923498101449    -0.000191400301     1.007825032230
         H           -2.552208340844    -1.980960101449     0.883285599699     1.007825032230
         H           -2.797794340844     1.648936898551    -0.000359400301     1.007825032230
         H           -0.556698340844     2.795555898551    -0.000118400301     1.007825032230
         H           -2.551875340844    -1.981551101449    -0.882528400301     1.007825032230

  Basis Set: AUG-CC-PVTZ
    Blend: AUG-CC-PVTZ
  Basis Set: (AUG-CC-PVTZ AUX)
    Blend: AUG-CC-PVTZ-JKFIT
	 Reference Energy          =    -400.6327790585525577 [Eh]
	 Singles Energy            =      -0.0000000000000000 [Eh]
	 Same-Spin Energy          =      -0.4519326077432483 [Eh]
	 Opposite-Spin Energy      =      -1.4050746559326459 [Eh]
	 Correlation Energy        =      -1.8570072636758943 [Eh]
	 Total Energy              =    -402.4897863222284400 [Eh]

	 ================> DF-SCS-MP2 Energies <==================
	-----------------------------------------------------------
	 SCS Same-Spin Scale       =       0.3333333333333333 [-]
	 SCS Opposite-Spin Scale   =       1.2000000000000000 [-]
	 SCS Same-Spin Energy      =      -0.1506442025810827 [Eh]
	 SCS Opposite-Spin Energy  =      -1.6860895871191750 [Eh]
	 SCS Correlation Energy    =      -1.8367337897002578 [Eh]
	 SCS Total Energy          =    -402.4695128482528048 [Eh]
	-----------------------------------------------------------

  Dipole Moment: [D]
     X:    -0.9830      Y:     1.7603      Z:    -0.0001     Total:     2.0162

*** Psi4 exiting successfully. Buy a developer a beer!
