                               Psi4 1.3.2 release

  ==> Input File <==

--------------------------------------------------------------------------
#psi4
#
memory 32 gb

molecule  {
0 1
  C       -2.6260010    -1.3181790     0.0001460
  C       -0.1785650    -0.3909870     0.0002200
  C       -1.6028750    -0.2271810    -0.0000330
  C        0.4263490     0.8961638    -0.0001647
  C       -1.8343220     1.1308500    -0.0000640
  C        2.0432510    -1.3188980     0.0000320
  C        2.5978260    -0.0201320    -0.0000760
  C        0.6688440    -1.5149670    -0.0002860
  C        1.7894520     1.1098640     0.0002960
  N       -0.6328400     1.8116850    -0.0001020
  H        2.7093930    -2.1785160    -0.0003580
  H        3.6789480     0.0978590     0.0002690
  H        0.2537760    -2.5213680    -0.0000660
  H        2.2194000     2.1097800     0.0002850
  H       -3.6376700    -0.9013790    -0.0001930
  H       -2.5281620    -1.9588410     0.8832840
  H       -2.7737480     1.6710560    -0.0003610
  H       -0.5326520     2.8176750    -0.0001200
  H       -2.5278290    -1.9594320    -0.8825300
units angstrom
no_reorient  #important for SAPT in psi4, default
symmetry c1  #important for SAPT in psi4, default
}

set PROPERTIES_ORIGIN ["COM"]
properties('MP2/aug-cc-pvtz', properties = ['dipole'])
--------------------------------------------------------------------------

    Molecular point group: c1
  Charge       = 0
  Multiplicity = 1
  Basis Set: AUG-CC-PVTZ
    Blend: AUG-CC-PVTZ
  Basis Set: (AUG-CC-PVTZ AUX)
    Blend: AUG-CC-PVTZ-JKFIT

    Orbital Energies [Eh]
    ---------------------

    Doubly Occupied:

       1A    -15.597889     2A    -11.265869     3A    -11.264922
       4A    -11.230694     5A    -11.230399     6A    -11.229231
       7A    -11.223599     8A    -11.221843     9A    -11.221796
      10A    -11.221169    11A     -1.284684    12A     -1.129038
      13A     -1.071804    14A     -0.999786    15A     -0.985646
      16A     -0.929480    17A     -0.837771    18A     -0.805000
      19A     -0.756099    20A     -0.717788    21A     -0.657285
      22A     -0.644927    23A     -0.606899    24A     -0.591765
      25A     -0.589838    26A     -0.569441    27A     -0.549975
      28A     -0.542146    29A     -0.529166    30A     -0.497259
      31A     -0.477553    32A     -0.463811    33A     -0.374991
      34A     -0.301523    35A     -0.276144

  @DF-RHF Final Energy:  -400.63916319047905

   => Energetics <=

    Nuclear Repulsion Energy =            483.2078451440246454
    One-Electron Energy =               -1499.8995556969152858
    Two-Electron Energy =                 616.0525473624115875
    Total Energy =                       -400.6391631904790529
  Basis Set: (AUG-CC-PVTZ AUX)
    Blend: AUG-CC-PVTZ-RI
    Molecular point group: c1

    Geometry (in Angstrom), charge = 0, multiplicity = 1:

       Center              X                  Y                   Z               Mass
    ------------   -----------------  -----------------  -----------------  -----------------
         C           -2.651808653395    -1.338643147041     0.000148846268    12.000000000000
         C           -0.204372653395    -0.411451147041     0.000222846268    12.000000000000
         C           -1.628682653395    -0.247645147041    -0.000030153732    12.000000000000
         C            0.400541346605     0.875699652959    -0.000161853732    12.000000000000
         C           -1.860129653395     1.110385852959    -0.000061153732    12.000000000000
         C            2.017443346605    -1.339362147041     0.000034846268    12.000000000000
         C            2.572018346605    -0.040596147041    -0.000073153732    12.000000000000
         C            0.643036346605    -1.535431147041    -0.000283153732    12.000000000000
         C            1.763644346605     1.089399852959     0.000298846268    12.000000000000
         N           -0.658647653395     1.791220852959    -0.000099153732    14.003074004430
         H            2.683585346605    -2.198980147041    -0.000355153732     1.007825032230
         H            3.653140346605     0.077394852959     0.000271846268     1.007825032230
         H            0.227968346605    -2.541832147041    -0.000063153732     1.007825032230
         H            2.193592346605     2.089315852959     0.000287846268     1.007825032230
         H           -3.663477653395    -0.921843147041    -0.000190153732     1.007825032230
         H           -2.553969653395    -1.979305147041     0.883286846268     1.007825032230
         H           -2.799555653395     1.650591852959    -0.000358153732     1.007825032230
         H           -0.558459653395     2.797210852959    -0.000117153732     1.007825032230
         H           -2.553636653395    -1.979896147041    -0.882527153732     1.007825032230

  Basis Set: AUG-CC-PVTZ
    Blend: AUG-CC-PVTZ
  Basis Set: (AUG-CC-PVTZ AUX)
    Blend: AUG-CC-PVTZ-JKFIT
	 Reference Energy          =    -400.6391631904790529 [Eh]
	 Singles Energy            =      -0.0000000000000000 [Eh]
	 Same-Spin Energy          =      -0.4517077795928112 [Eh]
	 Opposite-Spin Energy      =      -1.4042081437365028 [Eh]
	 Correlation Energy        =      -1.8559159233293139 [Eh]
	 Total Energy              =    -402.4950791138083446 [Eh]

	 ================> DF-SCS-MP2 Energies <==================
	-----------------------------------------------------------
	 SCS Same-Spin Scale       =       0.3333333333333333 [-]
	 SCS Opposite-Spin Scale   =       1.2000000000000000 [-]
	 SCS Same-Spin Energy      =      -0.1505692598642704 [Eh]
	 SCS Opposite-Spin Energy  =      -1.6850497724838034 [Eh]
	 SCS Correlation Energy    =      -1.8356190323480739 [Eh]
	 SCS Total Energy          =    -402.4747822228271161 [Eh]
	-----------------------------------------------------------

  Dipole Moment: [D]
     X:    -0.9126      Y:     1.7592      Z:    -0.0001     Total:     1.9819

*** Psi4 exiting successfully. Buy a developer a beer!
