                               Psi4 1.3.2 release

  ==> Input File <==

--------------------------------------------------------------------------
#psi4
#
memory 32 gb

molecule  {
0 1
  C       -2.6260010    -1.3181790     0.0001460
  C       -0.1785650    -0.3909870     0.0002200
  C       -1.6028750    -0.2271810    -0.0000330
  C        0.3929842     1.0036790    -0.0001044
  C       -1.8343220     1.1308500    -0.0000640
  C        2.0432510    -1.3188980     0.0000320
  C        2.5978260    -0.0201320    -0.0000760
  C        0.6688440    -1.5149670    -0.0002860
  C        1.7894520     1.1098640     0.0002960
  N       -0.6328400     1.8116850    -0.0001020
  H        2.7093930    -2.1785160    -0.0003580
  H        3.6789480     0.0978590     0.0002690
  H        0.2537760    -2.5213680    -0.0000660
  H        2.2194000     2.1097800     0.0002850
  H       -3.6376700    -0.9013790    -0.0001930
  H       -2.5281620    -1.9588410     0.8832840
  H       -2.7737480     1.6710560    -0.0003610
  H       -0.5326520     2.8176750    -0.0001200
  H       -2.5278290    -1.9594320    -0.8825300
units angstrom
no_reorient  #important for SAPT in psi4, default
symmetry c1  #important for SAPT in psi4, default
}

set PROPERTIES_ORIGIN ["COM"]
properties('MP2/aug-cc-pvtz', properties = ['dipole'])
--------------------------------------------------------------------------

    Molecular point group: c1
  Charge       = 0
  Multiplicity = 1
  Basis Set: AUG-CC-PVTZ
    Blend: AUG-CC-PVTZ
  Basis Set: (AUG-CC-PVTZ AUX)
    Blend: AUG-CC-PVTZ-JKFIT

    Orbital Energies [Eh]
    ---------------------

    Doubly Occupied:

       1A    -15.608488     2A    -11.269324     3A    -11.264962
       4A    -11.229817     5A    -11.229428     6A    -11.228461
       7A    -11.227172     8A    -11.225889     9A    -11.223231
      10A    -11.217685    11A     -1.312875    12A     -1.120139
      13A     -1.076611    14A     -0.996642    15A     -0.979221
      16A     -0.937838    17A     -0.843882    18A     -0.805484
      19A     -0.754134    20A     -0.723279    21A     -0.672080
      22A     -0.644828    23A     -0.599128    24A     -0.595272
      25A     -0.587987    26A     -0.573766    27A     -0.557021
      28A     -0.543815    29A     -0.532301    30A     -0.497964
      31A     -0.460697    32A     -0.458597    33A     -0.380582
      34A     -0.288282    35A     -0.278519

  @DF-RHF Final Energy:  -400.62785341958119

   => Energetics <=

    Nuclear Repulsion Energy =            482.5926987726678021
    One-Electron Energy =               -1498.5503042400953291
    Two-Electron Energy =                 615.3297520478463412
    Total Energy =                       -400.6278534195812426
  Basis Set: (AUG-CC-PVTZ AUX)
    Blend: AUG-CC-PVTZ-RI
    Molecular point group: c1

    Geometry (in Angstrom), charge = 0, multiplicity = 1:

       Center              X                  Y                   Z               Mass
    ------------   -----------------  -----------------  -----------------  -----------------
         C           -2.648754049664    -1.348486344995     0.000143325701    12.000000000000
         C           -0.201318049664    -0.421294344995     0.000217325701    12.000000000000
         C           -1.625628049664    -0.257488344995    -0.000035674299    12.000000000000
         C            0.370231150336     0.973371655005    -0.000107074299    12.000000000000
         C           -1.857075049664     1.100542655005    -0.000066674299    12.000000000000
         C            2.020497950336    -1.349205344995     0.000029325701    12.000000000000
         C            2.575072950336    -0.050439344995    -0.000078674299    12.000000000000
         C            0.646090950336    -1.545274344995    -0.000288674299    12.000000000000
         C            1.766698950336     1.079556655005     0.000293325701    12.000000000000
         N           -0.655593049664     1.781377655005    -0.000104674299    14.003074004430
         H            2.686639950336    -2.208823344995    -0.000360674299     1.007825032230
         H            3.656194950336     0.067551655005     0.000266325701     1.007825032230
         H            0.231022950336    -2.551675344995    -0.000068674299     1.007825032230
         H            2.196646950336     2.079472655005     0.000282325701     1.007825032230
         H           -3.660423049664    -0.931686344995    -0.000195674299     1.007825032230
         H           -2.550915049664    -1.989148344995     0.883281325701     1.007825032230
         H           -2.796501049664     1.640748655005    -0.000363674299     1.007825032230
         H           -0.555405049664     2.787367655005    -0.000122674299     1.007825032230
         H           -2.550582049664    -1.989739344995    -0.882532674299     1.007825032230

  Basis Set: AUG-CC-PVTZ
    Blend: AUG-CC-PVTZ
  Basis Set: (AUG-CC-PVTZ AUX)
    Blend: AUG-CC-PVTZ-JKFIT
	 Reference Energy          =    -400.6278534195811858 [Eh]
	 Singles Energy            =      -0.0000000000000000 [Eh]
	 Same-Spin Energy          =      -0.4529470934383127 [Eh]
	 Opposite-Spin Energy      =      -1.4052635377259750 [Eh]
	 Correlation Energy        =      -1.8582106311642876 [Eh]
	 Total Energy              =    -402.4860640507454832 [Eh]

	 ================> DF-SCS-MP2 Energies <==================
	-----------------------------------------------------------
	 SCS Same-Spin Scale       =       0.3333333333333333 [-]
	 SCS Opposite-Spin Scale   =       1.2000000000000000 [-]
	 SCS Same-Spin Energy      =      -0.1509823644794376 [Eh]
	 SCS Opposite-Spin Energy  =      -1.6863162452711700 [Eh]
	 SCS Correlation Energy    =      -1.8372986097506074 [Eh]
	 SCS Total Energy          =    -402.4651520293318185 [Eh]
	-----------------------------------------------------------

  Dipole Moment: [D]
     X:    -1.2484      Y:     1.9407      Z:    -0.0001     Total:     2.3076

*** Psi4 exiting successfully. Buy a developer a beer!
