                               Psi4 1.4a3.dev225

  ==> Input File <==

--------------------------------------------------------------------------
#psi4
#
memory 32 gb

molecule  {
0 1
  C       -2.6260070    -1.3181640     0.0000030
  C       -0.1785920    -0.3910100    -0.0000140
  C       -1.6028860    -0.2271800    -0.0000070
  C        0.4037990     0.9065080    -0.0000120
  C       -1.8343130     1.1308630     0.0000070
  C        2.0432640    -1.3188820     0.0000040
  C        2.5978420    -0.0201300     0.0000040
  C        0.6688530    -1.5149630     0.0000000
  C        1.7894440     1.1098670     0.0000020
  N       -0.6328500     1.8116730     0.0000060
  H        2.7093900    -2.1785170     0.0000140
  H        3.6789570     0.0979150     0.0000120
  H        0.2538510    -2.5213940    -0.0000090
  H        2.2194160     2.1097700    -0.0000210
  H       -3.6376970    -0.9014040    -0.0000240
  H       -2.5280300    -1.9591080     0.8829250
  H       -2.7737400     1.6710680     0.0000050
  H       -0.5306351     2.8375625     0.0000029
  H       -2.5279980    -1.9591520    -0.8828820
units angstrom
no_reorient  #important for SAPT in psi4, default
symmetry c1  #important for SAPT in psi4, default
}

set PROPERTIES_ORIGIN ["COM"]
properties('MP2/aug-cc-pvtz', properties = ['dipole'])
--------------------------------------------------------------------------

    Molecular point group: c1
  Charge       = 0
  Multiplicity = 1
  Basis Set: AUG-CC-PVTZ
    Blend: AUG-CC-PVTZ
  Basis Set: (AUG-CC-PVTZ AUX)
    Blend: AUG-CC-PVTZ-JKFIT

    Orbital Energies [Eh]
    ---------------------

    Doubly Occupied:

       1A    -15.601745     2A    -11.265219     3A    -11.264499
       4A    -11.231758     5A    -11.230569     6A    -11.229359
       7A    -11.222614     8A    -11.221728     9A    -11.221267
      10A    -11.220957    11A     -1.290331    12A     -1.126521
      13A     -1.071375    14A     -0.996920    15A     -0.985462
      16A     -0.929834    17A     -0.838604    18A     -0.802522
      19A     -0.755263    20A     -0.717495    21A     -0.659810
      22A     -0.644469    23A     -0.603021    24A     -0.592015
      25A     -0.591765    26A     -0.569573    27A     -0.551227
      28A     -0.542057    29A     -0.529571    30A     -0.497535
      31A     -0.475590    32A     -0.462890    33A     -0.374412
      34A     -0.298466    35A     -0.277579

  @DF-RHF Final Energy:  -400.63903748588524

   => Energetics <=

    Nuclear Repulsion Energy =            483.1346564216611910
    One-Electron Energy =               -1499.7593460056339154
    Two-Electron Energy =                 615.9856520980874848
    Total Energy =                       -400.6390374858851828
  Basis Set: (AUG-CC-PVTZ AUX)
    Blend: AUG-CC-PVTZ-RI
    Molecular point group: c1

    Geometry (in Angstrom), charge = 0, multiplicity = 1:

       Center              X                  Y                   Z               Mass
    ------------   -----------------  -----------------  -----------------  -----------------
         C           -2.649764459961    -1.339729793315     0.000003373091    12.000000000000
         C           -0.202349459961    -0.412575793315    -0.000013626909    12.000000000000
         C           -1.626643459961    -0.248745793315    -0.000006626909    12.000000000000
         C            0.380041540039     0.884942206685    -0.000011626909    12.000000000000
         C           -1.858070459961     1.109297206685     0.000007373091    12.000000000000
         C            2.019506540039    -1.340447793315     0.000004373091    12.000000000000
         C            2.574084540039    -0.041695793315     0.000004373091    12.000000000000
         C            0.645095540039    -1.536528793315     0.000000373091    12.000000000000
         C            1.765686540039     1.088301206685     0.000002373091    12.000000000000
         N           -0.656607459961     1.790107206685     0.000006373091    14.003074004430
         H            2.685632540039    -2.200082793315     0.000014373091     1.007825032230
         H            3.655199540039     0.076349206685     0.000012373091     1.007825032230
         H            0.230093540039    -2.542959793315    -0.000008626909     1.007825032230
         H            2.195658540039     2.088204206685    -0.000020626909     1.007825032230
         H           -3.661454459961    -0.922969793315    -0.000023626909     1.007825032230
         H           -2.551787459961    -1.980673793315     0.882925373091     1.007825032230
         H           -2.797497459961     1.649502206685     0.000005373091     1.007825032230
         H           -0.554392559961     2.815996706685     0.000003273091     1.007825032230
         H           -2.551755459961    -1.980717793315    -0.882881626909     1.007825032230

  Basis Set: AUG-CC-PVTZ
    Blend: AUG-CC-PVTZ
  Basis Set: (AUG-CC-PVTZ AUX)
    Blend: AUG-CC-PVTZ-JKFIT
	 Reference Energy          =    -400.6390374858852397 [Eh]
	 Singles Energy            =      -0.0000000000000000 [Eh]
	 Same-Spin Energy          =      -0.4518618068277357 [Eh]
	 Opposite-Spin Energy      =      -1.4045243813233497 [Eh]
	 Correlation Energy        =      -1.8563861881510855 [Eh]
	 Total Energy              =    -402.4954236740363172 [Eh]

	 ================> DF-SCS-MP2 Energies <==================
	-----------------------------------------------------------
	 SCS Same-Spin Scale       =       0.3333333333333333 [-]
	 SCS Opposite-Spin Scale   =       1.2000000000000000 [-]
	 SCS Same-Spin Energy      =      -0.1506206022759119 [Eh]
	 SCS Opposite-Spin Energy  =      -1.6854292575880196 [Eh]
	 SCS Correlation Energy    =      -1.8360498598639314 [Eh]
	 SCS Total Energy          =    -402.4750873457491593 [Eh]
	-----------------------------------------------------------

  Dipole Moment: [D]
     X:    -0.9582      Y:     1.8293      Z:    -0.0000     Total:     2.0650

*** Psi4 exiting successfully. Buy a developer a beer!
