                               Psi4 1.3.2 release

  ==> Input File <==

--------------------------------------------------------------------------
#psi4
#
memory 32 gb

molecule  {
0 1
  C       -2.6260010    -1.3181790     0.0001460
  C       -0.1785650    -0.3909870     0.0002200
  C       -1.5344697    -0.1542378    -0.0000450
  C        0.4037930     0.9065250    -0.0001510
  C       -1.8343220     1.1308500    -0.0000640
  C        2.0432510    -1.3188980     0.0000320
  C        2.5978260    -0.0201320    -0.0000760
  C        0.6688440    -1.5149670    -0.0002860
  C        1.7894520     1.1098640     0.0002960
  N       -0.6328400     1.8116850    -0.0001020
  H        2.7093930    -2.1785160    -0.0003580
  H        3.6789480     0.0978590     0.0002690
  H        0.2537760    -2.5213680    -0.0000660
  H        2.2194000     2.1097800     0.0002850
  H       -3.6376700    -0.9013790    -0.0001930
  H       -2.5281620    -1.9588410     0.8832840
  H       -2.7737480     1.6710560    -0.0003610
  H       -0.5326520     2.8176750    -0.0001200
  H       -2.5278290    -1.9594320    -0.8825300
units angstrom
no_reorient  #important for SAPT in psi4, default
symmetry c1  #important for SAPT in psi4, default
}

set PROPERTIES_ORIGIN ["COM"]
properties('MP2/aug-cc-pvtz', properties = ['dipole'])
--------------------------------------------------------------------------

    Molecular point group: c1
  Charge       = 0
  Multiplicity = 1
  Basis Set: AUG-CC-PVTZ
    Blend: AUG-CC-PVTZ
  Basis Set: (AUG-CC-PVTZ AUX)
    Blend: AUG-CC-PVTZ-JKFIT

    Orbital Energies [Eh]
    ---------------------

    Doubly Occupied:

       1A    -15.596753     2A    -11.264358     3A    -11.255808
       4A    -11.232988     5A    -11.231965     6A    -11.230302
       7A    -11.223520     8A    -11.222210     9A    -11.216989
      10A    -11.214544    11A     -1.297950    12A     -1.128183
      13A     -1.074029    14A     -0.996937    15A     -0.985123
      16A     -0.927075    17A     -0.842127    18A     -0.809070
      19A     -0.754619    20A     -0.719035    21A     -0.664032
      22A     -0.648780    23A     -0.600822    24A     -0.593566
      25A     -0.593239    26A     -0.574228    27A     -0.546102
      28A     -0.532837    29A     -0.519132    30A     -0.507515
      31A     -0.466200    32A     -0.463856    33A     -0.383205
      34A     -0.299992    35A     -0.282176

  @DF-RHF Final Energy:  -400.62862946679047

   => Energetics <=

    Nuclear Repulsion Energy =            484.6309125397592084
    One-Electron Energy =               -1502.7205505725255534
    Two-Electron Energy =                 617.4610085659758170
    Total Energy =                       -400.6286294667904713
  Basis Set: (AUG-CC-PVTZ AUX)
    Blend: AUG-CC-PVTZ-RI
    Molecular point group: c1

    Geometry (in Angstrom), charge = 0, multiplicity = 1:

       Center              X                  Y                   Z               Mass
    ------------   -----------------  -----------------  -----------------  -----------------
         C           -2.656006234164    -1.346269805408     0.000148690630    12.000000000000
         C           -0.208570234164    -0.419077805408     0.000222690630    12.000000000000
         C           -1.564474934164    -0.182328605408    -0.000042309370    12.000000000000
         C            0.373787765836     0.878434194592    -0.000148309370    12.000000000000
         C           -1.864327234164     1.102759194592    -0.000061309370    12.000000000000
         C            2.013245765836    -1.346988805408     0.000034690630    12.000000000000
         C            2.567820765836    -0.048222805408    -0.000073309370    12.000000000000
         C            0.638838765836    -1.543057805408    -0.000283309370    12.000000000000
         C            1.759446765836     1.081773194592     0.000298690630    12.000000000000
         N           -0.662845234164     1.783594194592    -0.000099309370    14.003074004430
         H            2.679387765836    -2.206606805408    -0.000355309370     1.007825032230
         H            3.648942765836     0.069768194592     0.000271690630     1.007825032230
         H            0.223770765836    -2.549458805408    -0.000063309370     1.007825032230
         H            2.189394765836     2.081689194592     0.000287690630     1.007825032230
         H           -3.667675234164    -0.929469805408    -0.000190309370     1.007825032230
         H           -2.558167234164    -1.986931805408     0.883286690630     1.007825032230
         H           -2.803753234164     1.642965194592    -0.000358309370     1.007825032230
         H           -0.562657234164     2.789584194592    -0.000117309370     1.007825032230
         H           -2.557834234164    -1.987522805408    -0.882527309370     1.007825032230

  Basis Set: AUG-CC-PVTZ
    Blend: AUG-CC-PVTZ
  Basis Set: (AUG-CC-PVTZ AUX)
    Blend: AUG-CC-PVTZ-JKFIT
	 Reference Energy          =    -400.6286294667904713 [Eh]
	 Singles Energy            =      -0.0000000000000000 [Eh]
	 Same-Spin Energy          =      -0.4514190397487962 [Eh]
	 Opposite-Spin Energy      =      -1.4035629666133707 [Eh]
	 Correlation Energy        =      -1.8549820063621669 [Eh]
	 Total Energy              =    -402.4836114731526209 [Eh]

	 ================> DF-SCS-MP2 Energies <==================
	-----------------------------------------------------------
	 SCS Same-Spin Scale       =       0.3333333333333333 [-]
	 SCS Opposite-Spin Scale   =       1.2000000000000000 [-]
	 SCS Same-Spin Energy      =      -0.1504730132495987 [Eh]
	 SCS Opposite-Spin Energy  =      -1.6842755599360448 [Eh]
	 SCS Correlation Energy    =      -1.8347485731856437 [Eh]
	 SCS Total Energy          =    -402.4633780399761349 [Eh]
	-----------------------------------------------------------

  Dipole Moment: [D]
     X:    -0.9032      Y:     1.8784      Z:    -0.0001     Total:     2.0843

*** Psi4 exiting successfully. Buy a developer a beer!
