                               Psi4 1.3.2 release

  ==> Input File <==

--------------------------------------------------------------------------
#psi4
#
memory 32 gb

molecule  {
0 1
  C       -2.6260010    -1.3181790     0.0001460
  C       -0.1785650    -0.3909870     0.0002200
  C       -1.6028750    -0.2271810    -0.0000330
  C        0.4037930     0.9065250    -0.0001510
  C       -1.8343220     1.1308500    -0.0000640
  C        2.0432510    -1.3188980     0.0000320
  C        2.5978260    -0.0201320    -0.0000760
  C        0.6688440    -1.5149670    -0.0002860
  C        1.7894520     1.1098640     0.0002960
  N       -0.6328400     1.8116850    -0.0001020
  H        2.7093930    -2.1785160    -0.0003580
  H        3.6789480     0.0978590     0.0002690
  H        0.3300308    -2.3364756    -0.0001064
  H        2.2194000     2.1097800     0.0002850
  H       -3.6376700    -0.9013790    -0.0001930
  H       -2.5281620    -1.9588410     0.8832840
  H       -2.7737480     1.6710560    -0.0003610
  H       -0.5326520     2.8176750    -0.0001200
  H       -2.5278290    -1.9594320    -0.8825300
units angstrom
no_reorient  #important for SAPT in psi4, default
symmetry c1  #important for SAPT in psi4, default
}

set PROPERTIES_ORIGIN ["COM"]
properties('MP2/aug-cc-pvtz', properties = ['dipole'])
--------------------------------------------------------------------------

    Molecular point group: c1
  Charge       = 0
  Multiplicity = 1
  Basis Set: AUG-CC-PVTZ
    Blend: AUG-CC-PVTZ
  Basis Set: (AUG-CC-PVTZ AUX)
    Blend: AUG-CC-PVTZ-JKFIT

    Orbital Energies [Eh]
    ---------------------

    Doubly Occupied:

       1A    -15.599417     2A    -11.264311     3A    -11.264083
       4A    -11.231446     5A    -11.228403     6A    -11.222279
       7A    -11.221568     8A    -11.220445     9A    -11.219974
      10A    -11.206342    11A     -1.291103    12A     -1.128639
      13A     -1.072359    14A     -1.005498    15A     -0.985266
      16A     -0.932577    17A     -0.849172    18A     -0.803262
      19A     -0.763048    20A     -0.733033    21A     -0.666114
      22A     -0.644207    23A     -0.615753    24A     -0.597655
      25A     -0.591579    26A     -0.570044    27A     -0.551347
      28A     -0.543012    29A     -0.530090    30A     -0.499675
      31A     -0.479885    32A     -0.462207    33A     -0.374064
      34A     -0.297824    35A     -0.277325

  @DF-RHF Final Energy:  -400.60596760784756

   => Energetics <=

    Nuclear Repulsion Energy =            484.4078942420015892
    One-Electron Energy =               -1502.1417150792601660
    Two-Electron Energy =                 617.1278532294110164
    Total Energy =                       -400.6059676078475604
  Basis Set: (AUG-CC-PVTZ AUX)
    Blend: AUG-CC-PVTZ-RI
    Molecular point group: c1

    Geometry (in Angstrom), charge = 0, multiplicity = 1:

       Center              X                  Y                   Z               Mass
    ------------   -----------------  -----------------  -----------------  -----------------
         C           -2.650329937219    -1.341013371310     0.000147902646    12.000000000000
         C           -0.202893937219    -0.413821371310     0.000221902646    12.000000000000
         C           -1.627203937219    -0.250015371310    -0.000031097354    12.000000000000
         C            0.379464062781     0.883690628690    -0.000149097354    12.000000000000
         C           -1.858650937219     1.108015628690    -0.000062097354    12.000000000000
         C            2.018922062781    -1.341732371310     0.000033902646    12.000000000000
         C            2.573497062781    -0.042966371310    -0.000074097354    12.000000000000
         C            0.644515062781    -1.537801371310    -0.000284097354    12.000000000000
         C            1.765123062781     1.087029628690     0.000297902646    12.000000000000
         N           -0.657168937219     1.788850628690    -0.000100097354    14.003074004430
         H            2.685064062781    -2.201350371310    -0.000356097354     1.007825032230
         H            3.654619062781     0.075024628690     0.000270902646     1.007825032230
         H            0.305701862781    -2.359309971310    -0.000104497354     1.007825032230
         H            2.195071062781     2.086945628690     0.000286902646     1.007825032230
         H           -3.661998937219    -0.924213371310    -0.000191097354     1.007825032230
         H           -2.552490937219    -1.981675371310     0.883285902646     1.007825032230
         H           -2.798076937219     1.648221628690    -0.000359097354     1.007825032230
         H           -0.556980937219     2.794840628690    -0.000118097354     1.007825032230
         H           -2.552157937219    -1.982266371310    -0.882528097354     1.007825032230

  Basis Set: AUG-CC-PVTZ
    Blend: AUG-CC-PVTZ
  Basis Set: (AUG-CC-PVTZ AUX)
    Blend: AUG-CC-PVTZ-JKFIT
	 Reference Energy          =    -400.6059676078475604 [Eh]
	 Singles Energy            =      -0.0000000000000000 [Eh]
	 Same-Spin Energy          =      -0.4514347684332768 [Eh]
	 Opposite-Spin Energy      =      -1.4035376082841866 [Eh]
	 Correlation Energy        =      -1.8549723767174635 [Eh]
	 Total Energy              =    -402.4609399845650159 [Eh]

	 ================> DF-SCS-MP2 Energies <==================
	-----------------------------------------------------------
	 SCS Same-Spin Scale       =       0.3333333333333333 [-]
	 SCS Opposite-Spin Scale   =       1.2000000000000000 [-]
	 SCS Same-Spin Energy      =      -0.1504782561444256 [Eh]
	 SCS Opposite-Spin Energy  =      -1.6842451299410239 [Eh]
	 SCS Correlation Energy    =      -1.8347233860854495 [Eh]
	 SCS Total Energy          =    -402.4406909939330035 [Eh]
	-----------------------------------------------------------

  Dipole Moment: [D]
     X:    -0.9650      Y:     1.7572      Z:    -0.0001     Total:     2.0048

*** Psi4 exiting successfully. Buy a developer a beer!
