                               Psi4 1.3.2 release

  ==> Input File <==

--------------------------------------------------------------------------
#psi4
#
memory 32 gb

molecule  {
0 1
  C       -2.6260010    -1.3181790     0.0001460
  C       -0.1329277    -0.4105206     0.0002468
  C       -1.6028750    -0.2271810    -0.0000330
  C        0.4037930     0.9065250    -0.0001510
  C       -1.8343220     1.1308500    -0.0000640
  C        2.0432510    -1.3188980     0.0000320
  C        2.5978260    -0.0201320    -0.0000760
  C        0.6688440    -1.5149670    -0.0002860
  C        1.7894520     1.1098640     0.0002960
  N       -0.6328400     1.8116850    -0.0001020
  H        2.7093930    -2.1785160    -0.0003580
  H        3.6789480     0.0978590     0.0002690
  H        0.2537760    -2.5213680    -0.0000660
  H        2.2194000     2.1097800     0.0002850
  H       -3.6376700    -0.9013790    -0.0001930
  H       -2.5281620    -1.9588410     0.8832840
  H       -2.7737480     1.6710560    -0.0003610
  H       -0.5326520     2.8176750    -0.0001200
  H       -2.5278290    -1.9594320    -0.8825300
units angstrom
no_reorient  #important for SAPT in psi4, default
symmetry c1  #important for SAPT in psi4, default
}

set PROPERTIES_ORIGIN ["COM"]
properties('MP2/aug-cc-pvtz', properties = ['dipole'])
--------------------------------------------------------------------------

    Molecular point group: c1
  Charge       = 0
  Multiplicity = 1
  Basis Set: AUG-CC-PVTZ
    Blend: AUG-CC-PVTZ
  Basis Set: (AUG-CC-PVTZ AUX)
    Blend: AUG-CC-PVTZ-JKFIT

    Orbital Energies [Eh]
    ---------------------

    Doubly Occupied:

       1A    -15.598319     2A    -11.267000     3A    -11.264710
       4A    -11.231013     5A    -11.229345     6A    -11.226824
       7A    -11.225566     8A    -11.222175     9A    -11.220875
      10A    -11.220579    11A     -1.289348    12A     -1.131822
      13A     -1.067113    14A     -1.000174    15A     -0.986682
      16A     -0.929154    17A     -0.840581    18A     -0.803050
      19A     -0.754126    20A     -0.720242    21A     -0.658262
      22A     -0.644585    23A     -0.603020    24A     -0.599055
      25A     -0.590366    26A     -0.569958    27A     -0.551082
      28A     -0.540327    29A     -0.529938    30A     -0.500857
      31A     -0.467730    32A     -0.466258    33A     -0.373693
      34A     -0.296855    35A     -0.280895

  @DF-RHF Final Energy:  -400.63809435011666

   => Energetics <=

    Nuclear Repulsion Energy =            483.2018665515278144
    One-Electron Energy =               -1499.8767618385238620
    Two-Electron Energy =                 616.0368009368794446
    Total Energy =                       -400.6380943501166030
  Basis Set: (AUG-CC-PVTZ AUX)
    Blend: AUG-CC-PVTZ-RI
    Molecular point group: c1

    Geometry (in Angstrom), charge = 0, multiplicity = 1:

       Center              X                  Y                   Z               Mass
    ------------   -----------------  -----------------  -----------------  -----------------
         C           -2.653921785352    -1.337803398346     0.000145138425    12.000000000000
         C           -0.160848485352    -0.430144998346     0.000245938425    12.000000000000
         C           -1.630795785352    -0.246805398346    -0.000033861575    12.000000000000
         C            0.375872214648     0.886900601654    -0.000151861575    12.000000000000
         C           -1.862242785352     1.111225601654    -0.000064861575    12.000000000000
         C            2.015330214648    -1.338522398346     0.000031138425    12.000000000000
         C            2.569905214648    -0.039756398346    -0.000076861575    12.000000000000
         C            0.640923214648    -1.534591398346    -0.000286861575    12.000000000000
         C            1.761531214648     1.090239601654     0.000295138425    12.000000000000
         N           -0.660760785352     1.792060601654    -0.000102861575    14.003074004430
         H            2.681472214648    -2.198140398346    -0.000358861575     1.007825032230
         H            3.651027214648     0.078234601654     0.000268138425     1.007825032230
         H            0.225855214648    -2.540992398346    -0.000066861575     1.007825032230
         H            2.191479214648     2.090155601654     0.000284138425     1.007825032230
         H           -3.665590785352    -0.921003398346    -0.000193861575     1.007825032230
         H           -2.556082785352    -1.978465398346     0.883283138425     1.007825032230
         H           -2.801668785352     1.651431601654    -0.000361861575     1.007825032230
         H           -0.560572785352     2.798050601654    -0.000120861575     1.007825032230
         H           -2.555749785352    -1.979056398346    -0.882530861575     1.007825032230

  Basis Set: AUG-CC-PVTZ
    Blend: AUG-CC-PVTZ
  Basis Set: (AUG-CC-PVTZ AUX)
    Blend: AUG-CC-PVTZ-JKFIT
	 Reference Energy          =    -400.6380943501166598 [Eh]
	 Singles Energy            =      -0.0000000000000000 [Eh]
	 Same-Spin Energy          =      -0.4511408338396802 [Eh]
	 Opposite-Spin Energy      =      -1.4034541158488016 [Eh]
	 Correlation Energy        =      -1.8545949496884819 [Eh]
	 Total Energy              =    -402.4926892998051358 [Eh]

	 ================> DF-SCS-MP2 Energies <==================
	-----------------------------------------------------------
	 SCS Same-Spin Scale       =       0.3333333333333333 [-]
	 SCS Opposite-Spin Scale   =       1.2000000000000000 [-]
	 SCS Same-Spin Energy      =      -0.1503802779465601 [Eh]
	 SCS Opposite-Spin Energy  =      -1.6841449390185619 [Eh]
	 SCS Correlation Energy    =      -1.8345252169651221 [Eh]
	 SCS Total Energy          =    -402.4726195670817788 [Eh]
	-----------------------------------------------------------

  Dipole Moment: [D]
     X:    -0.9163      Y:     1.7696      Z:    -0.0001     Total:     1.9928

*** Psi4 exiting successfully. Buy a developer a beer!
