                               Psi4 1.3.2 release

  ==> Input File <==

--------------------------------------------------------------------------
#psi4
#
memory 32 gb

molecule  {
0 1
  C       -2.6260010    -1.3181790     0.0001460
  C       -0.1785650    -0.3909870     0.0002200
  C       -1.6028750    -0.2271810    -0.0000330
  C        0.4037930     0.9065250    -0.0001510
  C       -1.8343220     1.1308500    -0.0000640
  C        2.0432510    -1.3188980     0.0000320
  C        2.5978260    -0.0201320    -0.0000760
  C        0.6688440    -1.5149670    -0.0002860
  C        1.7718924     1.2060274     0.0003261
  N       -0.6328400     1.8116850    -0.0001020
  H        2.7093930    -2.1785160    -0.0003580
  H        3.6789480     0.0978590     0.0002690
  H        0.2537760    -2.5213680    -0.0000660
  H        2.2194000     2.1097800     0.0002850
  H       -3.6376700    -0.9013790    -0.0001930
  H       -2.5281620    -1.9588410     0.8832840
  H       -2.7737480     1.6710560    -0.0003610
  H       -0.5326520     2.8176750    -0.0001200
  H       -2.5278290    -1.9594320    -0.8825300
units angstrom
no_reorient  #important for SAPT in psi4, default
symmetry c1  #important for SAPT in psi4, default
}

set PROPERTIES_ORIGIN ["COM"]
properties('MP2/aug-cc-pvtz', properties = ['dipole'])
--------------------------------------------------------------------------

    Molecular point group: c1
  Charge       = 0
  Multiplicity = 1
  Basis Set: AUG-CC-PVTZ
    Blend: AUG-CC-PVTZ
  Basis Set: (AUG-CC-PVTZ AUX)
    Blend: AUG-CC-PVTZ-JKFIT

    Orbital Energies [Eh]
    ---------------------

    Doubly Occupied:

       1A    -15.596082     2A    -11.268313     3A    -11.265090
       4A    -11.239256     5A    -11.233049     6A    -11.232437
       7A    -11.224856     8A    -11.222523     9A    -11.222357
      10A    -11.221721    11A     -1.291442    12A     -1.120051
      13A     -1.070948    14A     -0.998334    15A     -0.981017
      16A     -0.929759    17A     -0.843648    18A     -0.800056
      19A     -0.760363    20A     -0.719834    21A     -0.666037
      22A     -0.638803    23A     -0.615348    24A     -0.595969
      25A     -0.591467    26A     -0.565339    27A     -0.550996
      28A     -0.543058    29A     -0.522447    30A     -0.492101
      31A     -0.486571    32A     -0.457509    33A     -0.371751
      34A     -0.301492    35A     -0.271547

  @DF-RHF Final Energy:  -400.62620519760526

   => Energetics <=

    Nuclear Repulsion Energy =            482.0965047559031404
    One-Electron Energy =               -1497.6222749038454367
    Two-Electron Energy =                 614.8995649503369805
    Total Energy =                       -400.6262051976052589
  Basis Set: (AUG-CC-PVTZ AUX)
    Blend: AUG-CC-PVTZ-RI
    Molecular point group: c1

    Geometry (in Angstrom), charge = 0, multiplicity = 1:

       Center              X                  Y                   Z               Mass
    ------------   -----------------  -----------------  -----------------  -----------------
         C           -2.648136002534    -1.348395653893     0.000144836304    12.000000000000
         C           -0.200700002534    -0.421203653893     0.000218836304    12.000000000000
         C           -1.625010002534    -0.257397653893    -0.000034163696    12.000000000000
         C            0.381657997466     0.876308346107    -0.000152163696    12.000000000000
         C           -1.856457002534     1.100633346107    -0.000065163696    12.000000000000
         C            2.021115997466    -1.349114653893     0.000030836304    12.000000000000
         C            2.575690997466    -0.050348653893    -0.000077163696    12.000000000000
         C            0.646708997466    -1.545183653893    -0.000287163696    12.000000000000
         C            1.749757397466     1.175810746107     0.000324936304    12.000000000000
         N           -0.654975002534     1.781468346107    -0.000103163696    14.003074004430
         H            2.687257997466    -2.208732653893    -0.000359163696     1.007825032230
         H            3.656812997466     0.067642346107     0.000267836304     1.007825032230
         H            0.231640997466    -2.551584653893    -0.000067163696     1.007825032230
         H            2.197264997466     2.079563346107     0.000283836304     1.007825032230
         H           -3.659805002534    -0.931595653893    -0.000194163696     1.007825032230
         H           -2.550297002534    -1.989057653893     0.883282836304     1.007825032230
         H           -2.795883002534     1.640839346107    -0.000362163696     1.007825032230
         H           -0.554787002534     2.787458346107    -0.000121163696     1.007825032230
         H           -2.549964002534    -1.989648653893    -0.882531163696     1.007825032230

  Basis Set: AUG-CC-PVTZ
    Blend: AUG-CC-PVTZ
  Basis Set: (AUG-CC-PVTZ AUX)
    Blend: AUG-CC-PVTZ-JKFIT
	 Reference Energy          =    -400.6262051976052589 [Eh]
	 Singles Energy            =      -0.0000000000000000 [Eh]
	 Same-Spin Energy          =      -0.4520076116818996 [Eh]
	 Opposite-Spin Energy      =      -1.4054603535904722 [Eh]
	 Correlation Energy        =      -1.8574679652723718 [Eh]
	 Total Energy              =    -402.4836731628776079 [Eh]

	 ================> DF-SCS-MP2 Energies <==================
	-----------------------------------------------------------
	 SCS Same-Spin Scale       =       0.3333333333333333 [-]
	 SCS Opposite-Spin Scale   =       1.2000000000000000 [-]
	 SCS Same-Spin Energy      =      -0.1506692038939665 [Eh]
	 SCS Opposite-Spin Energy  =      -1.6865524243085666 [Eh]
	 SCS Correlation Energy    =      -1.8372216282025331 [Eh]
	 SCS Total Energy          =    -402.4634268258078009 [Eh]
	-----------------------------------------------------------

  Dipole Moment: [D]
     X:    -0.9897      Y:     1.8008      Z:    -0.0001     Total:     2.0548

*** Psi4 exiting successfully. Buy a developer a beer!
