                               Psi4 1.3.2 release

  ==> Input File <==

--------------------------------------------------------------------------
#psi4
#
memory 32 gb

molecule  {
0 1
  C       -2.6260010    -1.3181790     0.0001460
  C       -0.1785650    -0.3909870     0.0002200
  C       -1.6028750    -0.2271810    -0.0000330
  C        0.4037930     0.9065250    -0.0001510
  C       -1.8343220     1.1308500    -0.0000640
  C        2.0432510    -1.3188980     0.0000320
  C        2.5978260    -0.0201320    -0.0000760
  C        0.6688440    -1.5149670    -0.0002860
  C        1.7894520     1.1098640     0.0002960
  N       -0.6328400     1.8116850    -0.0001020
  H        2.7093930    -2.1785160    -0.0003580
  H        3.6789480     0.0978590     0.0002690
  H        0.2537760    -2.5213680    -0.0000660
  H        2.1798985     2.0179126     0.0002860
  H       -3.6376700    -0.9013790    -0.0001930
  H       -2.5281620    -1.9588410     0.8832840
  H       -2.7737480     1.6710560    -0.0003610
  H       -0.5326520     2.8176750    -0.0001200
  H       -2.5278290    -1.9594320    -0.8825300
units angstrom
no_reorient  #important for SAPT in psi4, default
symmetry c1  #important for SAPT in psi4, default
}

set PROPERTIES_ORIGIN ["COM"]
properties('MP2/aug-cc-pvtz', properties = ['dipole'])
--------------------------------------------------------------------------

    Molecular point group: c1
  Charge       = 0
  Multiplicity = 1
  Basis Set: AUG-CC-PVTZ
    Blend: AUG-CC-PVTZ
  Basis Set: (AUG-CC-PVTZ AUX)
    Blend: AUG-CC-PVTZ-JKFIT

    Orbital Energies [Eh]
    ---------------------

    Doubly Occupied:

       1A    -15.599814     2A    -11.264405     3A    -11.264258
       4A    -11.230375     5A    -11.228926     6A    -11.222367
       7A    -11.221377     8A    -11.221009     9A    -11.220420
      10A    -11.219523    11A     -1.291508    12A     -1.127126
      13A     -1.072832    14A     -1.000312    15A     -0.985353
      16A     -0.930740    17A     -0.843484    18A     -0.803558
      19A     -0.760366    20A     -0.722523    21A     -0.664029
      22A     -0.646752    23A     -0.609969    24A     -0.595690
      25A     -0.591668    26A     -0.569308    27A     -0.551160
      28A     -0.542276    29A     -0.529201    30A     -0.497895
      31A     -0.478219    32A     -0.462580    33A     -0.374198
      34A     -0.298173    35A     -0.277443

  @DF-RHF Final Energy:  -400.63448321530183

   => Energetics <=

    Nuclear Repulsion Energy =            483.8094243879421583
    One-Electron Energy =               -1501.0501354946816264
    Two-Electron Energy =                 616.6062278914375838
    Total Energy =                       -400.6344832153018842
  Basis Set: (AUG-CC-PVTZ AUX)
    Blend: AUG-CC-PVTZ-RI
    Molecular point group: c1

    Geometry (in Angstrom), charge = 0, multiplicity = 1:

       Center              X                  Y                   Z               Mass
    ------------   -----------------  -----------------  -----------------  -----------------
         C           -2.649439886236    -1.338885363315     0.000147584321    12.000000000000
         C           -0.202003886236    -0.411693363315     0.000221584321    12.000000000000
         C           -1.626313886236    -0.247887363315    -0.000031415679    12.000000000000
         C            0.380354113764     0.885818636685    -0.000149415679    12.000000000000
         C           -1.857760886236     1.110143636685    -0.000062415679    12.000000000000
         C            2.019812113764    -1.339604363315     0.000033584321    12.000000000000
         C            2.574387113764    -0.040838363315    -0.000074415679    12.000000000000
         C            0.645405113764    -1.535673363315    -0.000284415679    12.000000000000
         C            1.766013113764     1.089157636685     0.000297584321    12.000000000000
         N           -0.656278886236     1.790978636685    -0.000100415679    14.003074004430
         H            2.685954113764    -2.199222363315    -0.000356415679     1.007825032230
         H            3.655509113764     0.077152636685     0.000270584321     1.007825032230
         H            0.230337113764    -2.542074363315    -0.000064415679     1.007825032230
         H            2.156459613764     1.997206236685     0.000287584321     1.007825032230
         H           -3.661108886236    -0.922085363315    -0.000191415679     1.007825032230
         H           -2.551600886236    -1.979547363315     0.883285584321     1.007825032230
         H           -2.797186886236     1.650349636685    -0.000359415679     1.007825032230
         H           -0.556090886236     2.796968636685    -0.000118415679     1.007825032230
         H           -2.551267886236    -1.980138363315    -0.882528415679     1.007825032230

  Basis Set: AUG-CC-PVTZ
    Blend: AUG-CC-PVTZ
  Basis Set: (AUG-CC-PVTZ AUX)
    Blend: AUG-CC-PVTZ-JKFIT
	 Reference Energy          =    -400.6344832153018274 [Eh]
	 Singles Energy            =      -0.0000000000000000 [Eh]
	 Same-Spin Energy          =      -0.4515179324721792 [Eh]
	 Opposite-Spin Energy      =      -1.4035741691869681 [Eh]
	 Correlation Energy        =      -1.8550921016591473 [Eh]
	 Total Energy              =    -402.4895753169609520 [Eh]

	 ================> DF-SCS-MP2 Energies <==================
	-----------------------------------------------------------
	 SCS Same-Spin Scale       =       0.3333333333333333 [-]
	 SCS Opposite-Spin Scale   =       1.2000000000000000 [-]
	 SCS Same-Spin Energy      =      -0.1505059774907264 [Eh]
	 SCS Opposite-Spin Energy  =      -1.6842890030243616 [Eh]
	 SCS Correlation Energy    =      -1.8347949805150880 [Eh]
	 SCS Total Energy          =    -402.4692781958169121 [Eh]
	-----------------------------------------------------------

  Dipole Moment: [D]
     X:    -0.9411      Y:     1.8341      Z:    -0.0001     Total:     2.0615

*** Psi4 exiting successfully. Buy a developer a beer!
