                               Psi4 1.3.2 release

  ==> Input File <==

--------------------------------------------------------------------------
#psi4
#
memory 32 gb

molecule  {
0 1
  C       -2.6260010    -1.3181790     0.0001460
  C       -0.1785650    -0.3909870     0.0002200
  C       -1.4621900    -0.1955488    -0.0000362
  C        0.4037930     0.9065250    -0.0001510
  C       -1.8343220     1.1308500    -0.0000640
  C        2.0432510    -1.3188980     0.0000320
  C        2.5978260    -0.0201320    -0.0000760
  C        0.6688440    -1.5149670    -0.0002860
  C        1.7894520     1.1098640     0.0002960
  N       -0.6328400     1.8116850    -0.0001020
  H        2.7093930    -2.1785160    -0.0003580
  H        3.6789480     0.0978590     0.0002690
  H        0.2537760    -2.5213680    -0.0000660
  H        2.2194000     2.1097800     0.0002850
  H       -3.6376700    -0.9013790    -0.0001930
  H       -2.5281620    -1.9588410     0.8832840
  H       -2.7737480     1.6710560    -0.0003610
  H       -0.5326520     2.8176750    -0.0001200
  H       -2.5278290    -1.9594320    -0.8825300
units angstrom
no_reorient  #important for SAPT in psi4, default
symmetry c1  #important for SAPT in psi4, default
}

set PROPERTIES_ORIGIN ["COM"]
properties('MP2/aug-cc-pvtz', properties = ['dipole'])
--------------------------------------------------------------------------

    Molecular point group: c1
  Charge       = 0
  Multiplicity = 1
  Basis Set: AUG-CC-PVTZ
    Blend: AUG-CC-PVTZ
  Basis Set: (AUG-CC-PVTZ AUX)
    Blend: AUG-CC-PVTZ-JKFIT

    Orbital Energies [Eh]
    ---------------------

    Doubly Occupied:

       1A    -15.603653     2A    -11.263500     3A    -11.262320
       4A    -11.233334     5A    -11.231176     6A    -11.229106
       7A    -11.223305     8A    -11.223051     9A    -11.215122
      10A    -11.209809    11A     -1.300583    12A     -1.131172
      13A     -1.078474    14A     -0.998624    15A     -0.979801
      16A     -0.923145    17A     -0.843821    18A     -0.815727
      19A     -0.756070    20A     -0.720131    21A     -0.662801
      22A     -0.648953    23A     -0.602041    24A     -0.595067
      25A     -0.594858    26A     -0.575197    27A     -0.544715
      28A     -0.534916    29A     -0.517510    30A     -0.504069
      31A     -0.463600    32A     -0.463356    33A     -0.389097
      34A     -0.303853    35A     -0.269349

  @DF-RHF Final Energy:  -400.61063579517520

   => Energetics <=

    Nuclear Repulsion Energy =            485.3072079508400520
    One-Electron Energy =               -1504.0130872162758351
    Two-Electron Energy =                 618.0952434702605842
    Total Energy =                       -400.6106357951751988
  Basis Set: (AUG-CC-PVTZ AUX)
    Blend: AUG-CC-PVTZ-RI
    Molecular point group: c1

    Geometry (in Angstrom), charge = 0, multiplicity = 1:

       Center              X                  Y                   Z               Mass
    ------------   -----------------  -----------------  -----------------  -----------------
         C           -2.662623562646    -1.342487713660     0.000147884975    12.000000000000
         C           -0.215187562646    -0.415295713660     0.000221884975    12.000000000000
         C           -1.498812562646    -0.219857513660    -0.000034315025    12.000000000000
         C            0.367170437354     0.882216286340    -0.000149115025    12.000000000000
         C           -1.870944562646     1.106541286340    -0.000062115025    12.000000000000
         C            2.006628437354    -1.343206713660     0.000033884975    12.000000000000
         C            2.561203437354    -0.044440713660    -0.000074115025    12.000000000000
         C            0.632221437354    -1.539275713660    -0.000284115025    12.000000000000
         C            1.752829437354     1.085555286340     0.000297884975    12.000000000000
         N           -0.669462562646     1.787376286340    -0.000100115025    14.003074004430
         H            2.672770437354    -2.202824713660    -0.000356115025     1.007825032230
         H            3.642325437354     0.073550286340     0.000270884975     1.007825032230
         H            0.217153437354    -2.545676713660    -0.000064115025     1.007825032230
         H            2.182777437354     2.085471286340     0.000286884975     1.007825032230
         H           -3.674292562646    -0.925687713660    -0.000191115025     1.007825032230
         H           -2.564784562646    -1.983149713660     0.883285884975     1.007825032230
         H           -2.810370562646     1.646747286340    -0.000359115025     1.007825032230
         H           -0.569274562646     2.793366286340    -0.000118115025     1.007825032230
         H           -2.564451562646    -1.983740713660    -0.882528115025     1.007825032230

  Basis Set: AUG-CC-PVTZ
    Blend: AUG-CC-PVTZ
  Basis Set: (AUG-CC-PVTZ AUX)
    Blend: AUG-CC-PVTZ-JKFIT
	 Reference Energy          =    -400.6106357951751988 [Eh]
	 Singles Energy            =      -0.0000000000000000 [Eh]
	 Same-Spin Energy          =      -0.4536544365743374 [Eh]
	 Opposite-Spin Energy      =      -1.4070833664928628 [Eh]
	 Correlation Energy        =      -1.8607378030672002 [Eh]
	 Total Energy              =    -402.4713735982423941 [Eh]

	 ================> DF-SCS-MP2 Energies <==================
	-----------------------------------------------------------
	 SCS Same-Spin Scale       =       0.3333333333333333 [-]
	 SCS Opposite-Spin Scale   =       1.2000000000000000 [-]
	 SCS Same-Spin Energy      =      -0.1512181455247791 [Eh]
	 SCS Opposite-Spin Energy  =      -1.6885000397914354 [Eh]
	 SCS Correlation Energy    =      -1.8397181853162146 [Eh]
	 SCS Total Energy          =    -402.4503539804913999 [Eh]
	-----------------------------------------------------------

  Dipole Moment: [D]
     X:    -0.9098      Y:     1.9907      Z:    -0.0001     Total:     2.1887

*** Psi4 exiting successfully. Buy a developer a beer!
