                               Psi4 1.3.2 release

  ==> Input File <==

--------------------------------------------------------------------------
#psi4
#
memory 32 gb

molecule  {
0 1
  C       -2.5063559    -1.4191482     0.0001352
  C       -0.1785650    -0.3909870     0.0002200
  C       -1.6028750    -0.2271810    -0.0000330
  C        0.4037930     0.9065250    -0.0001510
  C       -1.8343220     1.1308500    -0.0000640
  C        2.0432510    -1.3188980     0.0000320
  C        2.5978260    -0.0201320    -0.0000760
  C        0.6688440    -1.5149670    -0.0002860
  C        1.7894520     1.1098640     0.0002960
  N       -0.6328400     1.8116850    -0.0001020
  H        2.7093930    -2.1785160    -0.0003580
  H        3.6789480     0.0978590     0.0002690
  H        0.2537760    -2.5213680    -0.0000660
  H        2.2194000     2.1097800     0.0002850
  H       -3.6376700    -0.9013790    -0.0001930
  H       -2.5281620    -1.9588410     0.8832840
  H       -2.7737480     1.6710560    -0.0003610
  H       -0.5326520     2.8176750    -0.0001200
  H       -2.5278290    -1.9594320    -0.8825300
units angstrom
no_reorient  #important for SAPT in psi4, default
symmetry c1  #important for SAPT in psi4, default
}

set PROPERTIES_ORIGIN ["COM"]
properties('MP2/aug-cc-pvtz', properties = ['dipole'])
--------------------------------------------------------------------------

    Molecular point group: c1
  Charge       = 0
  Multiplicity = 1
  Basis Set: AUG-CC-PVTZ
    Blend: AUG-CC-PVTZ
  Basis Set: (AUG-CC-PVTZ AUX)
    Blend: AUG-CC-PVTZ-JKFIT

    Orbital Energies [Eh]
    ---------------------

    Doubly Occupied:

       1A    -15.601651     2A    -11.268655     3A    -11.264641
       4A    -11.231818     5A    -11.230476     6A    -11.229325
       7A    -11.225687     8A    -11.223787     9A    -11.221286
      10A    -11.219564    11A     -1.292876    12A     -1.127234
      13A     -1.073272    14A     -0.997323    15A     -0.984130
      16A     -0.935397    17A     -0.839393    18A     -0.803759
      19A     -0.757383    20A     -0.721529    21A     -0.659601
      22A     -0.644663    23A     -0.611641    24A     -0.600273
      25A     -0.593060    26A     -0.571504    27A     -0.564318
      28A     -0.549928    29A     -0.514622    30A     -0.490107
      31A     -0.463386    32A     -0.452952    33A     -0.377321
      34A     -0.298840    35A     -0.279672

  @DF-RHF Final Energy:  -400.61734369990103

   => Energetics <=

    Nuclear Repulsion Energy =            483.7489039484152613
    One-Electron Energy =               -1500.8903518315066776
    Two-Electron Energy =                 616.5241041831903885
    Total Energy =                       -400.6173436999009709
  Basis Set: (AUG-CC-PVTZ AUX)
    Blend: AUG-CC-PVTZ-RI
    Molecular point group: c1

    Geometry (in Angstrom), charge = 0, multiplicity = 1:

       Center              X                  Y                   Z               Mass
    ------------   -----------------  -----------------  -----------------  -----------------
         C           -2.541052224303    -1.431317031773     0.000137780768    12.000000000000
         C           -0.213261324303    -0.403155831773     0.000222580768    12.000000000000
         C           -1.637571324303    -0.239349831773    -0.000030419232    12.000000000000
         C            0.369096675697     0.894356168227    -0.000148419232    12.000000000000
         C           -1.869018324303     1.118681168227    -0.000061419232    12.000000000000
         C            2.008554675697    -1.331066831773     0.000034580768    12.000000000000
         C            2.563129675697    -0.032300831773    -0.000073419232    12.000000000000
         C            0.634147675697    -1.527135831773    -0.000283419232    12.000000000000
         C            1.754755675697     1.097695168227     0.000298580768    12.000000000000
         N           -0.667536324303     1.799516168227    -0.000099419232    14.003074004430
         H            2.674696675697    -2.190684831773    -0.000355419232     1.007825032230
         H            3.644251675697     0.085690168227     0.000271580768     1.007825032230
         H            0.219079675697    -2.533536831773    -0.000063419232     1.007825032230
         H            2.184703675697     2.097611168227     0.000287580768     1.007825032230
         H           -3.672366324303    -0.913547831773    -0.000190419232     1.007825032230
         H           -2.562858324303    -1.971009831773     0.883286580768     1.007825032230
         H           -2.808444324303     1.658887168227    -0.000358419232     1.007825032230
         H           -0.567348324303     2.805506168227    -0.000117419232     1.007825032230
         H           -2.562525324303    -1.971600831773    -0.882527419232     1.007825032230

  Basis Set: AUG-CC-PVTZ
    Blend: AUG-CC-PVTZ
  Basis Set: (AUG-CC-PVTZ AUX)
    Blend: AUG-CC-PVTZ-JKFIT
	 Reference Energy          =    -400.6173436999010278 [Eh]
	 Singles Energy            =      -0.0000000000000000 [Eh]
	 Same-Spin Energy          =      -0.4522476865568645 [Eh]
	 Opposite-Spin Energy      =      -1.4055935419388614 [Eh]
	 Correlation Energy        =      -1.8578412284957260 [Eh]
	 Total Energy              =    -402.4751849283967431 [Eh]

	 ================> DF-SCS-MP2 Energies <==================
	-----------------------------------------------------------
	 SCS Same-Spin Scale       =       0.3333333333333333 [-]
	 SCS Opposite-Spin Scale   =       1.2000000000000000 [-]
	 SCS Same-Spin Energy      =      -0.1507492288522882 [Eh]
	 SCS Opposite-Spin Energy  =      -1.6867122503266336 [Eh]
	 SCS Correlation Energy    =      -1.8374614791789219 [Eh]
	 SCS Total Energy          =    -402.4548051790799263 [Eh]
	-----------------------------------------------------------

  Dipole Moment: [D]
     X:    -0.8584      Y:     1.7890      Z:    -0.0001     Total:     1.9842

*** Psi4 exiting successfully. Buy a developer a beer!
