                               Psi4 1.3.2 release

  ==> Input File <==

--------------------------------------------------------------------------
#psi4
#
memory 32 gb

molecule  {
0 1
  C       -2.6260010    -1.3181790     0.0001460
  C       -0.0397479    -0.4447521     0.0002990
  C       -1.6028750    -0.2271810    -0.0000330
  C        0.4037930     0.9065250    -0.0001510
  C       -1.8343220     1.1308500    -0.0000640
  C        2.0432510    -1.3188980     0.0000320
  C        2.5978260    -0.0201320    -0.0000760
  C        0.6688440    -1.5149670    -0.0002860
  C        1.7894520     1.1098640     0.0002960
  N       -0.6328400     1.8116850    -0.0001020
  H        2.7093930    -2.1785160    -0.0003580
  H        3.6789480     0.0978590     0.0002690
  H        0.2537760    -2.5213680    -0.0000660
  H        2.2194000     2.1097800     0.0002850
  H       -3.6376700    -0.9013790    -0.0001930
  H       -2.5281620    -1.9588410     0.8832840
  H       -2.7737480     1.6710560    -0.0003610
  H       -0.5326520     2.8176750    -0.0001200
  H       -2.5278290    -1.9594320    -0.8825300
units angstrom
no_reorient  #important for SAPT in psi4, default
symmetry c1  #important for SAPT in psi4, default
}

set PROPERTIES_ORIGIN ["COM"]
properties('MP2/aug-cc-pvtz', properties = ['dipole'])
--------------------------------------------------------------------------

    Molecular point group: c1
  Charge       = 0
  Multiplicity = 1
  Basis Set: AUG-CC-PVTZ
    Blend: AUG-CC-PVTZ
  Basis Set: (AUG-CC-PVTZ AUX)
    Blend: AUG-CC-PVTZ-JKFIT

    Orbital Energies [Eh]
    ---------------------

    Doubly Occupied:

       1A    -15.595790     2A    -11.270497     3A    -11.264971
       4A    -11.230199     5A    -11.229730     6A    -11.228484
       7A    -11.222516     8A    -11.220207     9A    -11.219746
      10A    -11.217511    11A     -1.285689    12A     -1.143861
      13A     -1.060166    14A     -1.007276    15A     -0.986647
      16A     -0.925848    17A     -0.844290    18A     -0.800898
      19A     -0.752580    20A     -0.719680    21A     -0.655666
      22A     -0.644478    23A     -0.614588    24A     -0.600349
      25A     -0.588156    26A     -0.568946    27A     -0.550761
      28A     -0.537192    29A     -0.530306    30A     -0.506505
      31A     -0.474067    32A     -0.444534    33A     -0.374155
      34A     -0.297939    35A     -0.282088

  @DF-RHF Final Energy:  -400.61351550433511

   => Energetics <=

    Nuclear Repulsion Energy =            483.2751259320527879
    One-Electron Energy =               -1499.9846560866055825
    Two-Electron Energy =                 616.0960146502177395
    Total Energy =                       -400.6135155043350551
  Basis Set: (AUG-CC-PVTZ AUX)
    Blend: AUG-CC-PVTZ-RI
    Molecular point group: c1

    Geometry (in Angstrom), charge = 0, multiplicity = 1:

       Center              X                  Y                   Z               Mass
    ------------   -----------------  -----------------  -----------------  -----------------
         C           -2.662452553249    -1.334669446768     0.000140359426    12.000000000000
         C           -0.076199453249    -0.461242546768     0.000293359426    12.000000000000
         C           -1.639326553249    -0.243671446768    -0.000038640574    12.000000000000
         C            0.367341446751     0.890034553232    -0.000156640574    12.000000000000
         C           -1.870773553249     1.114359553232    -0.000069640574    12.000000000000
         C            2.006799446751    -1.335388446768     0.000026359426    12.000000000000
         C            2.561374446751    -0.036622446768    -0.000081640574    12.000000000000
         C            0.632392446751    -1.531457446768    -0.000291640574    12.000000000000
         C            1.753000446751     1.093373553232     0.000290359426    12.000000000000
         N           -0.669291553249     1.795194553232    -0.000107640574    14.003074004430
         H            2.672941446751    -2.195006446768    -0.000363640574     1.007825032230
         H            3.642496446751     0.081368553232     0.000263359426     1.007825032230
         H            0.217324446751    -2.537858446768    -0.000071640574     1.007825032230
         H            2.182948446751     2.093289553232     0.000279359426     1.007825032230
         H           -3.674121553249    -0.917869446768    -0.000198640574     1.007825032230
         H           -2.564613553249    -1.975331446768     0.883278359426     1.007825032230
         H           -2.810199553249     1.654565553232    -0.000366640574     1.007825032230
         H           -0.569103553249     2.801184553232    -0.000125640574     1.007825032230
         H           -2.564280553249    -1.975922446768    -0.882535640574     1.007825032230

  Basis Set: AUG-CC-PVTZ
    Blend: AUG-CC-PVTZ
  Basis Set: (AUG-CC-PVTZ AUX)
    Blend: AUG-CC-PVTZ-JKFIT
	 Reference Energy          =    -400.6135155043351119 [Eh]
	 Singles Energy            =      -0.0000000000000000 [Eh]
	 Same-Spin Energy          =      -0.4504945341956208 [Eh]
	 Opposite-Spin Energy      =      -1.4032375406985864 [Eh]
	 Correlation Energy        =      -1.8537320748942072 [Eh]
	 Total Energy              =    -402.4672475792293085 [Eh]

	 ================> DF-SCS-MP2 Energies <==================
	-----------------------------------------------------------
	 SCS Same-Spin Scale       =       0.3333333333333333 [-]
	 SCS Opposite-Spin Scale   =       1.2000000000000000 [-]
	 SCS Same-Spin Energy      =      -0.1501648447318736 [Eh]
	 SCS Opposite-Spin Energy  =      -1.6838850488383037 [Eh]
	 SCS Correlation Energy    =      -1.8340498935701772 [Eh]
	 SCS Total Energy          =    -402.4475653979052936 [Eh]
	-----------------------------------------------------------

  Dipole Moment: [D]
     X:    -0.8460      Y:     1.6904      Z:    -0.0001     Total:     1.8902

*** Psi4 exiting successfully. Buy a developer a beer!
