                               Psi4 1.3.2 release

  ==> Input File <==

--------------------------------------------------------------------------
#psi4
#
memory 32 gb

molecule  {
0 1
  C       -2.6260010    -1.3181790     0.0001460
  C       -0.1785650    -0.3909870     0.0002200
  C       -1.6028750    -0.2271810    -0.0000330
  C        0.4037930     0.9065250    -0.0001510
  C       -1.8343220     1.1308500    -0.0000640
  C        1.9105310    -1.2538144     0.0000845
  C        2.5978260    -0.0201320    -0.0000760
  C        0.6688440    -1.5149670    -0.0002860
  C        1.7894520     1.1098640     0.0002960
  N       -0.6328400     1.8116850    -0.0001020
  H        2.7093930    -2.1785160    -0.0003580
  H        3.6789480     0.0978590     0.0002690
  H        0.2537760    -2.5213680    -0.0000660
  H        2.2194000     2.1097800     0.0002850
  H       -3.6376700    -0.9013790    -0.0001930
  H       -2.5281620    -1.9588410     0.8832840
  H       -2.7737480     1.6710560    -0.0003610
  H       -0.5326520     2.8176750    -0.0001200
  H       -2.5278290    -1.9594320    -0.8825300
units angstrom
no_reorient  #important for SAPT in psi4, default
symmetry c1  #important for SAPT in psi4, default
}

set PROPERTIES_ORIGIN ["COM"]
properties('MP2/aug-cc-pvtz', properties = ['dipole'])
--------------------------------------------------------------------------

    Molecular point group: c1
  Charge       = 0
  Multiplicity = 1
  Basis Set: AUG-CC-PVTZ
    Blend: AUG-CC-PVTZ
  Basis Set: (AUG-CC-PVTZ AUX)
    Blend: AUG-CC-PVTZ-JKFIT

    Orbital Energies [Eh]
    ---------------------

    Doubly Occupied:

       1A    -15.600472     2A    -11.262845     3A    -11.261285
       4A    -11.234563     5A    -11.229974     6A    -11.221543
       7A    -11.220837     8A    -11.219953     9A    -11.219750
      10A    -11.214339    11A     -1.290770    12A     -1.143545
      13A     -1.071893    14A     -1.013077    15A     -0.982183
      16A     -0.931869    17A     -0.834328    18A     -0.805556
      19A     -0.755689    20A     -0.722176    21A     -0.660401
      22A     -0.634014    23A     -0.612822    24A     -0.593125
      25A     -0.592432    26A     -0.571275    27A     -0.551629
      28A     -0.547273    29A     -0.530850    30A     -0.484594
      31A     -0.476329    32A     -0.454046    33A     -0.376639
      34A     -0.305136    35A     -0.278357

  @DF-RHF Final Energy:  -400.61116800174455

   => Energetics <=

    Nuclear Repulsion Energy =            486.0776184559940134
    One-Electron Energy =               -1505.5664352365836294
    Two-Electron Energy =                 618.8776487788450140
    Total Energy =                       -400.6111680017445451
  Basis Set: (AUG-CC-PVTZ AUX)
    Blend: AUG-CC-PVTZ-RI
    Molecular point group: c1

    Geometry (in Angstrom), charge = 0, multiplicity = 1:

       Center              X                  Y                   Z               Mass
    ------------   -----------------  -----------------  -----------------  -----------------
         C           -2.637592873623    -1.345550245767     0.000142785546    12.000000000000
         C           -0.190156873623    -0.418358245767     0.000216785546    12.000000000000
         C           -1.614466873623    -0.254552245767    -0.000036214454    12.000000000000
         C            0.392201126377     0.879153754233    -0.000154214454    12.000000000000
         C           -1.845913873623     1.103478754233    -0.000067214454    12.000000000000
         C            1.898939126377    -1.281185645767     0.000081285546    12.000000000000
         C            2.586234126377    -0.047503245767    -0.000079214454    12.000000000000
         C            0.657252126377    -1.542338245767    -0.000289214454    12.000000000000
         C            1.777860126377     1.082492754233     0.000292785546    12.000000000000
         N           -0.644431873623     1.784313754233    -0.000105214454    14.003074004430
         H            2.697801126377    -2.205887245767    -0.000361214454     1.007825032230
         H            3.667356126377     0.070487754233     0.000265785546     1.007825032230
         H            0.242184126377    -2.548739245767    -0.000069214454     1.007825032230
         H            2.207808126377     2.082408754233     0.000281785546     1.007825032230
         H           -3.649261873623    -0.928750245767    -0.000196214454     1.007825032230
         H           -2.539753873623    -1.986212245767     0.883280785546     1.007825032230
         H           -2.785339873623     1.643684754233    -0.000364214454     1.007825032230
         H           -0.544243873623     2.790303754233    -0.000123214454     1.007825032230
         H           -2.539420873623    -1.986803245767    -0.882533214454     1.007825032230

  Basis Set: AUG-CC-PVTZ
    Blend: AUG-CC-PVTZ
  Basis Set: (AUG-CC-PVTZ AUX)
    Blend: AUG-CC-PVTZ-JKFIT
	 Reference Energy          =    -400.6111680017445451 [Eh]
	 Singles Energy            =      -0.0000000000000000 [Eh]
	 Same-Spin Energy          =      -0.4521575188690945 [Eh]
	 Opposite-Spin Energy      =      -1.4050385854820115 [Eh]
	 Correlation Energy        =      -1.8571961043511060 [Eh]
	 Total Energy              =    -402.4683641060956347 [Eh]

	 ================> DF-SCS-MP2 Energies <==================
	-----------------------------------------------------------
	 SCS Same-Spin Scale       =       0.3333333333333333 [-]
	 SCS Opposite-Spin Scale   =       1.2000000000000000 [-]
	 SCS Same-Spin Energy      =      -0.1507191729563648 [Eh]
	 SCS Opposite-Spin Energy  =      -1.6860463025784138 [Eh]
	 SCS Correlation Energy    =      -1.8367654755347786 [Eh]
	 SCS Total Energy          =    -402.4479334772793209 [Eh]
	-----------------------------------------------------------

  Dipole Moment: [D]
     X:    -0.9512      Y:     1.8662      Z:    -0.0001     Total:     2.0946

*** Psi4 exiting successfully. Buy a developer a beer!
