                               Psi4 1.4a3.dev225

  ==> Input File <==

--------------------------------------------------------------------------
#psi4
#
memory 32 gb

molecule  {
0 1
  C       -2.6260070    -1.3181640     0.0000030
  C       -0.1785920    -0.3910100    -0.0000140
  C       -1.6028860    -0.2271800    -0.0000070
  C        0.4037990     0.9065080    -0.0000120
  C       -1.8343130     1.1308630     0.0000070
  C        2.0432640    -1.3188820     0.0000040
  C        2.5978420    -0.0201300     0.0000040
  C        0.6688530    -1.5149630     0.0000000
  C        1.7894440     1.1098670     0.0000020
  N       -0.6328500     1.8116730     0.0000060
  H        2.7093900    -2.1785170     0.0000140
  H        3.6789570     0.0979150     0.0000120
  H        0.2538510    -2.5213940    -0.0000090
  H        2.2194160     2.1097700    -0.0000210
  H       -3.6376970    -0.9014040    -0.0000240
  H       -2.5280300    -1.9591080     0.8829250
  H       -2.8170846     1.6959928     0.0000049
  H       -0.5326180     2.8176610     0.0000030
  H       -2.5279980    -1.9591520    -0.8828820
units angstrom
no_reorient  #important for SAPT in psi4, default
symmetry c1  #important for SAPT in psi4, default
}

set PROPERTIES_ORIGIN ["COM"]
properties('MP2/aug-cc-pvtz', properties = ['dipole'])
--------------------------------------------------------------------------

    Molecular point group: c1
  Charge       = 0
  Multiplicity = 1
  Basis Set: AUG-CC-PVTZ
    Blend: AUG-CC-PVTZ
  Basis Set: (AUG-CC-PVTZ AUX)
    Blend: AUG-CC-PVTZ-JKFIT

    Orbital Energies [Eh]
    ---------------------

    Doubly Occupied:

       1A    -15.600404     2A    -11.270134     3A    -11.265516
       4A    -11.232027     5A    -11.230790     6A    -11.229560
       7A    -11.223052     8A    -11.222075     9A    -11.221415
      10A    -11.221201    11A     -1.291937    12A     -1.127093
      13A     -1.072178    14A     -0.997418    15A     -0.984938
      16A     -0.930280    17A     -0.836773    18A     -0.803194
      19A     -0.754702    20A     -0.719268    21A     -0.658569
      22A     -0.641092    23A     -0.603641    24A     -0.592869
      25A     -0.592176    26A     -0.565315    27A     -0.551456
      28A     -0.542247    29A     -0.529206    30A     -0.497603
      31A     -0.475798    32A     -0.463237    33A     -0.374751
      34A     -0.298824    35A     -0.277883

  @DF-RHF Final Energy:  -400.63762493386645

   => Energetics <=

    Nuclear Repulsion Energy =            482.9988779159220371
    One-Electron Energy =               -1499.4757606435089201
    Two-Electron Energy =                 615.8392577937204351
    Total Energy =                       -400.6376249338663911
  Basis Set: (AUG-CC-PVTZ AUX)
    Blend: AUG-CC-PVTZ-RI
    Molecular point group: c1

    Geometry (in Angstrom), charge = 0, multiplicity = 1:

       Center              X                  Y                   Z               Mass
    ------------   -----------------  -----------------  -----------------  -----------------
         C           -2.649415936504    -1.339768417503     0.000003373091    12.000000000000
         C           -0.202000936504    -0.412614417503    -0.000013626909    12.000000000000
         C           -1.626294936504    -0.248784417503    -0.000006626909    12.000000000000
         C            0.380390063496     0.884903582497    -0.000011626909    12.000000000000
         C           -1.857721936504     1.109258582497     0.000007373091    12.000000000000
         C            2.019855063496    -1.340486417503     0.000004373091    12.000000000000
         C            2.574433063496    -0.041734417503     0.000004373091    12.000000000000
         C            0.645444063496    -1.536567417503     0.000000373091    12.000000000000
         C            1.766035063496     1.088262582497     0.000002373091    12.000000000000
         N           -0.656258936504     1.790068582497     0.000006373091    14.003074004430
         H            2.685981063496    -2.200121417503     0.000014373091     1.007825032230
         H            3.655548063496     0.076310582497     0.000012373091     1.007825032230
         H            0.230442063496    -2.542998417503    -0.000008626909     1.007825032230
         H            2.196007063496     2.088165582497    -0.000020626909     1.007825032230
         H           -3.661105936504    -0.923008417503    -0.000023626909     1.007825032230
         H           -2.551438936504    -1.980712417503     0.882925373091     1.007825032230
         H           -2.840493536504     1.674388382497     0.000005273091     1.007825032230
         H           -0.556026936504     2.796056582497     0.000003373091     1.007825032230
         H           -2.551406936504    -1.980756417503    -0.882881626909     1.007825032230

  Basis Set: AUG-CC-PVTZ
    Blend: AUG-CC-PVTZ
  Basis Set: (AUG-CC-PVTZ AUX)
    Blend: AUG-CC-PVTZ-JKFIT
	 Reference Energy          =    -400.6376249338664479 [Eh]
	 Singles Energy            =      -0.0000000000000000 [Eh]
	 Same-Spin Energy          =      -0.4518200367450751 [Eh]
	 Opposite-Spin Energy      =      -1.4046001994828654 [Eh]
	 Correlation Energy        =      -1.8564202362279405 [Eh]
	 Total Energy              =    -402.4940451700944095 [Eh]

	 ================> DF-SCS-MP2 Energies <==================
	-----------------------------------------------------------
	 SCS Same-Spin Scale       =       0.3333333333333333 [-]
	 SCS Opposite-Spin Scale   =       1.2000000000000000 [-]
	 SCS Same-Spin Energy      =      -0.1506066789150250 [Eh]
	 SCS Opposite-Spin Energy  =      -1.6855202393794384 [Eh]
	 SCS Correlation Energy    =      -1.8361269182944635 [Eh]
	 SCS Total Energy          =    -402.4737518521608877 [Eh]
	-----------------------------------------------------------

  Dipole Moment: [D]
     X:    -0.9481      Y:     1.8017      Z:    -0.0000     Total:     2.0359

*** Psi4 exiting successfully. Buy a developer a beer!
