                               Psi4 1.3.2 release

  ==> Input File <==

--------------------------------------------------------------------------
#psi4
#
memory 32 gb

molecule  {
0 1
  C       -2.6260010    -1.3181790     0.0001460
  C       -0.1785650    -0.3909870     0.0002200
  C       -1.7460958    -0.2439344    -0.0000301
  C        0.4037930     0.9065250    -0.0001510
  C       -1.8343220     1.1308500    -0.0000640
  C        2.0432510    -1.3188980     0.0000320
  C        2.5978260    -0.0201320    -0.0000760
  C        0.6688440    -1.5149670    -0.0002860
  C        1.7894520     1.1098640     0.0002960
  N       -0.6328400     1.8116850    -0.0001020
  H        2.7093930    -2.1785160    -0.0003580
  H        3.6789480     0.0978590     0.0002690
  H        0.2537760    -2.5213680    -0.0000660
  H        2.2194000     2.1097800     0.0002850
  H       -3.6376700    -0.9013790    -0.0001930
  H       -2.5281620    -1.9588410     0.8832840
  H       -2.7737480     1.6710560    -0.0003610
  H       -0.5326520     2.8176750    -0.0001200
  H       -2.5278290    -1.9594320    -0.8825300
units angstrom
no_reorient  #important for SAPT in psi4, default
symmetry c1  #important for SAPT in psi4, default
}

set PROPERTIES_ORIGIN ["COM"]
properties('MP2/aug-cc-pvtz', properties = ['dipole'])
--------------------------------------------------------------------------

    Molecular point group: c1
  Charge       = 0
  Multiplicity = 1
  Basis Set: AUG-CC-PVTZ
    Blend: AUG-CC-PVTZ
  Basis Set: (AUG-CC-PVTZ AUX)
    Blend: AUG-CC-PVTZ-JKFIT

    Orbital Energies [Eh]
    ---------------------

    Doubly Occupied:

       1A    -15.598192     2A    -11.268869     3A    -11.267297
       4A    -11.231057     5A    -11.230467     6A    -11.230144
       7A    -11.229600     8A    -11.229074     9A    -11.219719
      10A    -11.218687    11A     -1.286441    12A     -1.124894
      13A     -1.078207    14A     -1.002196    15A     -0.984655
      16A     -0.937511    17A     -0.836015    18A     -0.796933
      19A     -0.752419    20A     -0.721576    21A     -0.657278
      22A     -0.641636    23A     -0.606441    24A     -0.594728
      25A     -0.592016    26A     -0.579835    27A     -0.566834
      28A     -0.556681    29A     -0.525741    30A     -0.491994
      31A     -0.463217    32A     -0.450660    33A     -0.363681
      34A     -0.295868    35A     -0.283779

  @DF-RHF Final Energy:  -400.61757946036983

   => Energetics <=

    Nuclear Repulsion Energy =            481.5794821518987874
    One-Electron Energy =               -1496.5654402880384168
    Two-Electron Energy =                 614.3683786757698044
    Total Energy =                       -400.6175794603698250
  Basis Set: (AUG-CC-PVTZ AUX)
    Blend: AUG-CC-PVTZ-RI
    Molecular point group: c1

    Geometry (in Angstrom), charge = 0, multiplicity = 1:

       Center              X                  Y                   Z               Mass
    ------------   -----------------  -----------------  -----------------  -----------------
         C           -2.636631507666    -1.338057930347     0.000147326510    12.000000000000
         C           -0.189195507666    -0.410865930347     0.000221326510    12.000000000000
         C           -1.756726307666    -0.263813330347    -0.000028773490    12.000000000000
         C            0.393162492334     0.886646069653    -0.000149673490    12.000000000000
         C           -1.844952507666     1.110971069653    -0.000062673490    12.000000000000
         C            2.032620492334    -1.338776930347     0.000033326510    12.000000000000
         C            2.587195492334    -0.040010930347    -0.000074673490    12.000000000000
         C            0.658213492334    -1.534845930347    -0.000284673490    12.000000000000
         C            1.778821492334     1.089985069653     0.000297326510    12.000000000000
         N           -0.643470507666     1.791806069653    -0.000100673490    14.003074004430
         H            2.698762492334    -2.198394930347    -0.000356673490     1.007825032230
         H            3.668317492334     0.077980069653     0.000270326510     1.007825032230
         H            0.243145492334    -2.541246930347    -0.000064673490     1.007825032230
         H            2.208769492334     2.089901069653     0.000286326510     1.007825032230
         H           -3.648300507666    -0.921257930347    -0.000191673490     1.007825032230
         H           -2.538792507666    -1.978719930347     0.883285326510     1.007825032230
         H           -2.784378507666     1.651177069653    -0.000359673490     1.007825032230
         H           -0.543282507666     2.797796069653    -0.000118673490     1.007825032230
         H           -2.538459507666    -1.979310930347    -0.882528673490     1.007825032230

  Basis Set: AUG-CC-PVTZ
    Blend: AUG-CC-PVTZ
  Basis Set: (AUG-CC-PVTZ AUX)
    Blend: AUG-CC-PVTZ-JKFIT
	 Reference Energy          =    -400.6175794603698250 [Eh]
	 Singles Energy            =      -0.0000000000000000 [Eh]
	 Same-Spin Energy          =      -0.4516014371970449 [Eh]
	 Opposite-Spin Energy      =      -1.4045530299714115 [Eh]
	 Correlation Energy        =      -1.8561544671684564 [Eh]
	 Total Energy              =    -402.4737339275382624 [Eh]

	 ================> DF-SCS-MP2 Energies <==================
	-----------------------------------------------------------
	 SCS Same-Spin Scale       =       0.3333333333333333 [-]
	 SCS Opposite-Spin Scale   =       1.2000000000000000 [-]
	 SCS Same-Spin Energy      =      -0.1505338123990150 [Eh]
	 SCS Opposite-Spin Energy  =      -1.6854636359656938 [Eh]
	 SCS Correlation Energy    =      -1.8359974483647088 [Eh]
	 SCS Total Energy          =    -402.4535769087345329 [Eh]
	-----------------------------------------------------------

  Dipole Moment: [D]
     X:    -0.9723      Y:     1.6321      Z:    -0.0001     Total:     1.8997

*** Psi4 exiting successfully. Buy a developer a beer!
