                               Psi4 1.3.2 release

  ==> Input File <==

--------------------------------------------------------------------------
#psi4
#
memory 32 gb

molecule  {
0 1
  C       -2.6260010    -1.3181790     0.0001460
  C       -0.1785650    -0.3909870     0.0002200
  C       -1.6028750    -0.2271810    -0.0000330
  C        0.4037930     0.9065250    -0.0001510
  C       -1.8343220     1.1308500    -0.0000640
  C        2.0432510    -1.3188980     0.0000320
  C        2.5978260    -0.0201320    -0.0000760
  C        0.6688440    -1.5149670    -0.0002860
  C        1.7894520     1.1098640     0.0002960
  N       -0.6328400     1.8116850    -0.0001020
  H        2.7093930    -2.1785160    -0.0003580
  H        3.6789480     0.0978590     0.0002690
  H        0.2537760    -2.5213680    -0.0000660
  H        2.2194000     2.1097800     0.0002850
  H       -3.6376700    -0.9013790    -0.0001930
  H       -2.5281620    -1.9588410     0.8832840
  H       -2.7737480     1.6710560    -0.0003610
  H       -0.5128318     3.0166905    -0.0001236
  H       -2.5278290    -1.9594320    -0.8825300
units angstrom
no_reorient  #important for SAPT in psi4, default
symmetry c1  #important for SAPT in psi4, default
}

set PROPERTIES_ORIGIN ["COM"]
properties('MP2/aug-cc-pvtz', properties = ['dipole'])
--------------------------------------------------------------------------

    Molecular point group: c1
  Charge       = 0
  Multiplicity = 1
  Basis Set: AUG-CC-PVTZ
    Blend: AUG-CC-PVTZ
  Basis Set: (AUG-CC-PVTZ AUX)
    Blend: AUG-CC-PVTZ-JKFIT

    Orbital Energies [Eh]
    ---------------------

    Doubly Occupied:

       1A    -15.614952     2A    -11.264883     3A    -11.264232
       4A    -11.230921     5A    -11.229993     6A    -11.228578
       7A    -11.221858     8A    -11.221107     9A    -11.220539
      10A    -11.220122    11A     -1.281687    12A     -1.123482
      13A     -1.066329    14A     -0.994444    15A     -0.983608
      16A     -0.922268    17A     -0.836194    18A     -0.793467
      19A     -0.751783    20A     -0.692942    21A     -0.658525
      22A     -0.643209    23A     -0.599830    24A     -0.590405
      25A     -0.582649    26A     -0.567955    27A     -0.550031
      28A     -0.539211    29A     -0.528178    30A     -0.496673
      31A     -0.473949    32A     -0.461568    33A     -0.373397
      34A     -0.297066    35A     -0.276396

  @DF-RHF Final Energy:  -400.60902839757722

   => Energetics <=

    Nuclear Repulsion Energy =            482.1518327501429440
    One-Electron Energy =               -1497.9168538557391912
    Two-Electron Energy =                 615.1559927080189709
    Total Energy =                       -400.6090283975772763
  Basis Set: (AUG-CC-PVTZ AUX)
    Blend: AUG-CC-PVTZ-RI
    Molecular point group: c1

    Geometry (in Angstrom), charge = 0, multiplicity = 1:

       Center              X                  Y                   Z               Mass
    ------------   -----------------  -----------------  -----------------  -----------------
         C           -2.649896011193    -1.341121963922     0.000147619690    12.000000000000
         C           -0.202460011193    -0.413929963922     0.000221619690    12.000000000000
         C           -1.626770011193    -0.250123963922    -0.000031380310    12.000000000000
         C            0.379897988807     0.883582036078    -0.000149380310    12.000000000000
         C           -1.858217011193     1.107907036078    -0.000062380310    12.000000000000
         C            2.019355988807    -1.341840963922     0.000033619690    12.000000000000
         C            2.573930988807    -0.043074963922    -0.000074380310    12.000000000000
         C            0.644948988807    -1.537909963922    -0.000284380310    12.000000000000
         C            1.765556988807     1.086921036078     0.000297619690    12.000000000000
         N           -0.656735011193     1.788742036078    -0.000100380310    14.003074004430
         H            2.685497988807    -2.201458963922    -0.000356380310     1.007825032230
         H            3.655052988807     0.074916036078     0.000270619690     1.007825032230
         H            0.229880988807    -2.544310963922    -0.000064380310     1.007825032230
         H            2.195504988807     2.086837036078     0.000286619690     1.007825032230
         H           -3.661565011193    -0.924321963922    -0.000191380310     1.007825032230
         H           -2.552057011193    -1.981783963922     0.883285619690     1.007825032230
         H           -2.797643011193     1.648113036078    -0.000359380310     1.007825032230
         H           -0.536726811193     2.993747536078    -0.000121980310     1.007825032230
         H           -2.551724011193    -1.982374963922    -0.882528380310     1.007825032230

  Basis Set: AUG-CC-PVTZ
    Blend: AUG-CC-PVTZ
  Basis Set: (AUG-CC-PVTZ AUX)
    Blend: AUG-CC-PVTZ-JKFIT
	 Reference Energy          =    -400.6090283975772195 [Eh]
	 Singles Energy            =      -0.0000000000000000 [Eh]
	 Same-Spin Energy          =      -0.4534976095776048 [Eh]
	 Opposite-Spin Energy      =      -1.4086922470306034 [Eh]
	 Correlation Energy        =      -1.8621898566082082 [Eh]
	 Total Energy              =    -402.4712182541854304 [Eh]

	 ================> DF-SCS-MP2 Energies <==================
	-----------------------------------------------------------
	 SCS Same-Spin Scale       =       0.3333333333333333 [-]
	 SCS Opposite-Spin Scale   =       1.2000000000000000 [-]
	 SCS Same-Spin Energy      =      -0.1511658698592016 [Eh]
	 SCS Opposite-Spin Energy  =      -1.6904306964367239 [Eh]
	 SCS Correlation Energy    =      -1.8415965662959255 [Eh]
	 SCS Total Energy          =    -402.4506249638731674 [Eh]
	-----------------------------------------------------------

  Dipole Moment: [D]
     X:    -0.9612      Y:     2.0394      Z:    -0.0001     Total:     2.2546

*** Psi4 exiting successfully. Buy a developer a beer!
