                               Psi4 1.4a3.dev225

  ==> Input File <==

--------------------------------------------------------------------------
#psi4
#
memory 32 gb

molecule  {
0 1
  C       -2.6260070    -1.3181640     0.0000030
  C       -0.1785920    -0.3910100    -0.0000140
  C       -1.6028860    -0.2271800    -0.0000070
  C        0.4037990     0.9065080    -0.0000120
  C       -1.8343130     1.1308630     0.0000070
  C        2.0432640    -1.3188820     0.0000040
  C        2.5978420    -0.0201300     0.0000040
  C        0.6688530    -1.5149630     0.0000000
  C        1.7894440     1.1098670     0.0000020
  N       -0.6328500     1.8116730     0.0000060
  H        2.7093900    -2.1785170     0.0000140
  H        3.6590752     0.0957441     0.0000119
  H        0.2538510    -2.5213940    -0.0000090
  H        2.2194160     2.1097700    -0.0000210
  H       -3.6376970    -0.9014040    -0.0000240
  H       -2.5280300    -1.9591080     0.8829250
  H       -2.7737400     1.6710680     0.0000050
  H       -0.5326180     2.8176610     0.0000030
  H       -2.5279980    -1.9591520    -0.8828820
units angstrom
no_reorient  #important for SAPT in psi4, default
symmetry c1  #important for SAPT in psi4, default
}

set PROPERTIES_ORIGIN ["COM"]
properties('MP2/aug-cc-pvtz', properties = ['dipole'])
--------------------------------------------------------------------------

    Molecular point group: c1
  Charge       = 0
  Multiplicity = 1
  Basis Set: AUG-CC-PVTZ
    Blend: AUG-CC-PVTZ
  Basis Set: (AUG-CC-PVTZ AUX)
    Blend: AUG-CC-PVTZ-JKFIT

    Orbital Energies [Eh]
    ---------------------

    Doubly Occupied:

       1A    -15.599860     2A    -11.265143     3A    -11.264486
       4A    -11.231590     5A    -11.230502     6A    -11.227158
       7A    -11.222656     8A    -11.221744     9A    -11.221300
      10A    -11.220854    11A     -1.291603    12A     -1.127029
      13A     -1.072136    14A     -0.997207    15A     -0.986206
      16A     -0.931002    17A     -0.839196    18A     -0.804956
      19A     -0.755723    20A     -0.720353    21A     -0.661203
      22A     -0.645162    23A     -0.603589    24A     -0.592689
      25A     -0.591867    26A     -0.569725    27A     -0.551315
      28A     -0.542560    29A     -0.531195    30A     -0.497654
      31A     -0.475990    32A     -0.462924    33A     -0.374443
      34A     -0.298531    35A     -0.277648

  @DF-RHF Final Energy:  -400.64032238559651

   => Energetics <=

    Nuclear Repulsion Energy =            483.3620816461278196
    One-Electron Energy =               -1500.1904111662056494
    Two-Electron Energy =                 616.1880071344813814
    Total Energy =                       -400.6403223855965052
  Basis Set: (AUG-CC-PVTZ AUX)
    Blend: AUG-CC-PVTZ-RI
    Molecular point group: c1

    Geometry (in Angstrom), charge = 0, multiplicity = 1:

       Center              X                  Y                   Z               Mass
    ------------   -----------------  -----------------  -----------------  -----------------
         C           -2.649596342133    -1.339560078481     0.000003373091    12.000000000000
         C           -0.202181342133    -0.412406078481    -0.000013626909    12.000000000000
         C           -1.626475342133    -0.248576078481    -0.000006626909    12.000000000000
         C            0.380209657867     0.885111921519    -0.000011626909    12.000000000000
         C           -1.857902342133     1.109466921519     0.000007373091    12.000000000000
         C            2.019674657867    -1.340278078481     0.000004373091    12.000000000000
         C            2.574252657867    -0.041526078481     0.000004373091    12.000000000000
         C            0.645263657867    -1.536359078481     0.000000373091    12.000000000000
         C            1.765854657867     1.088470921519     0.000002373091    12.000000000000
         N           -0.656439342133     1.790276921519     0.000006373091    14.003074004430
         H            2.685800657867    -2.199913078481     0.000014373091     1.007825032230
         H            3.635485857867     0.074348021519     0.000012273091     1.007825032230
         H            0.230261657867    -2.542790078481    -0.000008626909     1.007825032230
         H            2.195826657867     2.088373921519    -0.000020626909     1.007825032230
         H           -3.661286342133    -0.922800078481    -0.000023626909     1.007825032230
         H           -2.551619342133    -1.980504078481     0.882925373091     1.007825032230
         H           -2.797329342133     1.649671921519     0.000005373091     1.007825032230
         H           -0.556207342133     2.796264921519     0.000003373091     1.007825032230
         H           -2.551587342133    -1.980548078481    -0.882881626909     1.007825032230

  Basis Set: AUG-CC-PVTZ
    Blend: AUG-CC-PVTZ
  Basis Set: (AUG-CC-PVTZ AUX)
    Blend: AUG-CC-PVTZ-JKFIT
	 Reference Energy          =    -400.6403223855965052 [Eh]
	 Singles Energy            =      -0.0000000000000000 [Eh]
	 Same-Spin Energy          =      -0.4516559441871464 [Eh]
	 Opposite-Spin Energy      =      -1.4039832626866116 [Eh]
	 Correlation Energy        =      -1.8556392068737579 [Eh]
	 Total Energy              =    -402.4959615924702803 [Eh]

	 ================> DF-SCS-MP2 Energies <==================
	-----------------------------------------------------------
	 SCS Same-Spin Scale       =       0.3333333333333333 [-]
	 SCS Opposite-Spin Scale   =       1.2000000000000000 [-]
	 SCS Same-Spin Energy      =      -0.1505519813957155 [Eh]
	 SCS Opposite-Spin Energy  =      -1.6847799152239338 [Eh]
	 SCS Correlation Energy    =      -1.8353318966196492 [Eh]
	 SCS Total Energy          =    -402.4756542822161691 [Eh]
	-----------------------------------------------------------

  Dipole Moment: [D]
     X:    -0.9481      Y:     1.8063      Z:    -0.0000     Total:     2.0400

*** Psi4 exiting successfully. Buy a developer a beer!
