                               Psi4 1.3.2 release

  ==> Input File <==

--------------------------------------------------------------------------
#psi4
#
memory 32 gb

molecule  {
0 1
  C       -2.6260010    -1.3181790     0.0001460
  C       -0.2676563    -0.3472031     0.0001650
  C       -1.6028750    -0.2271810    -0.0000330
  C        0.4037930     0.9065250    -0.0001510
  C       -1.8343220     1.1308500    -0.0000640
  C        2.0432510    -1.3188980     0.0000320
  C        2.5978260    -0.0201320    -0.0000760
  C        0.6688440    -1.5149670    -0.0002860
  C        1.7894520     1.1098640     0.0002960
  N       -0.6328400     1.8116850    -0.0001020
  H        2.7093930    -2.1785160    -0.0003580
  H        3.6789480     0.0978590     0.0002690
  H        0.2537760    -2.5213680    -0.0000660
  H        2.2194000     2.1097800     0.0002850
  H       -3.6376700    -0.9013790    -0.0001930
  H       -2.5281620    -1.9588410     0.8832840
  H       -2.7737480     1.6710560    -0.0003610
  H       -0.5326520     2.8176750    -0.0001200
  H       -2.5278290    -1.9594320    -0.8825300
units angstrom
no_reorient  #important for SAPT in psi4, default
symmetry c1  #important for SAPT in psi4, default
}

set PROPERTIES_ORIGIN ["COM"]
properties('MP2/aug-cc-pvtz', properties = ['dipole'])
--------------------------------------------------------------------------

    Molecular point group: c1
  Charge       = 0
  Multiplicity = 1
  Basis Set: AUG-CC-PVTZ
    Blend: AUG-CC-PVTZ
  Basis Set: (AUG-CC-PVTZ AUX)
    Blend: AUG-CC-PVTZ-JKFIT

    Orbital Energies [Eh]
    ---------------------

    Doubly Occupied:

       1A    -15.603969     2A    -11.264612     3A    -11.261820
       4A    -11.236696     5A    -11.233633     6A    -11.228869
       7A    -11.223336     8A    -11.221876     9A    -11.220844
      10A    -11.214542    11A     -1.297712    12A     -1.119363
      13A     -1.085089    14A     -0.994241    15A     -0.981283
      16A     -0.934753    17A     -0.836803    18A     -0.806269
      19A     -0.759358    20A     -0.718842    21A     -0.663661
      22A     -0.644275    23A     -0.605010    24A     -0.596271
      25A     -0.583811    26A     -0.566248    27A     -0.552382
      28A     -0.547373    29A     -0.529241    30A     -0.499694
      31A     -0.473434    32A     -0.457700    33A     -0.378932
      34A     -0.303883    35A     -0.269286

  @DF-RHF Final Energy:  -400.62334545341412

   => Energetics <=

    Nuclear Repulsion Energy =            483.5663770713021563
    One-Electron Energy =               -1500.5492224438610265
    Two-Electron Energy =                 616.3594999191446959
    Total Energy =                       -400.6233454534141174
  Basis Set: (AUG-CC-PVTZ AUX)
    Blend: AUG-CC-PVTZ-RI
    Molecular point group: c1

    Geometry (in Angstrom), charge = 0, multiplicity = 1:

       Center              X                  Y                   Z               Mass
    ------------   -----------------  -----------------  -----------------  -----------------
         C           -2.641587154715    -1.343600222297     0.000152627353    12.000000000000
         C           -0.283242454715    -0.372624322297     0.000171627353    12.000000000000
         C           -1.618461154715    -0.252602222297    -0.000026372647    12.000000000000
         C            0.388206845285     0.881103777703    -0.000144372647    12.000000000000
         C           -1.849908154715     1.105428777703    -0.000057372647    12.000000000000
         C            2.027664845285    -1.344319222297     0.000038627353    12.000000000000
         C            2.582239845285    -0.045553222297    -0.000069372647    12.000000000000
         C            0.653257845285    -1.540388222297    -0.000279372647    12.000000000000
         C            1.773865845285     1.084442777703     0.000302627353    12.000000000000
         N           -0.648426154715     1.786263777703    -0.000095372647    14.003074004430
         H            2.693806845285    -2.203937222297    -0.000351372647     1.007825032230
         H            3.663361845285     0.072437777703     0.000275627353     1.007825032230
         H            0.238189845285    -2.546789222297    -0.000059372647     1.007825032230
         H            2.203813845285     2.084358777703     0.000291627353     1.007825032230
         H           -3.653256154715    -0.926800222297    -0.000186372647     1.007825032230
         H           -2.543748154715    -1.984262222297     0.883290627353     1.007825032230
         H           -2.789334154715     1.645634777703    -0.000354372647     1.007825032230
         H           -0.548238154715     2.792253777703    -0.000113372647     1.007825032230
         H           -2.543415154715    -1.984853222297    -0.882523372647     1.007825032230

  Basis Set: AUG-CC-PVTZ
    Blend: AUG-CC-PVTZ
  Basis Set: (AUG-CC-PVTZ AUX)
    Blend: AUG-CC-PVTZ-JKFIT
	 Reference Energy          =    -400.6233454534141174 [Eh]
	 Singles Energy            =      -0.0000000000000000 [Eh]
	 Same-Spin Energy          =      -0.4531170186378753 [Eh]
	 Opposite-Spin Energy      =      -1.4064702615236433 [Eh]
	 Correlation Energy        =      -1.8595872801615185 [Eh]
	 Total Energy              =    -402.4829327335756375 [Eh]

	 ================> DF-SCS-MP2 Energies <==================
	-----------------------------------------------------------
	 SCS Same-Spin Scale       =       0.3333333333333333 [-]
	 SCS Opposite-Spin Scale   =       1.2000000000000000 [-]
	 SCS Same-Spin Energy      =      -0.1510390062126251 [Eh]
	 SCS Opposite-Spin Energy  =      -1.6877643138283720 [Eh]
	 SCS Correlation Energy    =      -1.8388033200409970 [Eh]
	 SCS Total Energy          =    -402.4621487734551124 [Eh]
	-----------------------------------------------------------

  Dipole Moment: [D]
     X:    -1.0611      Y:     1.8620      Z:    -0.0000     Total:     2.1431

*** Psi4 exiting successfully. Buy a developer a beer!
