                               Psi4 1.3.2 release

  ==> Input File <==

--------------------------------------------------------------------------
#psi4
#
memory 32 gb

molecule  {
0 1
  C       -2.6996129    -1.2441517     0.0001521
  C       -0.1785650    -0.3909870     0.0002200
  C       -1.6028750    -0.2271810    -0.0000330
  C        0.4037930     0.9065250    -0.0001510
  C       -1.8343220     1.1308500    -0.0000640
  C        2.0432510    -1.3188980     0.0000320
  C        2.5978260    -0.0201320    -0.0000760
  C        0.6688440    -1.5149670    -0.0002860
  C        1.7894520     1.1098640     0.0002960
  N       -0.6328400     1.8116850    -0.0001020
  H        2.7093930    -2.1785160    -0.0003580
  H        3.6789480     0.0978590     0.0002690
  H        0.2537760    -2.5213680    -0.0000660
  H        2.2194000     2.1097800     0.0002850
  H       -3.6376700    -0.9013790    -0.0001930
  H       -2.5281620    -1.9588410     0.8832840
  H       -2.7737480     1.6710560    -0.0003610
  H       -0.5326520     2.8176750    -0.0001200
  H       -2.5278290    -1.9594320    -0.8825300
units angstrom
no_reorient  #important for SAPT in psi4, default
symmetry c1  #important for SAPT in psi4, default
}

set PROPERTIES_ORIGIN ["COM"]
properties('MP2/aug-cc-pvtz', properties = ['dipole'])
--------------------------------------------------------------------------

    Molecular point group: c1
  Charge       = 0
  Multiplicity = 1
  Basis Set: AUG-CC-PVTZ
    Blend: AUG-CC-PVTZ
  Basis Set: (AUG-CC-PVTZ AUX)
    Blend: AUG-CC-PVTZ-JKFIT

    Orbital Energies [Eh]
    ---------------------

    Doubly Occupied:

       1A    -15.599269     2A    -11.266223     3A    -11.262382
       4A    -11.232309     5A    -11.231243     6A    -11.229971
       7A    -11.224596     8A    -11.223617     9A    -11.222856
      10A    -11.221352    11A     -1.291426    12A     -1.127367
      13A     -1.072692    14A     -0.998078    15A     -0.987695
      16A     -0.930241    17A     -0.839197    18A     -0.804770
      19A     -0.757702    20A     -0.720071    21A     -0.660365
      22A     -0.644796    23A     -0.613593    24A     -0.593540
      25A     -0.587556    26A     -0.580373    27A     -0.543973
      28A     -0.529295    29A     -0.529132    30A     -0.499073
      31A     -0.480944    32A     -0.463262    33A     -0.372501
      34A     -0.298985    35A     -0.276559

  @DF-RHF Final Energy:  -400.62751756379828

   => Energetics <=

    Nuclear Repulsion Energy =            483.0225002014994402
    One-Electron Energy =               -1499.4660293090237246
    Two-Electron Energy =                 615.8160115437259492
    Total Energy =                       -400.6275175637982784
  Basis Set: (AUG-CC-PVTZ AUX)
    Blend: AUG-CC-PVTZ-RI
    Molecular point group: c1

    Geometry (in Angstrom), charge = 0, multiplicity = 1:

       Center              X                  Y                   Z               Mass
    ------------   -----------------  -----------------  -----------------  -----------------
         C           -2.716616219901    -1.272341756592     0.000153133544    12.000000000000
         C           -0.195568319901    -0.419177056592     0.000221033544    12.000000000000
         C           -1.619878319901    -0.255371056592    -0.000031966456    12.000000000000
         C            0.386789680099     0.878334943408    -0.000149966456    12.000000000000
         C           -1.851325319901     1.102659943408    -0.000062966456    12.000000000000
         C            2.026247680099    -1.347088056592     0.000033033544    12.000000000000
         C            2.580822680099    -0.048322056592    -0.000074966456    12.000000000000
         C            0.651840680099    -1.543157056592    -0.000284966456    12.000000000000
         C            1.772448680099     1.081673943408     0.000297033544    12.000000000000
         N           -0.649843319901     1.783494943408    -0.000100966456    14.003074004430
         H            2.692389680099    -2.206706056592    -0.000356966456     1.007825032230
         H            3.661944680099     0.069668943408     0.000270033544     1.007825032230
         H            0.236772680099    -2.549558056592    -0.000064966456     1.007825032230
         H            2.202396680099     2.081589943408     0.000286033544     1.007825032230
         H           -3.654673319901    -0.929569056592    -0.000191966456     1.007825032230
         H           -2.545165319901    -1.987031056592     0.883285033544     1.007825032230
         H           -2.790751319901     1.642865943408    -0.000359966456     1.007825032230
         H           -0.549655319901     2.789484943408    -0.000118966456     1.007825032230
         H           -2.544832319901    -1.987622056592    -0.882528966456     1.007825032230

  Basis Set: AUG-CC-PVTZ
    Blend: AUG-CC-PVTZ
  Basis Set: (AUG-CC-PVTZ AUX)
    Blend: AUG-CC-PVTZ-JKFIT
	 Reference Energy          =    -400.6275175637982784 [Eh]
	 Singles Energy            =      -0.0000000000000000 [Eh]
	 Same-Spin Energy          =      -0.4518447908416312 [Eh]
	 Opposite-Spin Energy      =      -1.4045907768185568 [Eh]
	 Correlation Energy        =      -1.8564355676601880 [Eh]
	 Total Energy              =    -402.4839531314584633 [Eh]

	 ================> DF-SCS-MP2 Energies <==================
	-----------------------------------------------------------
	 SCS Same-Spin Scale       =       0.3333333333333333 [-]
	 SCS Opposite-Spin Scale   =       1.2000000000000000 [-]
	 SCS Same-Spin Energy      =      -0.1506149302805437 [Eh]
	 SCS Opposite-Spin Energy  =      -1.6855089321822680 [Eh]
	 SCS Correlation Energy    =      -1.8361238624628118 [Eh]
	 SCS Total Energy          =    -402.4636414262610629 [Eh]
	-----------------------------------------------------------

  Dipole Moment: [D]
     X:    -0.9642      Y:     1.8396      Z:    -0.0001     Total:     2.0770

*** Psi4 exiting successfully. Buy a developer a beer!
