                               Psi4 1.3.2 release

  ==> Input File <==

--------------------------------------------------------------------------
#psi4
#
memory 32 gb

molecule  {
0 1
  C       -2.6634530    -1.2818078     0.0001492
  C       -0.1785650    -0.3909870     0.0002200
  C       -1.6028750    -0.2271810    -0.0000330
  C        0.4037930     0.9065250    -0.0001510
  C       -1.8343220     1.1308500    -0.0000640
  C        2.0432510    -1.3188980     0.0000320
  C        2.5978260    -0.0201320    -0.0000760
  C        0.6688440    -1.5149670    -0.0002860
  C        1.7894520     1.1098640     0.0002960
  N       -0.6328400     1.8116850    -0.0001020
  H        2.7093930    -2.1785160    -0.0003580
  H        3.6789480     0.0978590     0.0002690
  H        0.2537760    -2.5213680    -0.0000660
  H        2.2194000     2.1097800     0.0002850
  H       -3.6376700    -0.9013790    -0.0001930
  H       -2.5281620    -1.9588410     0.8832840
  H       -2.7737480     1.6710560    -0.0003610
  H       -0.5326520     2.8176750    -0.0001200
  H       -2.5278290    -1.9594320    -0.8825300
units angstrom
no_reorient  #important for SAPT in psi4, default
symmetry c1  #important for SAPT in psi4, default
}

set PROPERTIES_ORIGIN ["COM"]
properties('MP2/aug-cc-pvtz', properties = ['dipole'])
--------------------------------------------------------------------------

    Molecular point group: c1
  Charge       = 0
  Multiplicity = 1
  Basis Set: AUG-CC-PVTZ
    Blend: AUG-CC-PVTZ
  Basis Set: (AUG-CC-PVTZ AUX)
    Blend: AUG-CC-PVTZ-JKFIT

    Orbital Energies [Eh]
    ---------------------

    Doubly Occupied:

       1A    -15.599552     2A    -11.265694     3A    -11.263393
       4A    -11.232037     5A    -11.230892     6A    -11.229666
       7A    -11.223440     8A    -11.222474     9A    -11.221828
      10A    -11.221160    11A     -1.291493    12A     -1.127126
      13A     -1.072265    14A     -0.997602    15A     -0.986598
      16A     -0.930273    17A     -0.839041    18A     -0.804285
      19A     -0.756336    20A     -0.719901    21A     -0.660167
      22A     -0.644676    23A     -0.607319    24A     -0.593008
      25A     -0.589167    26A     -0.575147    27A     -0.540907
      28A     -0.540621    29A     -0.532475    30A     -0.498826
      31A     -0.478837    32A     -0.463114    33A     -0.373550
      34A     -0.298760    35A     -0.277137

  @DF-RHF Final Energy:  -400.63725525332637

   => Energetics <=

    Nuclear Repulsion Energy =            483.1293670942332596
    One-Electron Energy =               -1499.7157098875791235
    Two-Electron Energy =                 615.9490875400196046
    Total Energy =                       -400.6372552533263161
  Basis Set: (AUG-CC-PVTZ AUX)
    Blend: AUG-CC-PVTZ-RI
    Molecular point group: c1

    Geometry (in Angstrom), charge = 0, multiplicity = 1:

       Center              X                  Y                   Z               Mass
    ------------   -----------------  -----------------  -----------------  -----------------
         C           -2.683766819753    -1.306550377105     0.000150499044    12.000000000000
         C           -0.198878819753    -0.415729577105     0.000221299044    12.000000000000
         C           -1.623188819753    -0.251923577105    -0.000031700956    12.000000000000
         C            0.383479180247     0.881782422895    -0.000149700956    12.000000000000
         C           -1.854635819753     1.106107422895    -0.000062700956    12.000000000000
         C            2.022937180247    -1.343640577105     0.000033299044    12.000000000000
         C            2.577512180247    -0.044874577105    -0.000074700956    12.000000000000
         C            0.648530180247    -1.539709577105    -0.000284700956    12.000000000000
         C            1.769138180247     1.085121422895     0.000297299044    12.000000000000
         N           -0.653153819753     1.786942422895    -0.000100700956    14.003074004430
         H            2.689079180247    -2.203258577105    -0.000356700956     1.007825032230
         H            3.658634180247     0.073116422895     0.000270299044     1.007825032230
         H            0.233462180247    -2.546110577105    -0.000064700956     1.007825032230
         H            2.199086180247     2.085037422895     0.000286299044     1.007825032230
         H           -3.657983819753    -0.926121577105    -0.000191700956     1.007825032230
         H           -2.548475819753    -1.983583577105     0.883285299044     1.007825032230
         H           -2.794061819753     1.646313422895    -0.000359700956     1.007825032230
         H           -0.552965819753     2.792932422895    -0.000118700956     1.007825032230
         H           -2.548142819753    -1.984174577105    -0.882528700956     1.007825032230

  Basis Set: AUG-CC-PVTZ
    Blend: AUG-CC-PVTZ
  Basis Set: (AUG-CC-PVTZ AUX)
    Blend: AUG-CC-PVTZ-JKFIT
	 Reference Energy          =    -400.6372552533263729 [Eh]
	 Singles Energy            =      -0.0000000000000000 [Eh]
	 Same-Spin Energy          =      -0.4517111940423859 [Eh]
	 Opposite-Spin Energy      =      -1.4042013762086896 [Eh]
	 Correlation Energy        =      -1.8559125702510755 [Eh]
	 Total Energy              =    -402.4931678235774370 [Eh]

	 ================> DF-SCS-MP2 Energies <==================
	-----------------------------------------------------------
	 SCS Same-Spin Scale       =       0.3333333333333333 [-]
	 SCS Opposite-Spin Scale   =       1.2000000000000000 [-]
	 SCS Same-Spin Energy      =      -0.1505703980141286 [Eh]
	 SCS Opposite-Spin Energy  =      -1.6850416514504274 [Eh]
	 SCS Correlation Energy    =      -1.8356120494645560 [Eh]
	 SCS Total Energy          =    -402.4728673027909167 [Eh]
	-----------------------------------------------------------

  Dipole Moment: [D]
     X:    -0.9678      Y:     1.8195      Z:    -0.0001     Total:     2.0609

*** Psi4 exiting successfully. Buy a developer a beer!
