                               Psi4 1.3.2 release

  ==> Input File <==

--------------------------------------------------------------------------
#psi4
#
memory 32 gb

molecule  {
0 1
  C       -2.6260010    -1.3181790     0.0001460
  C       -0.1785650    -0.3909870     0.0002200
  C       -1.6028750    -0.2271810    -0.0000330
  C        0.4037930     0.9065250    -0.0001510
  C       -1.8343220     1.1308500    -0.0000640
  C        2.0432510    -1.3188980     0.0000320
  C        2.5978260    -0.0201320    -0.0000760
  C        0.6688440    -1.5149670    -0.0002860
  C        1.7894520     1.1098640     0.0002960
  N       -0.6328400     1.8116850    -0.0001020
  H        2.7093930    -2.1785160    -0.0003580
  H        3.6789480     0.0978590     0.0002690
  H        0.2537760    -2.5213680    -0.0000660
  H        2.2194000     2.1097800     0.0002850
  H       -3.6376700    -0.9013790    -0.0001930
  H       -2.5281620    -1.9588410     0.8832840
  H       -2.7737480     1.6710560    -0.0003610
  H       -0.5425621     2.7181673    -0.0001182
  H       -2.5278290    -1.9594320    -0.8825300
units angstrom
no_reorient  #important for SAPT in psi4, default
symmetry c1  #important for SAPT in psi4, default
}

set PROPERTIES_ORIGIN ["COM"]
properties('MP2/aug-cc-pvtz', properties = ['dipole'])
--------------------------------------------------------------------------

    Molecular point group: c1
  Charge       = 0
  Multiplicity = 1
  Basis Set: AUG-CC-PVTZ
    Blend: AUG-CC-PVTZ
  Basis Set: (AUG-CC-PVTZ AUX)
    Blend: AUG-CC-PVTZ-JKFIT

    Orbital Energies [Eh]
    ---------------------

    Doubly Occupied:

       1A    -15.589969     2A    -11.265624     3A    -11.264836
       4A    -11.232348     5A    -11.231030     6A    -11.229920
       7A    -11.223341     8A    -11.222271     9A    -11.221816
      10A    -11.221580    11A     -1.300202    12A     -1.129995
      13A     -1.076574    14A     -0.999841    15A     -0.986967
      16A     -0.937357    17A     -0.841561    18A     -0.812066
      19A     -0.759055    20A     -0.730873    21A     -0.660747
      22A     -0.645297    23A     -0.606148    24A     -0.595211
      25A     -0.592908    26A     -0.570356    27A     -0.552194
      28A     -0.543433    29A     -0.530301    30A     -0.498182
      31A     -0.476553    32A     -0.463937    33A     -0.375199
      34A     -0.299558    35A     -0.278498

  @DF-RHF Final Energy:  -400.63386398007754

   => Energetics <=

    Nuclear Repulsion Energy =            483.9288050148275602
    One-Electron Energy =               -1501.1938431248231609
    Two-Electron Energy =                 616.6311741299181222
    Total Energy =                       -400.6338639800775354
  Basis Set: (AUG-CC-PVTZ AUX)
    Blend: AUG-CC-PVTZ-RI
    Molecular point group: c1

    Geometry (in Angstrom), charge = 0, multiplicity = 1:

       Center              X                  Y                   Z               Mass
    ------------   -----------------  -----------------  -----------------  -----------------
         C           -2.649667414713    -1.338826616996     0.000147578170    12.000000000000
         C           -0.202231414713    -0.411634616996     0.000221578170    12.000000000000
         C           -1.626541414713    -0.247828616996    -0.000031421830    12.000000000000
         C            0.380126585287     0.885877383004    -0.000149421830    12.000000000000
         C           -1.857988414713     1.110202383004    -0.000062421830    12.000000000000
         C            2.019584585287    -1.339545616996     0.000033578170    12.000000000000
         C            2.574159585287    -0.040779616996    -0.000074421830    12.000000000000
         C            0.645177585287    -1.535614616996    -0.000284421830    12.000000000000
         C            1.765785585287     1.089216383004     0.000297578170    12.000000000000
         N           -0.656506414713     1.791037383004    -0.000100421830    14.003074004430
         H            2.685726585287    -2.199163616996    -0.000356421830     1.007825032230
         H            3.655281585287     0.077211383004     0.000270578170     1.007825032230
         H            0.230109585287    -2.542015616996    -0.000064421830     1.007825032230
         H            2.195733585287     2.089132383004     0.000286578170     1.007825032230
         H           -3.661336414713    -0.922026616996    -0.000191421830     1.007825032230
         H           -2.551828414713    -1.979488616996     0.883285578170     1.007825032230
         H           -2.797414414713     1.650408383004    -0.000359421830     1.007825032230
         H           -0.566228514713     2.697519683004    -0.000116621830     1.007825032230
         H           -2.551495414713    -1.980079616996    -0.882528421830     1.007825032230

  Basis Set: AUG-CC-PVTZ
    Blend: AUG-CC-PVTZ
  Basis Set: (AUG-CC-PVTZ AUX)
    Blend: AUG-CC-PVTZ-JKFIT
	 Reference Energy          =    -400.6338639800775354 [Eh]
	 Singles Energy            =      -0.0000000000000000 [Eh]
	 Same-Spin Energy          =      -0.4508772923191134 [Eh]
	 Opposite-Spin Energy      =      -1.4023849647522226 [Eh]
	 Correlation Energy        =      -1.8532622570713362 [Eh]
	 Total Energy              =    -402.4871262371488569 [Eh]

	 ================> DF-SCS-MP2 Energies <==================
	-----------------------------------------------------------
	 SCS Same-Spin Scale       =       0.3333333333333333 [-]
	 SCS Opposite-Spin Scale   =       1.2000000000000000 [-]
	 SCS Same-Spin Energy      =      -0.1502924307730378 [Eh]
	 SCS Opposite-Spin Energy  =      -1.6828619577026671 [Eh]
	 SCS Correlation Energy    =      -1.8331543884757049 [Eh]
	 SCS Total Energy          =    -402.4670183685532265 [Eh]
	-----------------------------------------------------------

  Dipole Moment: [D]
     X:    -0.9542      Y:     1.6813      Z:    -0.0001     Total:     1.9332

*** Psi4 exiting successfully. Buy a developer a beer!
