                               Psi4 1.3.2 release

  ==> Input File <==

--------------------------------------------------------------------------
#psi4
#
memory 32 gb

molecule  {
0 1
  C       -2.6260010    -1.3181790     0.0001460
  C       -0.1785650    -0.3909870     0.0002200
  C       -1.6028750    -0.2271810    -0.0000330
  C        0.4037930     0.9065250    -0.0001510
  C       -1.8343220     1.1308500    -0.0000640
  C        2.0432510    -1.3188980     0.0000320
  C        2.5978260    -0.0201320    -0.0000760
  C        0.6688440    -1.5149670    -0.0002860
  C        1.7856922     1.1340161     0.0003037
  N       -0.6328400     1.8116850    -0.0001020
  H        2.7093930    -2.1785160    -0.0003580
  H        3.6789480     0.0978590     0.0002690
  H        0.2537760    -2.5213680    -0.0000660
  H        2.2194000     2.1097800     0.0002850
  H       -3.6376700    -0.9013790    -0.0001930
  H       -2.5281620    -1.9588410     0.8832840
  H       -2.7737480     1.6710560    -0.0003610
  H       -0.5326520     2.8176750    -0.0001200
  H       -2.5278290    -1.9594320    -0.8825300
units angstrom
no_reorient  #important for SAPT in psi4, default
symmetry c1  #important for SAPT in psi4, default
}

set PROPERTIES_ORIGIN ["COM"]
properties('MP2/aug-cc-pvtz', properties = ['dipole'])
--------------------------------------------------------------------------

    Molecular point group: c1
  Charge       = 0
  Multiplicity = 1
  Basis Set: AUG-CC-PVTZ
    Blend: AUG-CC-PVTZ
  Basis Set: (AUG-CC-PVTZ AUX)
    Blend: AUG-CC-PVTZ-JKFIT

    Orbital Energies [Eh]
    ---------------------

    Doubly Occupied:

       1A    -15.598961     2A    -11.265889     3A    -11.264652
       4A    -11.232638     5A    -11.231500     6A    -11.231056
       7A    -11.223038     8A    -11.222122     9A    -11.221454
      10A    -11.221346    11A     -1.291582    12A     -1.124958
      13A     -1.071782    14A     -0.997427    15A     -0.984480
      16A     -0.930651    17A     -0.839958    18A     -0.802881
      19A     -0.756904    20A     -0.719736    21A     -0.661065
      22A     -0.643091    23A     -0.606059    24A     -0.594293
      25A     -0.591781    26A     -0.568479    27A     -0.551252
      28A     -0.542506    29A     -0.527774    30A     -0.496879
      31A     -0.478927    32A     -0.461464    33A     -0.373756
      34A     -0.299294    35A     -0.276165

  @DF-RHF Final Energy:  -400.63907055123855

   => Energetics <=

    Nuclear Repulsion Energy =            482.9513513873891952
    One-Electron Energy =               -1499.3692435221450978
    Two-Electron Energy =                 615.7788215835173560
    Total Energy =                       -400.6390705512385466
  Basis Set: (AUG-CC-PVTZ AUX)
    Blend: AUG-CC-PVTZ-RI
    Molecular point group: c1

    Geometry (in Angstrom), charge = 0, multiplicity = 1:

       Center              X                  Y                   Z               Mass
    ------------   -----------------  -----------------  -----------------  -----------------
         C           -2.649399397507    -1.341802897885     0.000146887062    12.000000000000
         C           -0.201963397507    -0.414610897885     0.000220887062    12.000000000000
         C           -1.626273397507    -0.250804897885    -0.000032112938    12.000000000000
         C            0.380394602493     0.882901102115    -0.000150112938    12.000000000000
         C           -1.857720397507     1.107226102115    -0.000063112938    12.000000000000
         C            2.019852602493    -1.342521897885     0.000032887062    12.000000000000
         C            2.574427602493    -0.043755897885    -0.000075112938    12.000000000000
         C            0.645445602493    -1.538590897885    -0.000285112938    12.000000000000
         C            1.762293802493     1.110392202115     0.000304587062    12.000000000000
         N           -0.656238397507     1.788061102115    -0.000101112938    14.003074004430
         H            2.685994602493    -2.202139897885    -0.000357112938     1.007825032230
         H            3.655549602493     0.074235102115     0.000269887062     1.007825032230
         H            0.230377602493    -2.544991897885    -0.000065112938     1.007825032230
         H            2.196001602493     2.086156102115     0.000285887062     1.007825032230
         H           -3.661068397507    -0.925002897885    -0.000192112938     1.007825032230
         H           -2.551560397507    -1.982464897885     0.883284887062     1.007825032230
         H           -2.797146397507     1.647432102115    -0.000360112938     1.007825032230
         H           -0.556050397507     2.794051102115    -0.000119112938     1.007825032230
         H           -2.551227397507    -1.983055897885    -0.882529112938     1.007825032230

  Basis Set: AUG-CC-PVTZ
    Blend: AUG-CC-PVTZ
  Basis Set: (AUG-CC-PVTZ AUX)
    Blend: AUG-CC-PVTZ-JKFIT
	 Reference Energy          =    -400.6390705512385466 [Eh]
	 Singles Energy            =      -0.0000000000000000 [Eh]
	 Same-Spin Energy          =      -0.4517347008013957 [Eh]
	 Opposite-Spin Energy      =      -1.4043318620145464 [Eh]
	 Correlation Energy        =      -1.8560665628159421 [Eh]
	 Total Energy              =    -402.4951371140545007 [Eh]

	 ================> DF-SCS-MP2 Energies <==================
	-----------------------------------------------------------
	 SCS Same-Spin Scale       =       0.3333333333333333 [-]
	 SCS Opposite-Spin Scale   =       1.2000000000000000 [-]
	 SCS Same-Spin Energy      =      -0.1505782336004652 [Eh]
	 SCS Opposite-Spin Energy  =      -1.6851982344174556 [Eh]
	 SCS Correlation Energy    =      -1.8357764680179209 [Eh]
	 SCS Total Energy          =    -402.4748470192564582 [Eh]
	-----------------------------------------------------------

  Dipole Moment: [D]
     X:    -0.9635      Y:     1.8078      Z:    -0.0001     Total:     2.0485

*** Psi4 exiting successfully. Buy a developer a beer!
