                               Psi4 1.4a3.dev225

  ==> Input File <==

--------------------------------------------------------------------------
#psi4
#
memory 32 gb

molecule  {
0 1
  C       -2.6260070    -1.3181640     0.0000030
  C       -0.1785920    -0.3910100    -0.0000140
  C       -1.6028860    -0.2271800    -0.0000070
  C        0.4037990     0.9065080    -0.0000120
  C       -1.8343130     1.1308630     0.0000070
  C        2.0432640    -1.3188820     0.0000040
  C        2.5978420    -0.0201300     0.0000040
  C        0.6688530    -1.5149630     0.0000000
  C        1.7894440     1.1098670     0.0000020
  N       -0.6328500     1.8116730     0.0000060
  H        2.7093900    -2.1785170     0.0000140
  H        3.6789570     0.0979150     0.0000120
  H        0.2538510    -2.5213940    -0.0000090
  H        2.2194160     2.1097700    -0.0000210
  H       -3.6376970    -0.9014040    -0.0000240
  H       -2.5280300    -1.9591080     0.8829250
  H       -2.7303954     1.6461432     0.0000051
  H       -0.5326180     2.8176610     0.0000030
  H       -2.5279980    -1.9591520    -0.8828820
units angstrom
no_reorient  #important for SAPT in psi4, default
symmetry c1  #important for SAPT in psi4, default
}

set PROPERTIES_ORIGIN ["COM"]
properties('MP2/aug-cc-pvtz', properties = ['dipole'])
--------------------------------------------------------------------------

    Molecular point group: c1
  Charge       = 0
  Multiplicity = 1
  Basis Set: AUG-CC-PVTZ
    Blend: AUG-CC-PVTZ
  Basis Set: (AUG-CC-PVTZ AUX)
    Blend: AUG-CC-PVTZ-JKFIT

    Orbital Energies [Eh]
    ---------------------

    Doubly Occupied:

       1A    -15.599526     2A    -11.265073     3A    -11.258758
       4A    -11.231710     5A    -11.230526     6A    -11.229371
       7A    -11.222459     8A    -11.221668     9A    -11.221223
      10A    -11.220939    11A     -1.291492    12A     -1.126937
      13A     -1.072139    14A     -0.997256    15A     -0.986710
      16A     -0.931827    17A     -0.841828    18A     -0.804779
      19A     -0.757158    20A     -0.720945    21A     -0.662301
      22A     -0.647496    23A     -0.603400    24A     -0.592556
      25A     -0.591742    26A     -0.573593    27A     -0.551319
      28A     -0.542320    29A     -0.530032    30A     -0.497656
      31A     -0.475721    32A     -0.462905    33A     -0.374358
      34A     -0.298485    35A     -0.277613

  @DF-RHF Final Energy:  -400.63941335937847

   => Energetics <=

    Nuclear Repulsion Energy =            483.5326776261446753
    One-Electron Energy =               -1500.5165378862027410
    Two-Electron Energy =                 616.3444469006794861
    Total Energy =                       -400.6394133593785227
  Basis Set: (AUG-CC-PVTZ AUX)
    Blend: AUG-CC-PVTZ-RI
    Molecular point group: c1

    Geometry (in Angstrom), charge = 0, multiplicity = 1:

       Center              X                  Y                   Z               Mass
    ------------   -----------------  -----------------  -----------------  -----------------
         C           -2.650082490355    -1.339385123588     0.000003371553    12.000000000000
         C           -0.202667490355    -0.412231123588    -0.000013628447    12.000000000000
         C           -1.626961490355    -0.248401123588    -0.000006628447    12.000000000000
         C            0.379723509645     0.885286876412    -0.000011628447    12.000000000000
         C           -1.858388490355     1.109641876412     0.000007371553    12.000000000000
         C            2.019188509645    -1.340103123588     0.000004371553    12.000000000000
         C            2.573766509645    -0.041351123588     0.000004371553    12.000000000000
         C            0.644777509645    -1.536184123588     0.000000371553    12.000000000000
         C            1.765368509645     1.088645876412     0.000002371553    12.000000000000
         N           -0.656925490355     1.790451876412     0.000006371553    14.003074004430
         H            2.685314509645    -2.199738123588     0.000014371553     1.007825032230
         H            3.654881509645     0.076693876412     0.000012371553     1.007825032230
         H            0.229775509645    -2.542615123588    -0.000008628447     1.007825032230
         H            2.195340509645     2.088548876412    -0.000020628447     1.007825032230
         H           -3.661772490355    -0.922625123588    -0.000023628447     1.007825032230
         H           -2.552105490355    -1.980329123588     0.882925371553     1.007825032230
         H           -2.754470890355     1.624922076412     0.000005471553     1.007825032230
         H           -0.556693490355     2.796439876412     0.000003371553     1.007825032230
         H           -2.552073490355    -1.980373123588    -0.882881628447     1.007825032230

  Basis Set: AUG-CC-PVTZ
    Blend: AUG-CC-PVTZ
  Basis Set: (AUG-CC-PVTZ AUX)
    Blend: AUG-CC-PVTZ-JKFIT
	 Reference Energy          =    -400.6394133593784659 [Eh]
	 Singles Energy            =      -0.0000000000000000 [Eh]
	 Same-Spin Energy          =      -0.4515781937751252 [Eh]
	 Opposite-Spin Energy      =      -1.4037504326942882 [Eh]
	 Correlation Energy        =      -1.8553286264694133 [Eh]
	 Total Energy              =    -402.4947419858478952 [Eh]

	 ================> DF-SCS-MP2 Energies <==================
	-----------------------------------------------------------
	 SCS Same-Spin Scale       =       0.3333333333333333 [-]
	 SCS Opposite-Spin Scale   =       1.2000000000000000 [-]
	 SCS Same-Spin Energy      =      -0.1505260645917084 [Eh]
	 SCS Opposite-Spin Energy  =      -1.6845005192331459 [Eh]
	 SCS Correlation Energy    =      -1.8350265838248543 [Eh]
	 SCS Total Energy          =    -402.4744399432033219 [Eh]
	-----------------------------------------------------------

  Dipole Moment: [D]
     X:    -0.9642      Y:     1.8064      Z:    -0.0000     Total:     2.0476

*** Psi4 exiting successfully. Buy a developer a beer!
