                               Psi4 1.4a3.dev225

  ==> Input File <==

--------------------------------------------------------------------------
#psi4
#
memory 32 gb

molecule  {
0 1
  C       -2.6260070    -1.3181640     0.0000030
  C       -0.1785920    -0.3910100    -0.0000140
  C       -1.6028860    -0.2271800    -0.0000070
  C        0.4037990     0.9065080    -0.0000120
  C       -1.8343130     1.1308630     0.0000070
  C        2.0432640    -1.3188820     0.0000040
  C        2.5978420    -0.0201300     0.0000040
  C        0.6688530    -1.5149630     0.0000000
  C        1.7894440     1.1098670     0.0000020
  N       -0.6328500     1.8116730     0.0000060
  H        2.7216404    -2.1943261     0.0000142
  H        3.6789570     0.0979150     0.0000120
  H        0.2538510    -2.5213940    -0.0000090
  H        2.2194160     2.1097700    -0.0000210
  H       -3.6376970    -0.9014040    -0.0000240
  H       -2.5280300    -1.9591080     0.8829250
  H       -2.7737400     1.6710680     0.0000050
  H       -0.5326180     2.8176610     0.0000030
  H       -2.5279980    -1.9591520    -0.8828820
units angstrom
no_reorient  #important for SAPT in psi4, default
symmetry c1  #important for SAPT in psi4, default
}

set PROPERTIES_ORIGIN ["COM"]
properties('MP2/aug-cc-pvtz', properties = ['dipole'])
--------------------------------------------------------------------------

    Molecular point group: c1
  Charge       = 0
  Multiplicity = 1
  Basis Set: AUG-CC-PVTZ
    Blend: AUG-CC-PVTZ
  Basis Set: (AUG-CC-PVTZ AUX)
    Blend: AUG-CC-PVTZ-JKFIT

    Orbital Energies [Eh]
    ---------------------

    Doubly Occupied:

       1A    -15.600017     2A    -11.265365     3A    -11.264627
       4A    -11.232009     5A    -11.230849     6A    -11.229664
       7A    -11.223412     8A    -11.222828     9A    -11.221918
      10A    -11.221423    11A     -1.291765    12A     -1.126984
      13A     -1.072205    14A     -0.997008    15A     -0.985564
      16A     -0.931010    17A     -0.838558    18A     -0.803487
      19A     -0.755517    20A     -0.720115    21A     -0.659468
      22A     -0.642923    23A     -0.603594    24A     -0.592463
      25A     -0.592022    26A     -0.569757    27A     -0.551440
      28A     -0.542148    29A     -0.529386    30A     -0.496185
      31A     -0.475865    32A     -0.463203    33A     -0.374648
      34A     -0.298742    35A     -0.277826

  @DF-RHF Final Energy:  -400.63954626696335

   => Energetics <=

    Nuclear Repulsion Energy =            483.1562836055343269
    One-Electron Energy =               -1499.7836682475117414
    Two-Electron Energy =                 615.9878383750140074
    Total Energy =                       -400.6395462669634071
  Basis Set: (AUG-CC-PVTZ AUX)
    Blend: AUG-CC-PVTZ-RI
    Molecular point group: c1

    Geometry (in Angstrom), charge = 0, multiplicity = 1:

       Center              X                  Y                   Z               Mass
    ------------   -----------------  -----------------  -----------------  -----------------
         C           -2.649843406839    -1.339455214268     0.000003370784    12.000000000000
         C           -0.202428406839    -0.412301214268    -0.000013629216    12.000000000000
         C           -1.626722406839    -0.248471214268    -0.000006629216    12.000000000000
         C            0.379962593161     0.885216785732    -0.000011629216    12.000000000000
         C           -1.858149406839     1.109571785732     0.000007370784    12.000000000000
         C            2.019427593161    -1.340173214268     0.000004370784    12.000000000000
         C            2.574005593161    -0.041421214268     0.000004370784    12.000000000000
         C            0.645016593161    -1.536254214268     0.000000370784    12.000000000000
         C            1.765607593161     1.088575785732     0.000002370784    12.000000000000
         N           -0.656686406839     1.790381785732     0.000006370784    14.003074004430
         H            2.697803993161    -2.215617314268     0.000014570784     1.007825032230
         H            3.655120593161     0.076623785732     0.000012370784     1.007825032230
         H            0.230014593161    -2.542685214268    -0.000008629216     1.007825032230
         H            2.195579593161     2.088478785732    -0.000020629216     1.007825032230
         H           -3.661533406839    -0.922695214268    -0.000023629216     1.007825032230
         H           -2.551866406839    -1.980399214268     0.882925370784     1.007825032230
         H           -2.797576406839     1.649776785732     0.000005370784     1.007825032230
         H           -0.556454406839     2.796369785732     0.000003370784     1.007825032230
         H           -2.551834406839    -1.980443214268    -0.882881629216     1.007825032230

  Basis Set: AUG-CC-PVTZ
    Blend: AUG-CC-PVTZ
  Basis Set: (AUG-CC-PVTZ AUX)
    Blend: AUG-CC-PVTZ-JKFIT
	 Reference Energy          =    -400.6395462669633503 [Eh]
	 Singles Energy            =      -0.0000000000000000 [Eh]
	 Same-Spin Energy          =      -0.4517253889680742 [Eh]
	 Opposite-Spin Energy      =      -1.4042870367582934 [Eh]
	 Correlation Energy        =      -1.8560124257263677 [Eh]
	 Total Energy              =    -402.4955586926897126 [Eh]

	 ================> DF-SCS-MP2 Energies <==================
	-----------------------------------------------------------
	 SCS Same-Spin Scale       =       0.3333333333333333 [-]
	 SCS Opposite-Spin Scale   =       1.2000000000000000 [-]
	 SCS Same-Spin Energy      =      -0.1505751296560247 [Eh]
	 SCS Opposite-Spin Energy  =      -1.6851444441099519 [Eh]
	 SCS Correlation Energy    =      -1.8357195737659766 [Eh]
	 SCS Total Energy          =    -402.4752658407293211 [Eh]
	-----------------------------------------------------------

  Dipole Moment: [D]
     X:    -0.9647      Y:     1.8130      Z:    -0.0000     Total:     2.0536

*** Psi4 exiting successfully. Buy a developer a beer!
