                               Psi4 1.3.2 release

  ==> Input File <==

--------------------------------------------------------------------------
#psi4
#
memory 32 gb

molecule  {
0 1
  C       -2.6260010    -1.3181790     0.0001460
  C       -0.1785650    -0.3909870     0.0002200
  C       -1.6028750    -0.2271810    -0.0000330
  C        0.4037930     0.9065250    -0.0001510
  C       -1.8343220     1.1308500    -0.0000640
  C        2.0432510    -1.3188980     0.0000320
  C        2.4590300     0.0307221    -0.0001218
  C        0.6688440    -1.5149670    -0.0002860
  C        1.7894520     1.1098640     0.0002960
  N       -0.6328400     1.8116850    -0.0001020
  H        2.7093930    -2.1785160    -0.0003580
  H        3.6789480     0.0978590     0.0002690
  H        0.2537760    -2.5213680    -0.0000660
  H        2.2194000     2.1097800     0.0002850
  H       -3.6376700    -0.9013790    -0.0001930
  H       -2.5281620    -1.9588410     0.8832840
  H       -2.7737480     1.6710560    -0.0003610
  H       -0.5326520     2.8176750    -0.0001200
  H       -2.5278290    -1.9594320    -0.8825300
units angstrom
no_reorient  #important for SAPT in psi4, default
symmetry c1  #important for SAPT in psi4, default
}

set PROPERTIES_ORIGIN ["COM"]
properties('MP2/aug-cc-pvtz', properties = ['dipole'])
--------------------------------------------------------------------------

    Molecular point group: c1
  Charge       = 0
  Multiplicity = 1
  Basis Set: AUG-CC-PVTZ
    Blend: AUG-CC-PVTZ
  Basis Set: (AUG-CC-PVTZ AUX)
    Blend: AUG-CC-PVTZ-JKFIT

    Orbital Energies [Eh]
    ---------------------

    Doubly Occupied:

       1A    -15.601115     2A    -11.265100     3A    -11.260111
       4A    -11.232080     5A    -11.228233     6A    -11.222213
       7A    -11.221047     8A    -11.220688     9A    -11.219016
      10A    -11.218017    11A     -1.291562    12A     -1.143696
      13A     -1.076034    14A     -1.009682    15A     -0.982569
      16A     -0.930785    17A     -0.839325    18A     -0.798340
      19A     -0.757920    20A     -0.722432    21A     -0.656447
      22A     -0.642723    23A     -0.606701    24A     -0.602918
      25A     -0.592813    26A     -0.568455    27A     -0.552229
      28A     -0.544131    29A     -0.509248    30A     -0.505664
      31A     -0.474402    32A     -0.453557    33A     -0.382379
      34A     -0.297316    35A     -0.282916

  @DF-RHF Final Energy:  -400.61186300145346

   => Energetics <=

    Nuclear Repulsion Energy =            486.0469595249817303
    One-Electron Energy =               -1505.4939244288725604
    Two-Electron Energy =                 618.8351019024373727
    Total Energy =                       -400.6118630014534574
  Basis Set: (AUG-CC-PVTZ AUX)
    Blend: AUG-CC-PVTZ-RI
    Molecular point group: c1

    Geometry (in Angstrom), charge = 0, multiplicity = 1:

       Center              X                  Y                   Z               Mass
    ------------   -----------------  -----------------  -----------------  -----------------
         C           -2.637036605571    -1.344247511035     0.000151785077    12.000000000000
         C           -0.189600605571    -0.417055511035     0.000225785077    12.000000000000
         C           -1.613910605571    -0.253249511035    -0.000027214923    12.000000000000
         C            0.392757394429     0.880456488965    -0.000145214923    12.000000000000
         C           -1.845357605571     1.104781488965    -0.000058214923    12.000000000000
         C            2.032215394429    -1.344966511035     0.000037785077    12.000000000000
         C            2.447994394429     0.004653588965    -0.000116014923    12.000000000000
         C            0.657808394429    -1.541035511035    -0.000280214923    12.000000000000
         C            1.778416394429     1.083795488965     0.000301785077    12.000000000000
         N           -0.643875605571     1.785616488965    -0.000096214923    14.003074004430
         H            2.698357394429    -2.204584511035    -0.000352214923     1.007825032230
         H            3.667912394429     0.071790488965     0.000274785077     1.007825032230
         H            0.242740394429    -2.547436511035    -0.000060214923     1.007825032230
         H            2.208364394429     2.083711488965     0.000290785077     1.007825032230
         H           -3.648705605571    -0.927447511035    -0.000187214923     1.007825032230
         H           -2.539197605571    -1.984909511035     0.883289785077     1.007825032230
         H           -2.784783605571     1.644987488965    -0.000355214923     1.007825032230
         H           -0.543687605571     2.791606488965    -0.000114214923     1.007825032230
         H           -2.538864605571    -1.985500511035    -0.882524214923     1.007825032230

  Basis Set: AUG-CC-PVTZ
    Blend: AUG-CC-PVTZ
  Basis Set: (AUG-CC-PVTZ AUX)
    Blend: AUG-CC-PVTZ-JKFIT
	 Reference Energy          =    -400.6118630014534574 [Eh]
	 Singles Energy            =      -0.0000000000000000 [Eh]
	 Same-Spin Energy          =      -0.4517525273808711 [Eh]
	 Opposite-Spin Energy      =      -1.4046215592490803 [Eh]
	 Correlation Energy        =      -1.8563740866299514 [Eh]
	 Total Energy              =    -402.4682370880834128 [Eh]

	 ================> DF-SCS-MP2 Energies <==================
	-----------------------------------------------------------
	 SCS Same-Spin Scale       =       0.3333333333333333 [-]
	 SCS Opposite-Spin Scale   =       1.2000000000000000 [-]
	 SCS Same-Spin Energy      =      -0.1505841757936237 [Eh]
	 SCS Opposite-Spin Energy  =      -1.6855458710988962 [Eh]
	 SCS Correlation Energy    =      -1.8361300468925199 [Eh]
	 SCS Total Energy          =    -402.4479930483459498 [Eh]
	-----------------------------------------------------------

  Dipole Moment: [D]
     X:    -0.9539      Y:     1.7902      Z:    -0.0001     Total:     2.0285

*** Psi4 exiting successfully. Buy a developer a beer!
