                               Psi4 1.4a3.dev225

  ==> Input File <==

--------------------------------------------------------------------------
#psi4
#
memory 32 gb

molecule  {
0 1
  C       -2.6260070    -1.3181640     0.0000030
  C       -0.1785920    -0.3910100    -0.0000140
  C       -1.6370888    -0.2636515    -0.0000067
  C        0.4037990     0.9065080    -0.0000120
  C       -1.8343130     1.1308630     0.0000070
  C        2.0432640    -1.3188820     0.0000040
  C        2.5978420    -0.0201300     0.0000040
  C        0.6688530    -1.5149630     0.0000000
  C        1.7894440     1.1098670     0.0000020
  N       -0.6328500     1.8116730     0.0000060
  H        2.7093900    -2.1785170     0.0000140
  H        3.6789570     0.0979150     0.0000120
  H        0.2538510    -2.5213940    -0.0000090
  H        2.2194160     2.1097700    -0.0000210
  H       -3.6376970    -0.9014040    -0.0000240
  H       -2.5280300    -1.9591080     0.8829250
  H       -2.7737400     1.6710680     0.0000050
  H       -0.5326180     2.8176610     0.0000030
  H       -2.5279980    -1.9591520    -0.8828820
units angstrom
no_reorient  #important for SAPT in psi4, default
symmetry c1  #important for SAPT in psi4, default
}

set PROPERTIES_ORIGIN ["COM"]
properties('MP2/aug-cc-pvtz', properties = ['dipole'])
--------------------------------------------------------------------------

    Molecular point group: c1
  Charge       = 0
  Multiplicity = 1
  Basis Set: AUG-CC-PVTZ
    Blend: AUG-CC-PVTZ
  Basis Set: (AUG-CC-PVTZ AUX)
    Blend: AUG-CC-PVTZ-JKFIT

    Orbital Energies [Eh]
    ---------------------

    Doubly Occupied:

       1A    -15.601617     2A    -11.269036     3A    -11.265957
       4A    -11.231968     5A    -11.229678     6A    -11.229146
       7A    -11.226562     8A    -11.224695     9A    -11.220624
      10A    -11.219785    11A     -1.289518    12A     -1.126623
      13A     -1.073243    14A     -0.999003    15A     -0.986402
      16A     -0.931089    17A     -0.837971    18A     -0.801541
      19A     -0.755945    20A     -0.720680    21A     -0.658347
      22A     -0.643321    23A     -0.605519    24A     -0.592662
      25A     -0.592480    26A     -0.569673    27A     -0.554443
      28A     -0.553950    29A     -0.527748    30A     -0.492563
      31A     -0.474615    32A     -0.462822    33A     -0.370237
      34A     -0.298138    35A     -0.275079

  @DF-RHF Final Energy:  -400.63498628540566

   => Energetics <=

    Nuclear Repulsion Energy =            482.6415998802766012
    One-Electron Energy =               -1498.7278163310134005
    Two-Electron Energy =                 615.4512301653312534
    Total Energy =                       -400.6349862854056028
  Basis Set: (AUG-CC-PVTZ AUX)
    Blend: AUG-CC-PVTZ-RI
    Molecular point group: c1

    Geometry (in Angstrom), charge = 0, multiplicity = 1:

       Center              X                  Y                   Z               Mass
    ------------   -----------------  -----------------  -----------------  -----------------
         C           -2.646617889385    -1.336237743188     0.000003344857    12.000000000000
         C           -0.199202889385    -0.409083743188    -0.000013655143    12.000000000000
         C           -1.657699689385    -0.281725243188    -0.000006355143    12.000000000000
         C            0.383188110615     0.888434256812    -0.000011655143    12.000000000000
         C           -1.854923889385     1.112789256812     0.000007344857    12.000000000000
         C            2.022653110615    -1.336955743188     0.000004344857    12.000000000000
         C            2.577231110615    -0.038203743188     0.000004344857    12.000000000000
         C            0.648242110615    -1.533036743188     0.000000344857    12.000000000000
         C            1.768833110615     1.091793256812     0.000002344857    12.000000000000
         N           -0.653460889385     1.793599256812     0.000006344857    14.003074004430
         H            2.688779110615    -2.196590743188     0.000014344857     1.007825032230
         H            3.658346110615     0.079841256812     0.000012344857     1.007825032230
         H            0.233240110615    -2.539467743188    -0.000008655143     1.007825032230
         H            2.198805110615     2.091696256812    -0.000020655143     1.007825032230
         H           -3.658307889385    -0.919477743188    -0.000023655143     1.007825032230
         H           -2.548640889385    -1.977181743188     0.882925344857     1.007825032230
         H           -2.794350889385     1.652994256812     0.000005344857     1.007825032230
         H           -0.553228889385     2.799587256812     0.000003344857     1.007825032230
         H           -2.548608889385    -1.977225743188    -0.882881655143     1.007825032230

  Basis Set: AUG-CC-PVTZ
    Blend: AUG-CC-PVTZ
  Basis Set: (AUG-CC-PVTZ AUX)
    Blend: AUG-CC-PVTZ-JKFIT
	 Reference Energy          =    -400.6349862854056596 [Eh]
	 Singles Energy            =      -0.0000000000000000 [Eh]
	 Same-Spin Energy          =      -0.4522522665720368 [Eh]
	 Opposite-Spin Energy      =      -1.4050992479176170 [Eh]
	 Correlation Energy        =      -1.8573515144896537 [Eh]
	 Total Energy              =    -402.4923377998953242 [Eh]

	 ================> DF-SCS-MP2 Energies <==================
	-----------------------------------------------------------
	 SCS Same-Spin Scale       =       0.3333333333333333 [-]
	 SCS Opposite-Spin Scale   =       1.2000000000000000 [-]
	 SCS Same-Spin Energy      =      -0.1507507555240122 [Eh]
	 SCS Opposite-Spin Energy  =      -1.6861190975011404 [Eh]
	 SCS Correlation Energy    =      -1.8368698530251526 [Eh]
	 SCS Total Energy          =    -402.4718561384308373 [Eh]
	-----------------------------------------------------------

  Dipole Moment: [D]
     X:    -0.9728      Y:     1.7683      Z:    -0.0000     Total:     2.0182

*** Psi4 exiting successfully. Buy a developer a beer!
