                               Psi4 1.4a3.dev225

  ==> Input File <==

--------------------------------------------------------------------------
#psi4
#
memory 32 gb

molecule  {
0 1
  C       -2.6260070    -1.3181640     0.0000030
  C       -0.1785920    -0.3910100    -0.0000140
  C       -1.6028860    -0.2271800    -0.0000070
  C        0.4037990     0.9065080    -0.0000120
  C       -1.8343130     1.1308630     0.0000070
  C        2.0432640    -1.3188820     0.0000040
  C        2.5978420    -0.0201300     0.0000040
  C        0.6688530    -1.5149630     0.0000000
  C        1.7894440     1.1098670     0.0000020
  N       -0.6328500     1.8116730     0.0000060
  H        2.7093900    -2.1785170     0.0000140
  H        3.6789570     0.0979150     0.0000120
  H        0.2729116    -2.4751696    -0.0000086
  H        2.2194160     2.1097700    -0.0000210
  H       -3.6376970    -0.9014040    -0.0000240
  H       -2.5280300    -1.9591080     0.8829250
  H       -2.7737400     1.6710680     0.0000050
  H       -0.5326180     2.8176610     0.0000030
  H       -2.5279980    -1.9591520    -0.8828820
units angstrom
no_reorient  #important for SAPT in psi4, default
symmetry c1  #important for SAPT in psi4, default
}

set PROPERTIES_ORIGIN ["COM"]
properties('MP2/aug-cc-pvtz', properties = ['dipole'])
--------------------------------------------------------------------------

    Molecular point group: c1
  Charge       = 0
  Multiplicity = 1
  Basis Set: AUG-CC-PVTZ
    Blend: AUG-CC-PVTZ
  Basis Set: (AUG-CC-PVTZ AUX)
    Blend: AUG-CC-PVTZ-JKFIT

    Orbital Energies [Eh]
    ---------------------

    Doubly Occupied:

       1A    -15.599772     2A    -11.264915     3A    -11.264451
       4A    -11.231683     5A    -11.229132     6A    -11.224783
       7A    -11.222513     8A    -11.221603     9A    -11.221181
      10A    -11.220587    11A     -1.291494    12A     -1.127142
      13A     -1.072111    14A     -0.998671    15A     -0.985559
      16A     -0.931242    17A     -0.840747    18A     -0.803708
      19A     -0.756862    20A     -0.723111    21A     -0.661284
      22A     -0.644469    23A     -0.605881    24A     -0.595198
      25A     -0.591824    26A     -0.569848    27A     -0.551370
      28A     -0.542531    29A     -0.529812    30A     -0.498145
      31A     -0.477181    32A     -0.462770    33A     -0.374362
      34A     -0.298382    35A     -0.277566

  @DF-RHF Final Energy:  -400.63947112299212

   => Energetics <=

    Nuclear Repulsion Energy =            483.5181601319476385
    One-Electron Energy =               -1500.4914771371093138
    Two-Electron Energy =                 616.3338458821694985
    Total Energy =                       -400.6394711229921768
  Basis Set: (AUG-CC-PVTZ AUX)
    Blend: AUG-CC-PVTZ-RI
    Molecular point group: c1

    Geometry (in Angstrom), charge = 0, multiplicity = 1:

       Center              X                  Y                   Z               Mass
    ------------   -----------------  -----------------  -----------------  -----------------
         C           -2.649895770513    -1.339932190273     0.000003369247    12.000000000000
         C           -0.202480770513    -0.412778190273    -0.000013630753    12.000000000000
         C           -1.626774770513    -0.248948190273    -0.000006630753    12.000000000000
         C            0.379910229487     0.884739809727    -0.000011630753    12.000000000000
         C           -1.858201770513     1.109094809727     0.000007369247    12.000000000000
         C            2.019375229487    -1.340650190273     0.000004369247    12.000000000000
         C            2.573953229487    -0.041898190273     0.000004369247    12.000000000000
         C            0.644964229487    -1.536731190273     0.000000369247    12.000000000000
         C            1.765555229487     1.088098809727     0.000002369247    12.000000000000
         N           -0.656738770513     1.789904809727     0.000006369247    14.003074004430
         H            2.685501229487    -2.200285190273     0.000014369247     1.007825032230
         H            3.655068229487     0.076146809727     0.000012369247     1.007825032230
         H            0.249022829487    -2.496937790273    -0.000008230753     1.007825032230
         H            2.195527229487     2.088001809727    -0.000020630753     1.007825032230
         H           -3.661585770513    -0.923172190273    -0.000023630753     1.007825032230
         H           -2.551918770513    -1.980876190273     0.882925369247     1.007825032230
         H           -2.797628770513     1.649299809727     0.000005369247     1.007825032230
         H           -0.556506770513     2.795892809727     0.000003369247     1.007825032230
         H           -2.551886770513    -1.980920190273    -0.882881630753     1.007825032230

  Basis Set: AUG-CC-PVTZ
    Blend: AUG-CC-PVTZ
  Basis Set: (AUG-CC-PVTZ AUX)
    Blend: AUG-CC-PVTZ-JKFIT
	 Reference Energy          =    -400.6394711229921199 [Eh]
	 Singles Energy            =      -0.0000000000000000 [Eh]
	 Same-Spin Energy          =      -0.4515846525930442 [Eh]
	 Opposite-Spin Energy      =      -1.4038066959508815 [Eh]
	 Correlation Energy        =      -1.8553913485439257 [Eh]
	 Total Energy              =    -402.4948624715360666 [Eh]

	 ================> DF-SCS-MP2 Energies <==================
	-----------------------------------------------------------
	 SCS Same-Spin Scale       =       0.3333333333333333 [-]
	 SCS Opposite-Spin Scale   =       1.2000000000000000 [-]
	 SCS Same-Spin Energy      =      -0.1505282175310147 [Eh]
	 SCS Opposite-Spin Energy  =      -1.6845680351410577 [Eh]
	 SCS Correlation Energy    =      -1.8350962526720724 [Eh]
	 SCS Total Energy          =    -402.4745673756642077 [Eh]
	-----------------------------------------------------------

  Dipole Moment: [D]
     X:    -0.9614      Y:     1.7872      Z:    -0.0000     Total:     2.0293

*** Psi4 exiting successfully. Buy a developer a beer!
