                               Psi4 1.3.2 release

  ==> Input File <==

--------------------------------------------------------------------------
#psi4
#
memory 32 gb

molecule  {
0 1
  C       -2.6260010    -1.3181790     0.0001460
  C       -0.1785650    -0.3909870     0.0002200
  C       -1.6028750    -0.2271810    -0.0000330
  C        0.4037930     0.9065250    -0.0001510
  C       -1.8343220     1.1308500    -0.0000640
  C        1.9982626    -1.2987524     0.0000497
  C        2.5978260    -0.0201320    -0.0000760
  C        0.6688440    -1.5149670    -0.0002860
  C        1.7894520     1.1098640     0.0002960
  N       -0.6328400     1.8116850    -0.0001020
  H        2.7093930    -2.1785160    -0.0003580
  H        3.6789480     0.0978590     0.0002690
  H        0.2537760    -2.5213680    -0.0000660
  H        2.2194000     2.1097800     0.0002850
  H       -3.6376700    -0.9013790    -0.0001930
  H       -2.5281620    -1.9588410     0.8832840
  H       -2.7737480     1.6710560    -0.0003610
  H       -0.5326520     2.8176750    -0.0001200
  H       -2.5278290    -1.9594320    -0.8825300
units angstrom
no_reorient  #important for SAPT in psi4, default
symmetry c1  #important for SAPT in psi4, default
}

set PROPERTIES_ORIGIN ["COM"]
properties('MP2/aug-cc-pvtz', properties = ['dipole'])
--------------------------------------------------------------------------

    Molecular point group: c1
  Charge       = 0
  Multiplicity = 1
  Basis Set: AUG-CC-PVTZ
    Blend: AUG-CC-PVTZ
  Basis Set: (AUG-CC-PVTZ AUX)
    Blend: AUG-CC-PVTZ-JKFIT

    Orbital Energies [Eh]
    ---------------------

    Doubly Occupied:

       1A    -15.599996     2A    -11.263839     3A    -11.263756
       4A    -11.232632     5A    -11.229276     6A    -11.225368
       7A    -11.222058     8A    -11.221342     9A    -11.220781
      10A    -11.220230    11A     -1.291208    12A     -1.131716
      13A     -1.071867    14A     -1.002094    15A     -0.984429
      16A     -0.931171    17A     -0.836906    18A     -0.804567
      19A     -0.755423    20A     -0.720646    21A     -0.658868
      22A     -0.641113    23A     -0.606242    24A     -0.592551
      25A     -0.591921    26A     -0.570340    27A     -0.551327
      28A     -0.542347    29A     -0.531280    30A     -0.488468
      31A     -0.476189    32A     -0.466881    33A     -0.374917
      34A     -0.300372    35A     -0.278150

  @DF-RHF Final Energy:  -400.63718948384928

   => Energetics <=

    Nuclear Repulsion Energy =            484.1629927773446980
    One-Electron Energy =               -1501.7998225047101641
    Two-Electron Energy =                 616.9996402435161826
    Total Energy =                       -400.6371894838492835
  Basis Set: (AUG-CC-PVTZ AUX)
    Blend: AUG-CC-PVTZ-RI
    Molecular point group: c1

    Geometry (in Angstrom), charge = 0, multiplicity = 1:

       Center              X                  Y                   Z               Mass
    ------------   -----------------  -----------------  -----------------  -----------------
         C           -2.645624849618    -1.341436096051     0.000145971545    12.000000000000
         C           -0.198188849618    -0.414244096051     0.000219971545    12.000000000000
         C           -1.622498849618    -0.250438096051    -0.000033028455    12.000000000000
         C            0.384169150382     0.883267903949    -0.000151028455    12.000000000000
         C           -1.853945849618     1.107592903949    -0.000064028455    12.000000000000
         C            1.978638750382    -1.322009496051     0.000049671545    12.000000000000
         C            2.578202150382    -0.043389096051    -0.000076028455    12.000000000000
         C            0.649220150382    -1.538224096051    -0.000286028455    12.000000000000
         C            1.769828150382     1.086606903949     0.000295971545    12.000000000000
         N           -0.652463849618     1.788427903949    -0.000102028455    14.003074004430
         H            2.689769150382    -2.201773096051    -0.000358028455     1.007825032230
         H            3.659324150382     0.074601903949     0.000268971545     1.007825032230
         H            0.234152150382    -2.544625096051    -0.000066028455     1.007825032230
         H            2.199776150382     2.086522903949     0.000284971545     1.007825032230
         H           -3.657293849618    -0.924636096051    -0.000193028455     1.007825032230
         H           -2.547785849618    -1.982098096051     0.883283971545     1.007825032230
         H           -2.793371849618     1.647798903949    -0.000361028455     1.007825032230
         H           -0.552275849618     2.794417903949    -0.000120028455     1.007825032230
         H           -2.547452849618    -1.982689096051    -0.882530028455     1.007825032230

  Basis Set: AUG-CC-PVTZ
    Blend: AUG-CC-PVTZ
  Basis Set: (AUG-CC-PVTZ AUX)
    Blend: AUG-CC-PVTZ-JKFIT
	 Reference Energy          =    -400.6371894838492835 [Eh]
	 Singles Energy            =      -0.0000000000000000 [Eh]
	 Same-Spin Energy          =      -0.4517688411456441 [Eh]
	 Opposite-Spin Energy      =      -1.4041349367892264 [Eh]
	 Correlation Energy        =      -1.8559037779348706 [Eh]
	 Total Energy              =    -402.4930932617841677 [Eh]

	 ================> DF-SCS-MP2 Energies <==================
	-----------------------------------------------------------
	 SCS Same-Spin Scale       =       0.3333333333333333 [-]
	 SCS Opposite-Spin Scale   =       1.2000000000000000 [-]
	 SCS Same-Spin Energy      =      -0.1505896137152147 [Eh]
	 SCS Opposite-Spin Energy  =      -1.6849619241470717 [Eh]
	 SCS Correlation Energy    =      -1.8355515378622864 [Eh]
	 SCS Total Energy          =    -402.4727410217115562 [Eh]
	-----------------------------------------------------------

  Dipole Moment: [D]
     X:    -0.9430      Y:     1.8126      Z:    -0.0001     Total:     2.0432

*** Psi4 exiting successfully. Buy a developer a beer!
