                               Psi4 1.3.2 release

  ==> Input File <==

--------------------------------------------------------------------------
#psi4
#
memory 32 gb

molecule  {
0 1
  C       -2.6260010    -1.3181790     0.0001460
  C       -0.1785650    -0.3909870     0.0002200
  C       -1.6028750    -0.2271810    -0.0000330
  C        0.4037930     0.9065250    -0.0001510
  C       -1.8343220     1.1308500    -0.0000640
  C        2.0432510    -1.3188980     0.0000320
  C        2.6204081    -0.0300085    -0.0000682
  C        0.6688440    -1.5149670    -0.0002860
  C        1.7894520     1.1098640     0.0002960
  N       -0.6328400     1.8116850    -0.0001020
  H        2.7093930    -2.1785160    -0.0003580
  H        3.6789480     0.0978590     0.0002690
  H        0.2537760    -2.5213680    -0.0000660
  H        2.2194000     2.1097800     0.0002850
  H       -3.6376700    -0.9013790    -0.0001930
  H       -2.5281620    -1.9588410     0.8832840
  H       -2.7737480     1.6710560    -0.0003610
  H       -0.5326520     2.8176750    -0.0001200
  H       -2.5278290    -1.9594320    -0.8825300
units angstrom
no_reorient  #important for SAPT in psi4, default
symmetry c1  #important for SAPT in psi4, default
}

set PROPERTIES_ORIGIN ["COM"]
properties('MP2/aug-cc-pvtz', properties = ['dipole'])
--------------------------------------------------------------------------

    Molecular point group: c1
  Charge       = 0
  Multiplicity = 1
  Basis Set: AUG-CC-PVTZ
    Blend: AUG-CC-PVTZ
  Basis Set: (AUG-CC-PVTZ AUX)
    Blend: AUG-CC-PVTZ-JKFIT

    Orbital Energies [Eh]
    ---------------------

    Doubly Occupied:

       1A    -15.599808     2A    -11.265458     3A    -11.265406
       4A    -11.233843     5A    -11.230495     6A    -11.229956
       7A    -11.223191     8A    -11.222243     9A    -11.221531
      10A    -11.221468    11A     -1.291833    12A     -1.124999
      13A     -1.071626    14A     -0.995839    15A     -0.986029
      16A     -0.931062    17A     -0.839337    18A     -0.804866
      19A     -0.755663    20A     -0.719998    21A     -0.662103
      22A     -0.644012    23A     -0.603510    24A     -0.591952
      25A     -0.591594    26A     -0.569590    27A     -0.551372
      28A     -0.543687    29A     -0.532123    30A     -0.495633
      31A     -0.476962    32A     -0.461657    33A     -0.373444
      34A     -0.299243    35A     -0.276673

  @DF-RHF Final Energy:  -400.63909613315462

   => Energetics <=

    Nuclear Repulsion Energy =            482.8258272731598026
    One-Electron Energy =               -1499.1134291007613228
    Two-Electron Energy =                 615.6485056944468397
    Total Energy =                       -400.6390961331546805
  Basis Set: (AUG-CC-PVTZ AUX)
    Blend: AUG-CC-PVTZ-RI
    Molecular point group: c1

    Geometry (in Angstrom), charge = 0, multiplicity = 1:

       Center              X                  Y                   Z               Mass
    ------------   -----------------  -----------------  -----------------  -----------------
         C           -2.651811042894    -1.338687522144     0.000146877907    12.000000000000
         C           -0.204375042894    -0.411495522144     0.000220877907    12.000000000000
         C           -1.628685042894    -0.247689522144    -0.000032122093    12.000000000000
         C            0.377982957106     0.886016477856    -0.000150122093    12.000000000000
         C           -1.860132042894     1.110341477856    -0.000063122093    12.000000000000
         C            2.017440957106    -1.339406522144     0.000032877907    12.000000000000
         C            2.594598057106    -0.050517022144    -0.000067322093    12.000000000000
         C            0.643033957106    -1.535475522144    -0.000285122093    12.000000000000
         C            1.763641957106     1.089355477856     0.000296877907    12.000000000000
         N           -0.658650042894     1.791176477856    -0.000101122093    14.003074004430
         H            2.683582957106    -2.199024522144    -0.000357122093     1.007825032230
         H            3.653137957106     0.077350477856     0.000269877907     1.007825032230
         H            0.227965957106    -2.541876522144    -0.000065122093     1.007825032230
         H            2.193589957106     2.089271477856     0.000285877907     1.007825032230
         H           -3.663480042894    -0.921887522144    -0.000192122093     1.007825032230
         H           -2.553972042894    -1.979349522144     0.883284877907     1.007825032230
         H           -2.799558042894     1.650547477856    -0.000360122093     1.007825032230
         H           -0.558462042894     2.797166477856    -0.000119122093     1.007825032230
         H           -2.553639042894    -1.979940522144    -0.882529122093     1.007825032230

  Basis Set: AUG-CC-PVTZ
    Blend: AUG-CC-PVTZ
  Basis Set: (AUG-CC-PVTZ AUX)
    Blend: AUG-CC-PVTZ-JKFIT
	 Reference Energy          =    -400.6390961331546237 [Eh]
	 Singles Energy            =      -0.0000000000000000 [Eh]
	 Same-Spin Energy          =      -0.4517474484987946 [Eh]
	 Opposite-Spin Energy      =      -1.4043169843802270 [Eh]
	 Correlation Energy        =      -1.8560644328790215 [Eh]
	 Total Energy              =    -402.4951605660336327 [Eh]

	 ================> DF-SCS-MP2 Energies <==================
	-----------------------------------------------------------
	 SCS Same-Spin Scale       =       0.3333333333333333 [-]
	 SCS Opposite-Spin Scale   =       1.2000000000000000 [-]
	 SCS Same-Spin Energy      =      -0.1505824828329315 [Eh]
	 SCS Opposite-Spin Energy  =      -1.6851803812562725 [Eh]
	 SCS Correlation Energy    =      -1.8357628640892041 [Eh]
	 SCS Total Energy          =    -402.4748589972438140 [Eh]
	-----------------------------------------------------------

  Dipole Moment: [D]
     X:    -0.9702      Y:     1.8051      Z:    -0.0001     Total:     2.0493

*** Psi4 exiting successfully. Buy a developer a beer!
