                               Psi4 1.3.2 release

  ==> Input File <==

--------------------------------------------------------------------------
#psi4
#
memory 32 gb

molecule  {
0 1
  C       -2.6260010    -1.3181790     0.0001460
  C       -0.1785650    -0.3909870     0.0002200
  C       -1.5962906    -0.1775731     0.0000004
  C        0.4037930     0.9065250    -0.0001510
  C       -1.8343220     1.1308500    -0.0000640
  C        2.0432510    -1.3188980     0.0000320
  C        2.5978260    -0.0201320    -0.0000760
  C        0.6688440    -1.5149670    -0.0002860
  C        1.7894520     1.1098640     0.0002960
  N       -0.6328400     1.8116850    -0.0001020
  H        2.7093930    -2.1785160    -0.0003580
  H        3.6789480     0.0978590     0.0002690
  H        0.2537760    -2.5213680    -0.0000660
  H        2.2194000     2.1097800     0.0002850
  H       -3.6376700    -0.9013790    -0.0001930
  H       -2.5281620    -1.9588410     0.8832840
  H       -2.7737480     1.6710560    -0.0003610
  H       -0.5326520     2.8176750    -0.0001200
  H       -2.5278290    -1.9594320    -0.8825300
units angstrom
no_reorient  #important for SAPT in psi4, default
symmetry c1  #important for SAPT in psi4, default
}

set PROPERTIES_ORIGIN ["COM"]
properties('MP2/aug-cc-pvtz', properties = ['dipole'])
--------------------------------------------------------------------------

    Molecular point group: c1
  Charge       = 0
  Multiplicity = 1
  Basis Set: AUG-CC-PVTZ
    Blend: AUG-CC-PVTZ
  Basis Set: (AUG-CC-PVTZ AUX)
    Blend: AUG-CC-PVTZ-JKFIT

    Orbital Energies [Eh]
    ---------------------

    Doubly Occupied:

       1A    -15.596385     2A    -11.265041     3A    -11.258192
       4A    -11.232193     5A    -11.231491     6A    -11.230036
       7A    -11.223001     8A    -11.221383     9A    -11.221272
      10A    -11.218268    11A     -1.293546    12A     -1.126810
      13A     -1.072081    14A     -0.996597    15A     -0.985909
      16A     -0.931495    17A     -0.839713    18A     -0.804707
      19A     -0.754404    20A     -0.719385    21A     -0.661801
      22A     -0.646059    23A     -0.601662    24A     -0.592285
      25A     -0.592193    26A     -0.571239    27A     -0.549361
      28A     -0.536451    29A     -0.528640    30A     -0.502267
      31A     -0.470520    32A     -0.463613    33A     -0.377307
      34A     -0.298080    35A     -0.284199

  @DF-RHF Final Energy:  -400.63909634636934

   => Energetics <=

    Nuclear Repulsion Energy =            483.6737538582411844
    One-Electron Energy =               -1500.8305246798331609
    Two-Electron Energy =                 616.5176744752226341
    Total Energy =                       -400.6390963463693424
  Basis Set: (AUG-CC-PVTZ AUX)
    Blend: AUG-CC-PVTZ-RI
    Molecular point group: c1

    Geometry (in Angstrom), charge = 0, multiplicity = 1:

       Center              X                  Y                   Z               Mass
    ------------   -----------------  -----------------  -----------------  -----------------
         C           -2.650346426469    -1.344133419323     0.000144534183    12.000000000000
         C           -0.202910426469    -0.416941419323     0.000218534183    12.000000000000
         C           -1.620636026469    -0.203527519323    -0.000001065817    12.000000000000
         C            0.379447573531     0.880570580677    -0.000152465817    12.000000000000
         C           -1.858667426469     1.104895580677    -0.000065465817    12.000000000000
         C            2.018905573531    -1.344852419323     0.000030534183    12.000000000000
         C            2.573480573531    -0.046086419323    -0.000077465817    12.000000000000
         C            0.644498573531    -1.540921419323    -0.000287465817    12.000000000000
         C            1.765106573531     1.083909580677     0.000294534183    12.000000000000
         N           -0.657185426469     1.785730580677    -0.000103465817    14.003074004430
         H            2.685047573531    -2.204470419323    -0.000359465817     1.007825032230
         H            3.654602573531     0.071904580677     0.000267534183     1.007825032230
         H            0.229430573531    -2.547322419323    -0.000067465817     1.007825032230
         H            2.195054573531     2.083825580677     0.000283534183     1.007825032230
         H           -3.662015426469    -0.927333419323    -0.000194465817     1.007825032230
         H           -2.552507426469    -1.984795419323     0.883282534183     1.007825032230
         H           -2.798093426469     1.645101580677    -0.000362465817     1.007825032230
         H           -0.556997426469     2.791720580677    -0.000121465817     1.007825032230
         H           -2.552174426469    -1.985386419323    -0.882531465817     1.007825032230

  Basis Set: AUG-CC-PVTZ
    Blend: AUG-CC-PVTZ
  Basis Set: (AUG-CC-PVTZ AUX)
    Blend: AUG-CC-PVTZ-JKFIT
	 Reference Energy          =    -400.6390963463693424 [Eh]
	 Singles Energy            =      -0.0000000000000000 [Eh]
	 Same-Spin Energy          =      -0.4507771968421648 [Eh]
	 Opposite-Spin Energy      =      -1.4027214982505420 [Eh]
	 Correlation Energy        =      -1.8534986950927068 [Eh]
	 Total Energy              =    -402.4925950414620388 [Eh]

	 ================> DF-SCS-MP2 Energies <==================
	-----------------------------------------------------------
	 SCS Same-Spin Scale       =       0.3333333333333333 [-]
	 SCS Opposite-Spin Scale   =       1.2000000000000000 [-]
	 SCS Same-Spin Energy      =      -0.1502590656140549 [Eh]
	 SCS Opposite-Spin Energy  =      -1.6832657979006505 [Eh]
	 SCS Correlation Energy    =      -1.8335248635147054 [Eh]
	 SCS Total Energy          =    -402.4726212098840392 [Eh]
	-----------------------------------------------------------

  Dipole Moment: [D]
     X:    -0.9350      Y:     1.7979      Z:    -0.0001     Total:     2.0264

*** Psi4 exiting successfully. Buy a developer a beer!
