                               Psi4 1.4a3.dev225

  ==> Input File <==

--------------------------------------------------------------------------
#psi4
#
memory 32 gb

molecule  {
0 1
  C       -2.6260070    -1.3181640     0.0000030
  C       -0.1785920    -0.3910100    -0.0000140
  C       -1.6028860    -0.2271800    -0.0000070
  C        0.4037990     0.9065080    -0.0000120
  C       -1.8343130     1.1308630     0.0000070
  C        2.0432640    -1.3188820     0.0000040
  C        2.5978420    -0.0201300     0.0000040
  C        0.6688530    -1.5149630     0.0000000
  C        1.7894440     1.1098670     0.0000020
  N       -0.6328500     1.8116730     0.0000060
  H        2.7093900    -2.1785170     0.0000140
  H        3.6789570     0.0979150     0.0000120
  H        0.2538510    -2.5213940    -0.0000090
  H        2.2115152     2.0913967    -0.0000206
  H       -3.6376970    -0.9014040    -0.0000240
  H       -2.5280300    -1.9591080     0.8829250
  H       -2.7737400     1.6710680     0.0000050
  H       -0.5326180     2.8176610     0.0000030
  H       -2.5279980    -1.9591520    -0.8828820
units angstrom
no_reorient  #important for SAPT in psi4, default
symmetry c1  #important for SAPT in psi4, default
}

set PROPERTIES_ORIGIN ["COM"]
properties('MP2/aug-cc-pvtz', properties = ['dipole'])
--------------------------------------------------------------------------

    Molecular point group: c1
  Charge       = 0
  Multiplicity = 1
  Basis Set: AUG-CC-PVTZ
    Blend: AUG-CC-PVTZ
  Basis Set: (AUG-CC-PVTZ AUX)
    Blend: AUG-CC-PVTZ-JKFIT

    Orbital Energies [Eh]
    ---------------------

    Doubly Occupied:

       1A    -15.599911     2A    -11.265078     3A    -11.264482
       4A    -11.230574     5A    -11.230010     6A    -11.228748
       7A    -11.222637     8A    -11.221706     9A    -11.221291
      10A    -11.220916    11A     -1.291640    12A     -1.126981
      13A     -1.072223    14A     -0.997799    15A     -0.985623
      16A     -0.930894    17A     -0.839719    18A     -0.803844
      19A     -0.756571    20A     -0.720504    21A     -0.660574
      22A     -0.645058    23A     -0.604639    24A     -0.593699
      25A     -0.591879    26A     -0.569618    27A     -0.551327
      28A     -0.542303    29A     -0.529585    30A     -0.497683
      31A     -0.476324    32A     -0.462947    33A     -0.374455
      34A     -0.298533    35A     -0.277657

  @DF-RHF Final Energy:  -400.64033969933763

   => Energetics <=

    Nuclear Repulsion Energy =            483.3629536817593930
    One-Electron Energy =               -1500.1917199571205401
    Two-Electron Energy =                 616.1884265760236303
    Total Energy =                       -400.6403396993375736
  Basis Set: (AUG-CC-PVTZ AUX)
    Blend: AUG-CC-PVTZ-RI
    Molecular point group: c1

    Geometry (in Angstrom), charge = 0, multiplicity = 1:

       Center              X                  Y                   Z               Mass
    ------------   -----------------  -----------------  -----------------  -----------------
         C           -2.649688464124    -1.339435498116     0.000003369247    12.000000000000
         C           -0.202273464124    -0.412281498116    -0.000013630753    12.000000000000
         C           -1.626567464124    -0.248451498116    -0.000006630753    12.000000000000
         C            0.380117535876     0.885236501884    -0.000011630753    12.000000000000
         C           -1.857994464124     1.109591501884     0.000007369247    12.000000000000
         C            2.019582535876    -1.340153498116     0.000004369247    12.000000000000
         C            2.574160535876    -0.041401498116     0.000004369247    12.000000000000
         C            0.645171535876    -1.536234498116     0.000000369247    12.000000000000
         C            1.765762535876     1.088595501884     0.000002369247    12.000000000000
         N           -0.656531464124     1.790401501884     0.000006369247    14.003074004430
         H            2.685708535876    -2.199788498116     0.000014369247     1.007825032230
         H            3.655275535876     0.076643501884     0.000012369247     1.007825032230
         H            0.230169535876    -2.542665498116    -0.000008630753     1.007825032230
         H            2.187833735876     2.070125201884    -0.000020230753     1.007825032230
         H           -3.661378464124    -0.922675498116    -0.000023630753     1.007825032230
         H           -2.551711464124    -1.980379498116     0.882925369247     1.007825032230
         H           -2.797421464124     1.649796501884     0.000005369247     1.007825032230
         H           -0.556299464124     2.796389501884     0.000003369247     1.007825032230
         H           -2.551679464124    -1.980423498116    -0.882881630753     1.007825032230

  Basis Set: AUG-CC-PVTZ
    Blend: AUG-CC-PVTZ
  Basis Set: (AUG-CC-PVTZ AUX)
    Blend: AUG-CC-PVTZ-JKFIT
	 Reference Energy          =    -400.6403396993376305 [Eh]
	 Singles Energy            =      -0.0000000000000000 [Eh]
	 Same-Spin Energy          =      -0.4516480505220982 [Eh]
	 Opposite-Spin Energy      =      -1.4039806862621607 [Eh]
	 Correlation Energy        =      -1.8556287367842588 [Eh]
	 Total Energy              =    -402.4959684361218706 [Eh]

	 ================> DF-SCS-MP2 Energies <==================
	-----------------------------------------------------------
	 SCS Same-Spin Scale       =       0.3333333333333333 [-]
	 SCS Opposite-Spin Scale   =       1.2000000000000000 [-]
	 SCS Same-Spin Energy      =      -0.1505493501740327 [Eh]
	 SCS Opposite-Spin Energy  =      -1.6847768235145928 [Eh]
	 SCS Correlation Energy    =      -1.8353261736886255 [Eh]
	 SCS Total Energy          =    -402.4756658730262302 [Eh]
	-----------------------------------------------------------

  Dipole Moment: [D]
     X:    -0.9536      Y:     1.8119      Z:    -0.0000     Total:     2.0475

*** Psi4 exiting successfully. Buy a developer a beer!
