                               Psi4 1.3.2 release

  ==> Input File <==

--------------------------------------------------------------------------
#psi4
#
memory 32 gb

molecule  {
0 1
  C       -2.6260010    -1.3181790     0.0001460
  C       -0.2914107    -0.4857226     0.0001495
  C       -1.6028750    -0.2271810    -0.0000330
  C        0.4037930     0.9065250    -0.0001510
  C       -1.8343220     1.1308500    -0.0000640
  C        2.0432510    -1.3188980     0.0000320
  C        2.5978260    -0.0201320    -0.0000760
  C        0.6688440    -1.5149670    -0.0002860
  C        1.7894520     1.1098640     0.0002960
  N       -0.6328400     1.8116850    -0.0001020
  H        2.7093930    -2.1785160    -0.0003580
  H        3.6789480     0.0978590     0.0002690
  H        0.2537760    -2.5213680    -0.0000660
  H        2.2194000     2.1097800     0.0002850
  H       -3.6376700    -0.9013790    -0.0001930
  H       -2.5281620    -1.9588410     0.8832840
  H       -2.7737480     1.6710560    -0.0003610
  H       -0.5326520     2.8176750    -0.0001200
  H       -2.5278290    -1.9594320    -0.8825300
units angstrom
no_reorient  #important for SAPT in psi4, default
symmetry c1  #important for SAPT in psi4, default
}

set PROPERTIES_ORIGIN ["COM"]
properties('MP2/aug-cc-pvtz', properties = ['dipole'])
--------------------------------------------------------------------------

    Molecular point group: c1
  Charge       = 0
  Multiplicity = 1
  Basis Set: AUG-CC-PVTZ
    Blend: AUG-CC-PVTZ
  Basis Set: (AUG-CC-PVTZ AUX)
    Blend: AUG-CC-PVTZ-JKFIT

    Orbital Energies [Eh]
    ---------------------

    Doubly Occupied:

       1A    -15.610071     2A    -11.275039     3A    -11.269093
       4A    -11.230999     5A    -11.230587     6A    -11.229057
       7A    -11.228200     8A    -11.221014     9A    -11.220265
      10A    -11.218475    11A     -1.292822    12A     -1.121522
      13A     -1.087993    14A     -0.996720    15A     -0.976666
      16A     -0.934291    17A     -0.839123    18A     -0.815863
      19A     -0.754295    20A     -0.717188    21A     -0.671435
      22A     -0.647411    23A     -0.602149    24A     -0.593633
      25A     -0.581625    26A     -0.575578    27A     -0.550466
      28A     -0.541054    29A     -0.529629    30A     -0.510946
      31A     -0.460662    32A     -0.448803    33A     -0.390767
      34A     -0.294489    35A     -0.269451

  @DF-RHF Final Energy:  -400.61139943824134

   => Energetics <=

    Nuclear Repulsion Energy =            482.3588751871266140
    One-Electron Energy =               -1498.0657895524168453
    Two-Electron Energy =                 615.0955149270488391
    Total Energy =                       -400.6113994382413921
  Basis Set: (AUG-CC-PVTZ AUX)
    Blend: AUG-CC-PVTZ-RI
    Molecular point group: c1

    Geometry (in Angstrom), charge = 0, multiplicity = 1:

       Center              X                  Y                   Z               Mass
    ------------   -----------------  -----------------  -----------------  -----------------
         C           -2.639412399318    -1.330918528370     0.000154046404    12.000000000000
         C           -0.304822099318    -0.498462128370     0.000157546404    12.000000000000
         C           -1.616286399318    -0.239920528370    -0.000024953596    12.000000000000
         C            0.390381600682     0.893785471630    -0.000142953596    12.000000000000
         C           -1.847733399318     1.118110471630    -0.000055953596    12.000000000000
         C            2.029839600682    -1.331637528370     0.000040046404    12.000000000000
         C            2.584414600682    -0.032871528370    -0.000067953596    12.000000000000
         C            0.655432600682    -1.527706528370    -0.000277953596    12.000000000000
         C            1.776040600682     1.097124471630     0.000304046404    12.000000000000
         N           -0.646251399318     1.798945471630    -0.000093953596    14.003074004430
         H            2.695981600682    -2.191255528370    -0.000349953596     1.007825032230
         H            3.665536600682     0.085119471630     0.000277046404     1.007825032230
         H            0.240364600682    -2.534107528370    -0.000057953596     1.007825032230
         H            2.205988600682     2.097040471630     0.000293046404     1.007825032230
         H           -3.651081399318    -0.914118528370    -0.000184953596     1.007825032230
         H           -2.541573399318    -1.971580528370     0.883292046404     1.007825032230
         H           -2.787159399318     1.658316471630    -0.000352953596     1.007825032230
         H           -0.546063399318     2.804935471630    -0.000111953596     1.007825032230
         H           -2.541240399318    -1.972171528370    -0.882521953596     1.007825032230

  Basis Set: AUG-CC-PVTZ
    Blend: AUG-CC-PVTZ
  Basis Set: (AUG-CC-PVTZ AUX)
    Blend: AUG-CC-PVTZ-JKFIT
	 Reference Energy          =    -400.6113994382413352 [Eh]
	 Singles Energy            =      -0.0000000000000000 [Eh]
	 Same-Spin Energy          =      -0.4550390498017786 [Eh]
	 Opposite-Spin Energy      =      -1.4084492786132130 [Eh]
	 Correlation Energy        =      -1.8634883284149915 [Eh]
	 Total Energy              =    -402.4748877666563089 [Eh]

	 ================> DF-SCS-MP2 Energies <==================
	-----------------------------------------------------------
	 SCS Same-Spin Scale       =       0.3333333333333333 [-]
	 SCS Opposite-Spin Scale   =       1.2000000000000000 [-]
	 SCS Same-Spin Energy      =      -0.1516796832672595 [Eh]
	 SCS Opposite-Spin Energy  =      -1.6901391343358556 [Eh]
	 SCS Correlation Energy    =      -1.8418188176031152 [Eh]
	 SCS Total Energy          =    -402.4532182558444333 [Eh]
	-----------------------------------------------------------

  Dipole Moment: [D]
     X:    -1.1294      Y:     2.0656      Z:    -0.0000     Total:     2.3542

*** Psi4 exiting successfully. Buy a developer a beer!
