                               Psi4 1.3.2 release

  ==> Input File <==

--------------------------------------------------------------------------
#psi4
#
memory 32 gb

molecule  {
0 1
  C       -2.7344366    -1.2052566     0.0001548
  C       -0.1785650    -0.3909870     0.0002200
  C       -1.6028750    -0.2271810    -0.0000330
  C        0.4037930     0.9065250    -0.0001510
  C       -1.8343220     1.1308500    -0.0000640
  C        2.0432510    -1.3188980     0.0000320
  C        2.5978260    -0.0201320    -0.0000760
  C        0.6688440    -1.5149670    -0.0002860
  C        1.7894520     1.1098640     0.0002960
  N       -0.6328400     1.8116850    -0.0001020
  H        2.7093930    -2.1785160    -0.0003580
  H        3.6789480     0.0978590     0.0002690
  H        0.2537760    -2.5213680    -0.0000660
  H        2.2194000     2.1097800     0.0002850
  H       -3.6376700    -0.9013790    -0.0001930
  H       -2.5281620    -1.9588410     0.8832840
  H       -2.7737480     1.6710560    -0.0003610
  H       -0.5326520     2.8176750    -0.0001200
  H       -2.5278290    -1.9594320    -0.8825300
units angstrom
no_reorient  #important for SAPT in psi4, default
symmetry c1  #important for SAPT in psi4, default
}

set PROPERTIES_ORIGIN ["COM"]
properties('MP2/aug-cc-pvtz', properties = ['dipole'])
--------------------------------------------------------------------------

    Molecular point group: c1
  Charge       = 0
  Multiplicity = 1
  Basis Set: AUG-CC-PVTZ
    Blend: AUG-CC-PVTZ
  Basis Set: (AUG-CC-PVTZ AUX)
    Blend: AUG-CC-PVTZ-JKFIT

    Orbital Energies [Eh]
    ---------------------

    Doubly Occupied:

       1A    -15.599095     2A    -11.266864     3A    -11.261521
       4A    -11.232669     5A    -11.231694     6A    -11.230368
       7A    -11.226002     8A    -11.225745     9A    -11.224131
      10A    -11.221633    11A     -1.291484    12A     -1.127716
      13A     -1.073409    14A     -0.998787    15A     -0.988980
      16A     -0.930985    17A     -0.839462    18A     -0.805375
      19A     -0.760111    20A     -0.720648    21A     -0.660530
      22A     -0.645024    23A     -0.622031    24A     -0.594262
      25A     -0.586673    26A     -0.584225    27A     -0.547346
      28A     -0.524868    29A     -0.517624    30A     -0.498284
      31A     -0.482431    32A     -0.463496    33A     -0.371367
      34A     -0.299315    35A     -0.275986

  @DF-RHF Final Energy:  -400.61015702320924

   => Energetics <=

    Nuclear Repulsion Energy =            482.9395670402441851
    One-Electron Energy =               -1499.2391624931190108
    Two-Electron Energy =                 615.6894384296656426
    Total Energy =                       -400.6101570232092399
  Basis Set: (AUG-CC-PVTZ AUX)
    Blend: AUG-CC-PVTZ-RI
    Molecular point group: c1

    Geometry (in Angstrom), charge = 0, multiplicity = 1:

       Center              X                  Y                   Z               Mass
    ------------   -----------------  -----------------  -----------------  -----------------
         C           -2.748251751414    -1.237007568618     0.000155586355    12.000000000000
         C           -0.192380151414    -0.422737968618     0.000220786355    12.000000000000
         C           -1.616690151414    -0.258931968618    -0.000032213645    12.000000000000
         C            0.389977848586     0.874774031382    -0.000150213645    12.000000000000
         C           -1.848137151414     1.099099031382    -0.000063213645    12.000000000000
         C            2.029435848586    -1.350648968618     0.000032786355    12.000000000000
         C            2.584010848586    -0.051882968618    -0.000075213645    12.000000000000
         C            0.655028848586    -1.546717968618    -0.000285213645    12.000000000000
         C            1.775636848586     1.078113031382     0.000296786355    12.000000000000
         N           -0.646655151414     1.779934031382    -0.000101213645    14.003074004430
         H            2.695577848586    -2.210266968618    -0.000357213645     1.007825032230
         H            3.665132848586     0.066108031382     0.000269786355     1.007825032230
         H            0.239960848586    -2.553118968618    -0.000065213645     1.007825032230
         H            2.205584848586     2.078029031382     0.000285786355     1.007825032230
         H           -3.651485151414    -0.933129968618    -0.000192213645     1.007825032230
         H           -2.541977151414    -1.990591968618     0.883284786355     1.007825032230
         H           -2.787563151414     1.639305031382    -0.000360213645     1.007825032230
         H           -0.546467151414     2.785924031382    -0.000119213645     1.007825032230
         H           -2.541644151414    -1.991182968618    -0.882529213645     1.007825032230

  Basis Set: AUG-CC-PVTZ
    Blend: AUG-CC-PVTZ
  Basis Set: (AUG-CC-PVTZ AUX)
    Blend: AUG-CC-PVTZ-JKFIT
	 Reference Energy          =    -400.6101570232092399 [Eh]
	 Singles Energy            =      -0.0000000000000000 [Eh]
	 Same-Spin Energy          =      -0.4520931024835043 [Eh]
	 Opposite-Spin Energy      =      -1.4053191954104776 [Eh]
	 Correlation Energy        =      -1.8574122978939820 [Eh]
	 Total Energy              =    -402.4675693211032126 [Eh]

	 ================> DF-SCS-MP2 Energies <==================
	-----------------------------------------------------------
	 SCS Same-Spin Scale       =       0.3333333333333333 [-]
	 SCS Opposite-Spin Scale   =       1.2000000000000000 [-]
	 SCS Same-Spin Energy      =      -0.1506977008278348 [Eh]
	 SCS Opposite-Spin Energy  =      -1.6863830344925730 [Eh]
	 SCS Correlation Energy    =      -1.8370807353204077 [Eh]
	 SCS Total Energy          =    -402.4472377585296385 [Eh]
	-----------------------------------------------------------

  Dipole Moment: [D]
     X:    -0.9462      Y:     1.8658      Z:    -0.0000     Total:     2.0920

*** Psi4 exiting successfully. Buy a developer a beer!
