                               Psi4 1.3.2 release

  ==> Input File <==

--------------------------------------------------------------------------
#psi4
#
memory 32 gb

molecule  {
0 1
  C       -2.6260010    -1.3181790     0.0001460
  C       -0.1785650    -0.3909870     0.0002200
  C       -1.6712803    -0.3001242    -0.0000210
  C        0.4037930     0.9065250    -0.0001510
  C       -1.8343220     1.1308500    -0.0000640
  C        2.0432510    -1.3188980     0.0000320
  C        2.5978260    -0.0201320    -0.0000760
  C        0.6688440    -1.5149670    -0.0002860
  C        1.7894520     1.1098640     0.0002960
  N       -0.6328400     1.8116850    -0.0001020
  H        2.7093930    -2.1785160    -0.0003580
  H        3.6789480     0.0978590     0.0002690
  H        0.2537760    -2.5213680    -0.0000660
  H        2.2194000     2.1097800     0.0002850
  H       -3.6376700    -0.9013790    -0.0001930
  H       -2.5281620    -1.9588410     0.8832840
  H       -2.7737480     1.6710560    -0.0003610
  H       -0.5326520     2.8176750    -0.0001200
  H       -2.5278290    -1.9594320    -0.8825300
units angstrom
no_reorient  #important for SAPT in psi4, default
symmetry c1  #important for SAPT in psi4, default
}

set PROPERTIES_ORIGIN ["COM"]
properties('MP2/aug-cc-pvtz', properties = ['dipole'])
--------------------------------------------------------------------------

    Molecular point group: c1
  Charge       = 0
  Multiplicity = 1
  Basis Set: AUG-CC-PVTZ
    Blend: AUG-CC-PVTZ
  Basis Set: (AUG-CC-PVTZ AUX)
    Blend: AUG-CC-PVTZ-JKFIT

    Orbital Energies [Eh]
    ---------------------

    Doubly Occupied:

       1A    -15.603264     2A    -11.273443     3A    -11.266727
       4A    -11.232143     5A    -11.230738     6A    -11.228968
       7A    -11.228893     8A    -11.227349     9A    -11.220250
      10A    -11.217671    11A     -1.287846    12A     -1.126369
      13A     -1.076682    14A     -1.001637    15A     -0.986782
      16A     -0.930004    17A     -0.837203    18A     -0.799303
      19A     -0.755669    20A     -0.721315    21A     -0.656980
      22A     -0.642703    23A     -0.608105    24A     -0.594076
      25A     -0.592745    26A     -0.571645    27A     -0.564648
      28A     -0.556437    29A     -0.525939    30A     -0.490020
      31A     -0.468063    32A     -0.462656    33A     -0.366031
      34A     -0.297718    35A     -0.272023

  @DF-RHF Final Energy:  -400.62192648515895

   => Energetics <=

    Nuclear Repulsion Energy =            482.0786303667715629
    One-Electron Energy =               -1497.5570215967452441
    Two-Electron Energy =                 614.8564647448147298
    Total Energy =                       -400.6219264851589514
  Basis Set: (AUG-CC-PVTZ AUX)
    Blend: AUG-CC-PVTZ-RI
    Molecular point group: c1

    Geometry (in Angstrom), charge = 0, multiplicity = 1:

       Center              X                  Y                   Z               Mass
    ------------   -----------------  -----------------  -----------------  -----------------
         C           -2.643480992916    -1.332913659357     0.000146493390    12.000000000000
         C           -0.196044992916    -0.405721659357     0.000220493390    12.000000000000
         C           -1.688760292916    -0.314858859357    -0.000020506610    12.000000000000
         C            0.386313007084     0.891790340643    -0.000150506610    12.000000000000
         C           -1.851801992916     1.116115340643    -0.000063506610    12.000000000000
         C            2.025771007084    -1.333632659357     0.000032493390    12.000000000000
         C            2.580346007084    -0.034866659357    -0.000075506610    12.000000000000
         C            0.651364007084    -1.529701659357    -0.000285506610    12.000000000000
         C            1.771972007084     1.095129340643     0.000296493390    12.000000000000
         N           -0.650319992916     1.796950340643    -0.000101506610    14.003074004430
         H            2.691913007084    -2.193250659357    -0.000357506610     1.007825032230
         H            3.661468007084     0.083124340643     0.000269493390     1.007825032230
         H            0.236296007084    -2.536102659357    -0.000065506610     1.007825032230
         H            2.201920007084     2.095045340643     0.000285493390     1.007825032230
         H           -3.655149992916    -0.916113659357    -0.000192506610     1.007825032230
         H           -2.545641992916    -1.973575659357     0.883284493390     1.007825032230
         H           -2.791227992916     1.656321340643    -0.000360506610     1.007825032230
         H           -0.550131992916     2.802940340643    -0.000119506610     1.007825032230
         H           -2.545308992916    -1.974166659357    -0.882529506610     1.007825032230

  Basis Set: AUG-CC-PVTZ
    Blend: AUG-CC-PVTZ
  Basis Set: (AUG-CC-PVTZ AUX)
    Blend: AUG-CC-PVTZ-JKFIT
	 Reference Energy          =    -400.6219264851589514 [Eh]
	 Singles Energy            =      -0.0000000000000000 [Eh]
	 Same-Spin Energy          =      -0.4531128934481036 [Eh]
	 Opposite-Spin Energy      =      -1.4065609233566296 [Eh]
	 Correlation Energy        =      -1.8596738168047331 [Eh]
	 Total Energy              =    -402.4816003019636810 [Eh]

	 ================> DF-SCS-MP2 Energies <==================
	-----------------------------------------------------------
	 SCS Same-Spin Scale       =       0.3333333333333333 [-]
	 SCS Opposite-Spin Scale   =       1.2000000000000000 [-]
	 SCS Same-Spin Energy      =      -0.1510376311493679 [Eh]
	 SCS Opposite-Spin Energy  =      -1.6878731080279554 [Eh]
	 SCS Correlation Energy    =      -1.8389107391773232 [Eh]
	 SCS Total Energy          =    -402.4608372243362737 [Eh]
	-----------------------------------------------------------

  Dipole Moment: [D]
     X:    -0.9854      Y:     1.7280      Z:    -0.0001     Total:     1.9892

*** Psi4 exiting successfully. Buy a developer a beer!
