                               Psi4 1.3.2 release

  ==> Input File <==

--------------------------------------------------------------------------
#psi4
#
memory 32 gb

molecule  {
0 1
  C       -2.6260010    -1.3181790     0.0001460
  C       -0.1785650    -0.3909870     0.0002200
  C       -1.6028750    -0.2271810    -0.0000330
  C        0.2649759     0.9602901    -0.0000666
  C       -1.8343220     1.1308500    -0.0000640
  C        2.0432510    -1.3188980     0.0000320
  C        2.5978260    -0.0201320    -0.0000760
  C        0.6688440    -1.5149670    -0.0002860
  C        1.7894520     1.1098640     0.0002960
  N       -0.6328400     1.8116850    -0.0001020
  H        2.7093930    -2.1785160    -0.0003580
  H        3.6789480     0.0978590     0.0002690
  H        0.2537760    -2.5213680    -0.0000660
  H        2.2194000     2.1097800     0.0002850
  H       -3.6376700    -0.9013790    -0.0001930
  H       -2.5281620    -1.9588410     0.8832840
  H       -2.7737480     1.6710560    -0.0003610
  H       -0.5326520     2.8176750    -0.0001200
  H       -2.5278290    -1.9594320    -0.8825300
units angstrom
no_reorient  #important for SAPT in psi4, default
symmetry c1  #important for SAPT in psi4, default
}

set PROPERTIES_ORIGIN ["COM"]
properties('MP2/aug-cc-pvtz', properties = ['dipole'])
--------------------------------------------------------------------------

    Molecular point group: c1
  Charge       = 0
  Multiplicity = 1
  Basis Set: AUG-CC-PVTZ
    Blend: AUG-CC-PVTZ
  Basis Set: (AUG-CC-PVTZ AUX)
    Blend: AUG-CC-PVTZ-JKFIT

    Orbital Energies [Eh]
    ---------------------

    Doubly Occupied:

       1A    -15.611034     2A    -11.268002     3A    -11.255672
       4A    -11.238108     5A    -11.232302     6A    -11.230010
       7A    -11.226780     8A    -11.221754     9A    -11.215804
      10A    -11.213594    11A     -1.344185    12A     -1.119151
      13A     -1.075293    14A     -0.986197    15A     -0.982792
      16A     -0.940847    17A     -0.851117    18A     -0.795675
      19A     -0.756990    20A     -0.734566    21A     -0.675136
      22A     -0.642074    23A     -0.613160    24A     -0.601455
      25A     -0.586833    26A     -0.561748    27A     -0.559220
      28A     -0.543099    29A     -0.530474    30A     -0.499166
      31A     -0.459183    32A     -0.455790    33A     -0.373994
      34A     -0.287591    35A     -0.280717

  @DF-RHF Final Energy:  -400.60680556142358

   => Energetics <=

    Nuclear Repulsion Energy =            483.9585911650872276
    One-Electron Energy =               -1501.1917611294591097
    Two-Electron Energy =                 616.6263644029482975
    Total Energy =                       -400.6068055614235845
  Basis Set: (AUG-CC-PVTZ AUX)
    Blend: AUG-CC-PVTZ-RI
    Molecular point group: c1

    Geometry (in Angstrom), charge = 0, multiplicity = 1:

       Center              X                  Y                   Z               Mass
    ------------   -----------------  -----------------  -----------------  -----------------
         C           -2.637034673831    -1.344514017996     0.000139865047    12.000000000000
         C           -0.189598673831    -0.417322017996     0.000213865047    12.000000000000
         C           -1.613908673831    -0.253516017996    -0.000039134953    12.000000000000
         C            0.253942226169     0.933955082004    -0.000072734953    12.000000000000
         C           -1.845355673831     1.104514982004    -0.000070134953    12.000000000000
         C            2.032217326169    -1.345233017996     0.000025865047    12.000000000000
         C            2.586792326169    -0.046467017996    -0.000082134953    12.000000000000
         C            0.657810326169    -1.541302017996    -0.000292134953    12.000000000000
         C            1.778418326169     1.083528982004     0.000289865047    12.000000000000
         N           -0.643873673831     1.785349982004    -0.000108134953    14.003074004430
         H            2.698359326169    -2.204851017996    -0.000364134953     1.007825032230
         H            3.667914326169     0.071523982004     0.000262865047     1.007825032230
         H            0.242742326169    -2.547703017996    -0.000072134953     1.007825032230
         H            2.208366326169     2.083444982004     0.000278865047     1.007825032230
         H           -3.648703673831    -0.927714017996    -0.000199134953     1.007825032230
         H           -2.539195673831    -1.985176017996     0.883277865047     1.007825032230
         H           -2.784781673831     1.644720982004    -0.000367134953     1.007825032230
         H           -0.543685673831     2.791339982004    -0.000126134953     1.007825032230
         H           -2.538862673831    -1.985767017996    -0.882536134953     1.007825032230

  Basis Set: AUG-CC-PVTZ
    Blend: AUG-CC-PVTZ
  Basis Set: (AUG-CC-PVTZ AUX)
    Blend: AUG-CC-PVTZ-JKFIT
	 Reference Energy          =    -400.6068055614235845 [Eh]
	 Singles Energy            =      -0.0000000000000000 [Eh]
	 Same-Spin Energy          =      -0.4516523176507001 [Eh]
	 Opposite-Spin Energy      =      -1.4045142840076061 [Eh]
	 Correlation Energy        =      -1.8561666016583063 [Eh]
	 Total Energy              =    -402.4629721630818722 [Eh]

	 ================> DF-SCS-MP2 Energies <==================
	-----------------------------------------------------------
	 SCS Same-Spin Scale       =       0.3333333333333333 [-]
	 SCS Opposite-Spin Scale   =       1.2000000000000000 [-]
	 SCS Same-Spin Energy      =      -0.1505507725502334 [Eh]
	 SCS Opposite-Spin Energy  =      -1.6854171408091274 [Eh]
	 SCS Correlation Energy    =      -1.8359679133593607 [Eh]
	 SCS Total Energy          =    -402.4427734747829390 [Eh]
	-----------------------------------------------------------

  Dipole Moment: [D]
     X:    -1.1797      Y:     2.0991      Z:    -0.0001     Total:     2.4079

*** Psi4 exiting successfully. Buy a developer a beer!
