                               Psi4 1.3.2 release

  ==> Input File <==

--------------------------------------------------------------------------
#psi4
#
memory 32 gb

molecule  {
0 1
  C       -2.6260010    -1.3181790     0.0001460
  C       -0.1785650    -0.3909870     0.0002200
  C       -1.6028750    -0.2271810    -0.0000330
  C        0.4037930     0.9065250    -0.0001510
  C       -1.8343220     1.1308500    -0.0000640
  C        2.0432510    -1.3188980     0.0000320
  C        2.6870724    -0.0619809    -0.0000448
  C        0.6688440    -1.5149670    -0.0002860
  C        1.7894520     1.1098640     0.0002960
  N       -0.6328400     1.8116850    -0.0001020
  H        2.7093930    -2.1785160    -0.0003580
  H        3.6789480     0.0978590     0.0002690
  H        0.2537760    -2.5213680    -0.0000660
  H        2.2194000     2.1097800     0.0002850
  H       -3.6376700    -0.9013790    -0.0001930
  H       -2.5281620    -1.9588410     0.8832840
  H       -2.7737480     1.6710560    -0.0003610
  H       -0.5326520     2.8176750    -0.0001200
  H       -2.5278290    -1.9594320    -0.8825300
units angstrom
no_reorient  #important for SAPT in psi4, default
symmetry c1  #important for SAPT in psi4, default
}

set PROPERTIES_ORIGIN ["COM"]
properties('MP2/aug-cc-pvtz', properties = ['dipole'])
--------------------------------------------------------------------------

    Molecular point group: c1
  Charge       = 0
  Multiplicity = 1
  Basis Set: AUG-CC-PVTZ
    Blend: AUG-CC-PVTZ
  Basis Set: (AUG-CC-PVTZ AUX)
    Blend: AUG-CC-PVTZ-JKFIT

    Orbital Energies [Eh]
    ---------------------

    Doubly Occupied:

       1A    -15.599492     2A    -11.268181     3A    -11.266109
       4A    -11.239672     5A    -11.231423     6A    -11.230160
       7A    -11.225557     8A    -11.223270     9A    -11.222973
      10A    -11.222039    11A     -1.292449    12A     -1.120157
      13A     -1.070386    14A     -0.993761    15A     -0.985495
      16A     -0.931595    17A     -0.841160    18A     -0.807825
      19A     -0.755560    20A     -0.720811    21A     -0.669520
      22A     -0.641596    23A     -0.604424    24A     -0.592161
      25A     -0.590360    26A     -0.568654    27A     -0.551705
      28A     -0.551506    29A     -0.533411    30A     -0.490779
      31A     -0.475763    32A     -0.458196    33A     -0.370554
      34A     -0.301512    35A     -0.273393

  @DF-RHF Final Energy:  -400.62604961431146

   => Energetics <=

    Nuclear Repulsion Energy =            481.5879194304245630
    One-Electron Energy =               -1496.5847197023949775
    Two-Electron Energy =                 614.3707506576589594
    Total Energy =                       -400.6260496143114551
  Basis Set: (AUG-CC-PVTZ AUX)
    Blend: AUG-CC-PVTZ-RI
    Molecular point group: c1

    Geometry (in Angstrom), charge = 0, multiplicity = 1:

       Center              X                  Y                   Z               Mass
    ------------   -----------------  -----------------  -----------------  -----------------
         C           -2.657914272031    -1.335760394982     0.000144735597    12.000000000000
         C           -0.210478272031    -0.408568394982     0.000218735597    12.000000000000
         C           -1.634788272031    -0.244762394982    -0.000034264403    12.000000000000
         C            0.371879727969     0.888943605018    -0.000152264403    12.000000000000
         C           -1.866235272031     1.113268605018    -0.000065264403    12.000000000000
         C            2.011337727969    -1.336479394982     0.000030735597    12.000000000000
         C            2.655159127969    -0.079562294982    -0.000046064403    12.000000000000
         C            0.636930727969    -1.532548394982    -0.000287264403    12.000000000000
         C            1.757538727969     1.092282605018     0.000294735597    12.000000000000
         N           -0.664753272031     1.794103605018    -0.000103264403    14.003074004430
         H            2.677479727969    -2.196097394982    -0.000359264403     1.007825032230
         H            3.647034727969     0.080277605018     0.000267735597     1.007825032230
         H            0.221862727969    -2.538949394982    -0.000067264403     1.007825032230
         H            2.187486727969     2.092198605018     0.000283735597     1.007825032230
         H           -3.669583272031    -0.918960394982    -0.000194264403     1.007825032230
         H           -2.560075272031    -1.976422394982     0.883282735597     1.007825032230
         H           -2.805661272031     1.653474605018    -0.000362264403     1.007825032230
         H           -0.564565272031     2.800093605018    -0.000121264403     1.007825032230
         H           -2.559742272031    -1.977013394982    -0.882531264403     1.007825032230

  Basis Set: AUG-CC-PVTZ
    Blend: AUG-CC-PVTZ
  Basis Set: (AUG-CC-PVTZ AUX)
    Blend: AUG-CC-PVTZ-JKFIT
	 Reference Energy          =    -400.6260496143114551 [Eh]
	 Singles Energy            =      -0.0000000000000000 [Eh]
	 Same-Spin Energy          =      -0.4520229014495279 [Eh]
	 Opposite-Spin Energy      =      -1.4054128727588038 [Eh]
	 Correlation Energy        =      -1.8574357742083318 [Eh]
	 Total Energy              =    -402.4834853885197958 [Eh]

	 ================> DF-SCS-MP2 Energies <==================
	-----------------------------------------------------------
	 SCS Same-Spin Scale       =       0.3333333333333333 [-]
	 SCS Opposite-Spin Scale   =       1.2000000000000000 [-]
	 SCS Same-Spin Energy      =      -0.1506743004831760 [Eh]
	 SCS Opposite-Spin Energy  =      -1.6864954473105644 [Eh]
	 SCS Correlation Energy    =      -1.8371697477937405 [Eh]
	 SCS Total Energy          =    -402.4632193621051783 [Eh]
	-----------------------------------------------------------

  Dipole Moment: [D]
     X:    -1.0207      Y:     1.8005      Z:    -0.0001     Total:     2.0697

*** Psi4 exiting successfully. Buy a developer a beer!
