                               Psi4 1.3.2 release

  ==> Input File <==

--------------------------------------------------------------------------
#psi4
#
memory 32 gb

molecule  {
0 1
  C       -2.6260010    -1.3181790     0.0001460
  C       -0.3110017    -0.3230061     0.0001370
  C       -1.6028750    -0.2271810    -0.0000330
  C        0.4037930     0.9065250    -0.0001510
  C       -1.8343220     1.1308500    -0.0000640
  C        2.0432510    -1.3188980     0.0000320
  C        2.5978260    -0.0201320    -0.0000760
  C        0.6688440    -1.5149670    -0.0002860
  C        1.7894520     1.1098640     0.0002960
  N       -0.6328400     1.8116850    -0.0001020
  H        2.7093930    -2.1785160    -0.0003580
  H        3.6789480     0.0978590     0.0002690
  H        0.2537760    -2.5213680    -0.0000660
  H        2.2194000     2.1097800     0.0002850
  H       -3.6376700    -0.9013790    -0.0001930
  H       -2.5281620    -1.9588410     0.8832840
  H       -2.7737480     1.6710560    -0.0003610
  H       -0.5326520     2.8176750    -0.0001200
  H       -2.5278290    -1.9594320    -0.8825300
units angstrom
no_reorient  #important for SAPT in psi4, default
symmetry c1  #important for SAPT in psi4, default
}

set PROPERTIES_ORIGIN ["COM"]
properties('MP2/aug-cc-pvtz', properties = ['dipole'])
--------------------------------------------------------------------------

    Molecular point group: c1
  Charge       = 0
  Multiplicity = 1
  Basis Set: AUG-CC-PVTZ
    Blend: AUG-CC-PVTZ
  Basis Set: (AUG-CC-PVTZ AUX)
    Blend: AUG-CC-PVTZ-JKFIT

    Orbital Energies [Eh]
    ---------------------

    Doubly Occupied:

       1A    -15.606365     2A    -11.265009     3A    -11.260147
       4A    -11.238644     5A    -11.234447     6A    -11.228192
       7A    -11.224488     8A    -11.222054     9A    -11.219842
      10A    -11.210423    11A     -1.301578    12A     -1.116598
      13A     -1.092752    14A     -0.993491    15A     -0.978675
      16A     -0.936679    17A     -0.836253    18A     -0.808402
      19A     -0.760343    20A     -0.717918    21A     -0.665518
      22A     -0.643905    23A     -0.605681    24A     -0.599156
      25A     -0.581977    26A     -0.563285    27A     -0.553138
      28A     -0.550397    29A     -0.529156    30A     -0.503765
      31A     -0.463864    32A     -0.455414    33A     -0.382697
      34A     -0.306528    35A     -0.264788

  @DF-RHF Final Energy:  -400.60384853103977

   => Energetics <=

    Nuclear Repulsion Energy =            483.8199918954367718
    One-Electron Energy =               -1501.0045407432201046
    Two-Electron Energy =                 616.5807003167435596
    Total Energy =                       -400.6038485310398300
  Basis Set: (AUG-CC-PVTZ AUX)
    Blend: AUG-CC-PVTZ-RI
    Molecular point group: c1

    Geometry (in Angstrom), charge = 0, multiplicity = 1:

       Center              X                  Y                   Z               Mass
    ------------   -----------------  -----------------  -----------------  -----------------
         C           -2.637618810215    -1.345815498470     0.000155190800    12.000000000000
         C           -0.322619510215    -0.350642598470     0.000146190800    12.000000000000
         C           -1.614492810215    -0.254817498470    -0.000023809200    12.000000000000
         C            0.392175189785     0.878888501530    -0.000141809200    12.000000000000
         C           -1.845939810215     1.103213501530    -0.000054809200    12.000000000000
         C            2.031633189785    -1.346534498470     0.000041190800    12.000000000000
         C            2.586208189785    -0.047768498470    -0.000066809200    12.000000000000
         C            0.657226189785    -1.542603498470    -0.000276809200    12.000000000000
         C            1.777834189785     1.082227501530     0.000305190800    12.000000000000
         N           -0.644457810215     1.784048501530    -0.000092809200    14.003074004430
         H            2.697775189785    -2.206152498470    -0.000348809200     1.007825032230
         H            3.667330189785     0.070222501530     0.000278190800     1.007825032230
         H            0.242158189785    -2.549004498470    -0.000056809200     1.007825032230
         H            2.207782189785     2.082143501530     0.000294190800     1.007825032230
         H           -3.649287810215    -0.929015498470    -0.000183809200     1.007825032230
         H           -2.539779810215    -1.986477498470     0.883293190800     1.007825032230
         H           -2.785365810215     1.643419501530    -0.000351809200     1.007825032230
         H           -0.544269810215     2.790038501530    -0.000110809200     1.007825032230
         H           -2.539446810215    -1.987068498470    -0.882520809200     1.007825032230

  Basis Set: AUG-CC-PVTZ
    Blend: AUG-CC-PVTZ
  Basis Set: (AUG-CC-PVTZ AUX)
    Blend: AUG-CC-PVTZ-JKFIT
	 Reference Energy          =    -400.6038485310397732 [Eh]
	 Singles Energy            =      -0.0000000000000000 [Eh]
	 Same-Spin Energy          =      -0.4539756677012851 [Eh]
	 Opposite-Spin Energy      =      -1.4080919035253703 [Eh]
	 Correlation Energy        =      -1.8620675712266554 [Eh]
	 Total Energy              =    -402.4659161022664193 [Eh]

	 ================> DF-SCS-MP2 Energies <==================
	-----------------------------------------------------------
	 SCS Same-Spin Scale       =       0.3333333333333333 [-]
	 SCS Opposite-Spin Scale   =       1.2000000000000000 [-]
	 SCS Same-Spin Energy      =      -0.1513252225670950 [Eh]
	 SCS Opposite-Spin Energy  =      -1.6897102842304443 [Eh]
	 SCS Correlation Energy    =      -1.8410355067975392 [Eh]
	 SCS Total Energy          =    -402.4448840378373120 [Eh]
	-----------------------------------------------------------

  Dipole Moment: [D]
     X:    -1.1240      Y:     1.8832      Z:    -0.0000     Total:     2.1931

*** Psi4 exiting successfully. Buy a developer a beer!
