                               Psi4 1.4a3.dev225

  ==> Input File <==

--------------------------------------------------------------------------
#psi4
#
memory 32 gb

molecule  {
0 1
  C       -2.6260070    -1.3181640     0.0000030
  C       -0.1785920    -0.3910100    -0.0000140
  C       -1.6028860    -0.2271800    -0.0000070
  C        0.4037990     0.9065080    -0.0000120
  C       -1.8343130     1.1308630     0.0000070
  C        2.0432640    -1.3188820     0.0000040
  C        2.5978420    -0.0201300     0.0000040
  C        0.6688530    -1.5149630     0.0000000
  C        1.7894440     1.1098670     0.0000020
  N       -0.6328500     1.8116730     0.0000060
  H        2.7093900    -2.1785170     0.0000140
  H        3.6789570     0.0979150     0.0000120
  H        0.2462267    -2.5398837    -0.0000092
  H        2.2194160     2.1097700    -0.0000210
  H       -3.6376970    -0.9014040    -0.0000240
  H       -2.5280300    -1.9591080     0.8829250
  H       -2.7737400     1.6710680     0.0000050
  H       -0.5326180     2.8176610     0.0000030
  H       -2.5279980    -1.9591520    -0.8828820
units angstrom
no_reorient  #important for SAPT in psi4, default
symmetry c1  #important for SAPT in psi4, default
}

set PROPERTIES_ORIGIN ["COM"]
properties('MP2/aug-cc-pvtz', properties = ['dipole'])
--------------------------------------------------------------------------

    Molecular point group: c1
  Charge       = 0
  Multiplicity = 1
  Basis Set: AUG-CC-PVTZ
    Blend: AUG-CC-PVTZ
  Basis Set: (AUG-CC-PVTZ AUX)
    Blend: AUG-CC-PVTZ-JKFIT

    Orbital Energies [Eh]
    ---------------------

    Doubly Occupied:

       1A    -15.600018     2A    -11.265433     3A    -11.264591
       4A    -11.232967     5A    -11.231938     6A    -11.229591
       7A    -11.222835     8A    -11.221935     9A    -11.221365
      10A    -11.221248    11A     -1.291768    12A     -1.126972
      13A     -1.072138    14A     -0.996873    15A     -0.985765
      16A     -0.930840    17A     -0.838401    18A     -0.804035
      19A     -0.755478    20A     -0.718933    21A     -0.659491
      22A     -0.644673    23A     -0.602876    24A     -0.591995
      25A     -0.591360    26A     -0.569628    27A     -0.551382
      28A     -0.542205    29A     -0.529646    30A     -0.497441
      31A     -0.475080    32A     -0.463184    33A     -0.374619
      34A     -0.298753    35A     -0.277801

  @DF-RHF Final Energy:  -400.63952843403280

   => Energetics <=

    Nuclear Repulsion Energy =            483.1580566980173330
    One-Electron Energy =               -1499.7886522834639891
    Two-Electron Energy =                 615.9910671514137448
    Total Energy =                       -400.6395284340328544
  Basis Set: (AUG-CC-PVTZ AUX)
    Blend: AUG-CC-PVTZ-RI
    Molecular point group: c1

    Geometry (in Angstrom), charge = 0, multiplicity = 1:

       Center              X                  Y                   Z               Mass
    ------------   -----------------  -----------------  -----------------  -----------------
         C           -2.649690590135    -1.339434603116     0.000003373860    12.000000000000
         C           -0.202275590135    -0.412280603116    -0.000013626140    12.000000000000
         C           -1.626569590135    -0.248450603116    -0.000006626140    12.000000000000
         C            0.380115409865     0.885237396884    -0.000011626140    12.000000000000
         C           -1.857996590135     1.109592396884     0.000007373860    12.000000000000
         C            2.019580409865    -1.340152603116     0.000004373860    12.000000000000
         C            2.574158409865    -0.041400603116     0.000004373860    12.000000000000
         C            0.645169409865    -1.536233603116     0.000000373860    12.000000000000
         C            1.765760409865     1.088596396884     0.000002373860    12.000000000000
         N           -0.656533590135     1.790402396884     0.000006373860    14.003074004430
         H            2.685706409865    -2.199787603116     0.000014373860     1.007825032230
         H            3.655273409865     0.076644396884     0.000012373860     1.007825032230
         H            0.222543109865    -2.561154303116    -0.000008826140     1.007825032230
         H            2.195732409865     2.088499396884    -0.000020626140     1.007825032230
         H           -3.661380590135    -0.922674603116    -0.000023626140     1.007825032230
         H           -2.551713590135    -1.980378603116     0.882925373860     1.007825032230
         H           -2.797423590135     1.649797396884     0.000005373860     1.007825032230
         H           -0.556301590135     2.796390396884     0.000003373860     1.007825032230
         H           -2.551681590135    -1.980422603116    -0.882881626140     1.007825032230

  Basis Set: AUG-CC-PVTZ
    Blend: AUG-CC-PVTZ
  Basis Set: (AUG-CC-PVTZ AUX)
    Blend: AUG-CC-PVTZ-JKFIT
	 Reference Energy          =    -400.6395284340327976 [Eh]
	 Singles Energy            =      -0.0000000000000000 [Eh]
	 Same-Spin Energy          =      -0.4517369953769523 [Eh]
	 Opposite-Spin Energy      =      -1.4042846401682729 [Eh]
	 Correlation Energy        =      -1.8560216355452253 [Eh]
	 Total Energy              =    -402.4955500695780302 [Eh]

	 ================> DF-SCS-MP2 Energies <==================
	-----------------------------------------------------------
	 SCS Same-Spin Scale       =       0.3333333333333333 [-]
	 SCS Opposite-Spin Scale   =       1.2000000000000000 [-]
	 SCS Same-Spin Energy      =      -0.1505789984589841 [Eh]
	 SCS Opposite-Spin Energy  =      -1.6851415682019275 [Eh]
	 SCS Correlation Energy    =      -1.8357205666609115 [Eh]
	 SCS Total Energy          =    -402.4752490006937364 [Eh]
	-----------------------------------------------------------

  Dipole Moment: [D]
     X:    -0.9557      Y:     1.8131      Z:    -0.0000     Total:     2.0495

*** Psi4 exiting successfully. Buy a developer a beer!
