                               Psi4 1.3.2 release

  ==> Input File <==

--------------------------------------------------------------------------
#psi4
#
memory 32 gb

molecule  {
0 1
  C       -2.6260010    -1.3181790     0.0001460
  C       -0.1785650    -0.3909870     0.0002200
  C       -1.6028750    -0.2271810    -0.0000330
  C        0.4037930     0.9065250    -0.0001510
  C       -1.8343220     1.1308500    -0.0000640
  C        2.0432510    -1.3188980     0.0000320
  C        2.5978260    -0.0201320    -0.0000760
  C        0.6688440    -1.5149670    -0.0002860
  C        1.7894520     1.1098640     0.0002960
  N       -0.6328400     1.8116850    -0.0001020
  H        2.7093930    -2.1785160    -0.0003580
  H        3.6789480     0.0978590     0.0002690
  H        0.2537760    -2.5213680    -0.0000660
  H        2.2984031     2.2935149     0.0002830
  H       -3.6376700    -0.9013790    -0.0001930
  H       -2.5281620    -1.9588410     0.8832840
  H       -2.7737480     1.6710560    -0.0003610
  H       -0.5326520     2.8176750    -0.0001200
  H       -2.5278290    -1.9594320    -0.8825300
units angstrom
no_reorient  #important for SAPT in psi4, default
symmetry c1  #important for SAPT in psi4, default
}

set PROPERTIES_ORIGIN ["COM"]
properties('MP2/aug-cc-pvtz', properties = ['dipole'])
--------------------------------------------------------------------------

    Molecular point group: c1
  Charge       = 0
  Multiplicity = 1
  Basis Set: AUG-CC-PVTZ
    Blend: AUG-CC-PVTZ
  Basis Set: (AUG-CC-PVTZ AUX)
    Blend: AUG-CC-PVTZ-JKFIT

    Orbital Energies [Eh]
    ---------------------

    Doubly Occupied:

       1A    -15.600458     2A    -11.267851     3A    -11.265385
       4A    -11.253504     5A    -11.231935     6A    -11.231745
       7A    -11.224161     8A    -11.222999     9A    -11.222859
      10A    -11.222077    11A     -1.292389    12A     -1.127949
      13A     -1.071959    14A     -0.994856    15A     -0.986766
      16A     -0.931636    17A     -0.834891    18A     -0.805221
      19A     -0.751246    20A     -0.717049    21A     -0.657602
      22A     -0.641412    23A     -0.600294    24A     -0.592814
      25A     -0.572747    26A     -0.570468    27A     -0.552103
      28A     -0.542087    29A     -0.531132    30A     -0.497450
      31A     -0.466924    32A     -0.464525    33A     -0.375789
      34A     -0.300095    35A     -0.278728

  @DF-RHF Final Energy:  -400.61800359872575

   => Energetics <=

    Nuclear Repulsion Energy =            482.3237282339200078
    One-Electron Energy =               -1498.0812549822578603
    Two-Electron Energy =                 615.1395231496120459
    Total Energy =                       -400.6180035987257497
  Basis Set: (AUG-CC-PVTZ AUX)
    Blend: AUG-CC-PVTZ-RI
    Molecular point group: c1

    Geometry (in Angstrom), charge = 0, multiplicity = 1:

       Center              X                  Y                   Z               Mass
    ------------   -----------------  -----------------  -----------------  -----------------
         C           -2.650351068916    -1.341004471284     0.000147607388    12.000000000000
         C           -0.202915068916    -0.413812471284     0.000221607388    12.000000000000
         C           -1.627225068916    -0.250006471284    -0.000031392612    12.000000000000
         C            0.379442931084     0.883699528716    -0.000149392612    12.000000000000
         C           -1.858672068916     1.108024528716    -0.000062392612    12.000000000000
         C            2.018900931084    -1.341723471284     0.000033607388    12.000000000000
         C            2.573475931084    -0.042957471284    -0.000074392612    12.000000000000
         C            0.644493931084    -1.537792471284    -0.000284392612    12.000000000000
         C            1.765101931084     1.087038528716     0.000297607388    12.000000000000
         N           -0.657190068916     1.788859528716    -0.000100392612    14.003074004430
         H            2.685042931084    -2.201341471284    -0.000356392612     1.007825032230
         H            3.654597931084     0.075033528716     0.000270607388     1.007825032230
         H            0.229425931084    -2.544193471284    -0.000064392612     1.007825032230
         H            2.274053031084     2.270689428716     0.000284607388     1.007825032230
         H           -3.662020068916    -0.924204471284    -0.000191392612     1.007825032230
         H           -2.552512068916    -1.981666471284     0.883285607388     1.007825032230
         H           -2.798098068916     1.648230528716    -0.000359392612     1.007825032230
         H           -0.557002068916     2.794849528716    -0.000118392612     1.007825032230
         H           -2.552179068916    -1.982257471284    -0.882528392612     1.007825032230

  Basis Set: AUG-CC-PVTZ
    Blend: AUG-CC-PVTZ
  Basis Set: (AUG-CC-PVTZ AUX)
    Blend: AUG-CC-PVTZ-JKFIT
	 Reference Energy          =    -400.6180035987257497 [Eh]
	 Singles Energy            =      -0.0000000000000000 [Eh]
	 Same-Spin Energy          =      -0.4522227562895174 [Eh]
	 Opposite-Spin Energy      =      -1.4063248467829559 [Eh]
	 Correlation Energy        =      -1.8585476030724732 [Eh]
	 Total Energy              =    -402.4765512017982019 [Eh]

	 ================> DF-SCS-MP2 Energies <==================
	-----------------------------------------------------------
	 SCS Same-Spin Scale       =       0.3333333333333333 [-]
	 SCS Opposite-Spin Scale   =       1.2000000000000000 [-]
	 SCS Same-Spin Energy      =      -0.1507409187631724 [Eh]
	 SCS Opposite-Spin Energy  =      -1.6875898161395471 [Eh]
	 SCS Correlation Energy    =      -1.8383307349027196 [Eh]
	 SCS Total Energy          =    -402.4563343336284902 [Eh]
	-----------------------------------------------------------

  Dipole Moment: [D]
     X:    -1.0172      Y:     1.7011      Z:    -0.0001     Total:     1.9820

*** Psi4 exiting successfully. Buy a developer a beer!
