                               Psi4 1.3.2 release

  ==> Input File <==

--------------------------------------------------------------------------
#psi4
#
memory 32 gb

molecule  {
0 1
  C       -2.6260010    -1.3181790     0.0001460
  C       -0.1785650    -0.3909870     0.0002200
  C       -1.6028750    -0.2271810    -0.0000330
  C        0.4037930     0.9065250    -0.0001510
  C       -1.8343220     1.1308500    -0.0000640
  C        2.0432510    -1.3188980     0.0000320
  C        2.5978260    -0.0201320    -0.0000760
  C        0.6688440    -1.5149670    -0.0002860
  C        1.8031159     0.9639093     0.0002468
  N       -0.6328400     1.8116850    -0.0001020
  H        2.7093930    -2.1785160    -0.0003580
  H        3.6789480     0.0978590     0.0002690
  H        0.2537760    -2.5213680    -0.0000660
  H        2.2194000     2.1097800     0.0002850
  H       -3.6376700    -0.9013790    -0.0001930
  H       -2.5281620    -1.9588410     0.8832840
  H       -2.7737480     1.6710560    -0.0003610
  H       -0.5326520     2.8176750    -0.0001200
  H       -2.5278290    -1.9594320    -0.8825300
units angstrom
no_reorient  #important for SAPT in psi4, default
symmetry c1  #important for SAPT in psi4, default
}

set PROPERTIES_ORIGIN ["COM"]
properties('MP2/aug-cc-pvtz', properties = ['dipole'])
--------------------------------------------------------------------------

    Molecular point group: c1
  Charge       = 0
  Multiplicity = 1
  Basis Set: AUG-CC-PVTZ
    Blend: AUG-CC-PVTZ
  Basis Set: (AUG-CC-PVTZ AUX)
    Blend: AUG-CC-PVTZ-JKFIT

    Orbital Energies [Eh]
    ---------------------

    Doubly Occupied:

       1A    -15.605957     2A    -11.264446     3A    -11.263721
       4A    -11.230517     5A    -11.228792     6A    -11.222614
       7A    -11.221341     8A    -11.220487     9A    -11.219113
      10A    -11.213939    11A     -1.292825    12A     -1.144170
      13A     -1.074783    14A     -1.001784    15A     -0.990193
      16A     -0.932589    17A     -0.835701    18A     -0.810952
      19A     -0.749998    20A     -0.724422    21A     -0.661937
      22A     -0.650782    23A     -0.599495    24A     -0.593652
      25A     -0.579783    26A     -0.571988    27A     -0.552720
      28A     -0.540387    29A     -0.538694    30A     -0.498611
      31A     -0.476122    32A     -0.448399    33A     -0.380290
      34A     -0.295816    35A     -0.287059

  @DF-RHF Final Energy:  -400.61171068768346

   => Energetics <=

    Nuclear Repulsion Energy =            485.3230523859239725
    One-Electron Energy =               -1504.0213731601675136
    Two-Electron Energy =                 618.0866100865600856
    Total Energy =                       -400.6117106876833986
  Basis Set: (AUG-CC-PVTZ AUX)
    Blend: AUG-CC-PVTZ-RI
    Molecular point group: c1

    Geometry (in Angstrom), charge = 0, multiplicity = 1:

       Center              X                  Y                   Z               Mass
    ------------   -----------------  -----------------  -----------------  -----------------
         C           -2.650994566638    -1.326229333351     0.000152096353    12.000000000000
         C           -0.203558566638    -0.399037333351     0.000226096353    12.000000000000
         C           -1.627868566638    -0.235231333351    -0.000026903647    12.000000000000
         C            0.378799433362     0.898474666649    -0.000144903647    12.000000000000
         C           -1.859315566638     1.122799666649    -0.000057903647    12.000000000000
         C            2.018257433362    -1.326948333351     0.000038096353    12.000000000000
         C            2.572832433362    -0.028182333351    -0.000069903647    12.000000000000
         C            0.643850433362    -1.523017333351    -0.000279903647    12.000000000000
         C            1.778122333362     0.955858966649     0.000252896353    12.000000000000
         N           -0.657833566638     1.803634666649    -0.000095903647    14.003074004430
         H            2.684399433362    -2.186566333351    -0.000351903647     1.007825032230
         H            3.653954433362     0.089808666649     0.000275096353     1.007825032230
         H            0.228782433362    -2.529418333351    -0.000059903647     1.007825032230
         H            2.194406433362     2.101729666649     0.000291096353     1.007825032230
         H           -3.662663566638    -0.909429333351    -0.000186903647     1.007825032230
         H           -2.553155566638    -1.966891333351     0.883290096353     1.007825032230
         H           -2.798741566638     1.663005666649    -0.000354903647     1.007825032230
         H           -0.557645566638     2.809624666649    -0.000113903647     1.007825032230
         H           -2.552822566638    -1.967482333351    -0.882523903647     1.007825032230

  Basis Set: AUG-CC-PVTZ
    Blend: AUG-CC-PVTZ
  Basis Set: (AUG-CC-PVTZ AUX)
    Blend: AUG-CC-PVTZ-JKFIT
	 Reference Energy          =    -400.6117106876834555 [Eh]
	 Singles Energy            =      -0.0000000000000000 [Eh]
	 Same-Spin Energy          =      -0.4519034085250200 [Eh]
	 Opposite-Spin Energy      =      -1.4045189021703623 [Eh]
	 Correlation Energy        =      -1.8564223106953823 [Eh]
	 Total Energy              =    -402.4681329983788487 [Eh]

	 ================> DF-SCS-MP2 Energies <==================
	-----------------------------------------------------------
	 SCS Same-Spin Scale       =       0.3333333333333333 [-]
	 SCS Opposite-Spin Scale   =       1.2000000000000000 [-]
	 SCS Same-Spin Energy      =      -0.1506344695083400 [Eh]
	 SCS Opposite-Spin Energy  =      -1.6854226826044347 [Eh]
	 SCS Correlation Energy    =      -1.8360571521127746 [Eh]
	 SCS Total Energy          =    -402.4477678397962563 [Eh]
	-----------------------------------------------------------

  Dipole Moment: [D]
     X:    -0.9604      Y:     1.7078      Z:    -0.0001     Total:     1.9593

*** Psi4 exiting successfully. Buy a developer a beer!
