                               Psi4 1.3.2 release

  ==> Input File <==

--------------------------------------------------------------------------
#psi4
#
memory 32 gb

molecule  {
0 1
  C       -2.5873025    -1.3532210     0.0001426
  C       -0.1785650    -0.3909870     0.0002200
  C       -1.6028750    -0.2271810    -0.0000330
  C        0.4037930     0.9065250    -0.0001510
  C       -1.8343220     1.1308500    -0.0000640
  C        2.0432510    -1.3188980     0.0000320
  C        2.5978260    -0.0201320    -0.0000760
  C        0.6688440    -1.5149670    -0.0002860
  C        1.7894520     1.1098640     0.0002960
  N       -0.6328400     1.8116850    -0.0001020
  H        2.7093930    -2.1785160    -0.0003580
  H        3.6789480     0.0978590     0.0002690
  H        0.2537760    -2.5213680    -0.0000660
  H        2.2194000     2.1097800     0.0002850
  H       -3.6376700    -0.9013790    -0.0001930
  H       -2.5281620    -1.9588410     0.8832840
  H       -2.7737480     1.6710560    -0.0003610
  H       -0.5326520     2.8176750    -0.0001200
  H       -2.5278290    -1.9594320    -0.8825300
units angstrom
no_reorient  #important for SAPT in psi4, default
symmetry c1  #important for SAPT in psi4, default
}

set PROPERTIES_ORIGIN ["COM"]
properties('MP2/aug-cc-pvtz', properties = ['dipole'])
--------------------------------------------------------------------------

    Molecular point group: c1
  Charge       = 0
  Multiplicity = 1
  Basis Set: AUG-CC-PVTZ
    Blend: AUG-CC-PVTZ
  Basis Set: (AUG-CC-PVTZ AUX)
    Blend: AUG-CC-PVTZ-JKFIT

    Orbital Energies [Eh]
    ---------------------

    Doubly Occupied:

       1A    -15.600427     2A    -11.265817     3A    -11.264963
       4A    -11.231761     5A    -11.230492     6A    -11.229326
       7A    -11.222724     8A    -11.221861     9A    -11.221061
      10A    -11.220904    11A     -1.291979    12A     -1.126968
      13A     -1.072250    14A     -0.997186    15A     -0.985001
      16A     -0.932108    17A     -0.839034    18A     -0.803723
      19A     -0.755908    20A     -0.720421    21A     -0.659775
      22A     -0.644589    23A     -0.601452    24A     -0.596503
      25A     -0.592625    26A     -0.565610    27A     -0.560467
      28A     -0.545943    29A     -0.523637    30A     -0.495528
      31A     -0.470952    32A     -0.463082    33A     -0.375488
      34A     -0.298613    35A     -0.278350

  @DF-RHF Final Energy:  -400.63722434882993

   => Energetics <=

    Nuclear Repulsion Energy =            483.4061453516331426
    One-Electron Energy =               -1500.2736776013778126
    Two-Electron Energy =                 616.2303079009147950
    Total Energy =                       -400.6372243488299318
  Basis Set: (AUG-CC-PVTZ AUX)
    Blend: AUG-CC-PVTZ-RI
    Molecular point group: c1

    Geometry (in Angstrom), charge = 0, multiplicity = 1:

       Center              X                  Y                   Z               Mass
    ------------   -----------------  -----------------  -----------------  -----------------
         C           -2.614588026505    -1.371425578161     0.000144503286    12.000000000000
         C           -0.205850526505    -0.409191578161     0.000221903286    12.000000000000
         C           -1.630160526505    -0.245385578161    -0.000031096714    12.000000000000
         C            0.376507473495     0.888320421839    -0.000149096714    12.000000000000
         C           -1.861607526505     1.112645421839    -0.000062096714    12.000000000000
         C            2.015965473495    -1.337102578161     0.000033903286    12.000000000000
         C            2.570540473495    -0.038336578161    -0.000074096714    12.000000000000
         C            0.641558473495    -1.533171578161    -0.000284096714    12.000000000000
         C            1.762166473495     1.091659421839     0.000297903286    12.000000000000
         N           -0.660125526505     1.793480421839    -0.000100096714    14.003074004430
         H            2.682107473495    -2.196720578161    -0.000356096714     1.007825032230
         H            3.651662473495     0.079654421839     0.000270903286     1.007825032230
         H            0.226490473495    -2.539572578161    -0.000064096714     1.007825032230
         H            2.192114473495     2.091575421839     0.000286903286     1.007825032230
         H           -3.664955526505    -0.919583578161    -0.000191096714     1.007825032230
         H           -2.555447526505    -1.977045578161     0.883285903286     1.007825032230
         H           -2.801033526505     1.652851421839    -0.000359096714     1.007825032230
         H           -0.559937526505     2.799470421839    -0.000118096714     1.007825032230
         H           -2.555114526505    -1.977636578161    -0.882528096714     1.007825032230

  Basis Set: AUG-CC-PVTZ
    Blend: AUG-CC-PVTZ
  Basis Set: (AUG-CC-PVTZ AUX)
    Blend: AUG-CC-PVTZ-JKFIT
	 Reference Energy          =    -400.6372243488299318 [Eh]
	 Singles Energy            =      -0.0000000000000000 [Eh]
	 Same-Spin Energy          =      -0.4517721459379450 [Eh]
	 Opposite-Spin Energy      =      -1.4043410404386383 [Eh]
	 Correlation Energy        =      -1.8561131863765832 [Eh]
	 Total Energy              =    -402.4933375352065354 [Eh]

	 ================> DF-SCS-MP2 Energies <==================
	-----------------------------------------------------------
	 SCS Same-Spin Scale       =       0.3333333333333333 [-]
	 SCS Opposite-Spin Scale   =       1.2000000000000000 [-]
	 SCS Same-Spin Energy      =      -0.1505907153126483 [Eh]
	 SCS Opposite-Spin Energy  =      -1.6852092485263659 [Eh]
	 SCS Correlation Energy    =      -1.8357999638390141 [Eh]
	 SCS Total Energy          =    -402.4730243126689402 [Eh]
	-----------------------------------------------------------

  Dipole Moment: [D]
     X:    -0.9347      Y:     1.7951      Z:    -0.0001     Total:     2.0238

*** Psi4 exiting successfully. Buy a developer a beer!
