                               Psi4 1.3.2 release

  ==> Input File <==

--------------------------------------------------------------------------
#psi4
#
memory 32 gb

molecule  {
0 1
  C       -2.6260010    -1.3181790     0.0001460
  C       -0.1785650    -0.3909870     0.0002200
  C       -1.5087073    -0.2077280    -0.0000351
  C        0.4037930     0.9065250    -0.0001510
  C       -1.8343220     1.1308500    -0.0000640
  C        2.0432510    -1.3188980     0.0000320
  C        2.5978260    -0.0201320    -0.0000760
  C        0.6688440    -1.5149670    -0.0002860
  C        1.7894520     1.1098640     0.0002960
  N       -0.6328400     1.8116850    -0.0001020
  H        2.7093930    -2.1785160    -0.0003580
  H        3.6789480     0.0978590     0.0002690
  H        0.2537760    -2.5213680    -0.0000660
  H        2.2194000     2.1097800     0.0002850
  H       -3.6376700    -0.9013790    -0.0001930
  H       -2.5281620    -1.9588410     0.8832840
  H       -2.7737480     1.6710560    -0.0003610
  H       -0.5326520     2.8176750    -0.0001200
  H       -2.5278290    -1.9594320    -0.8825300
units angstrom
no_reorient  #important for SAPT in psi4, default
symmetry c1  #important for SAPT in psi4, default
}

set PROPERTIES_ORIGIN ["COM"]
properties('MP2/aug-cc-pvtz', properties = ['dipole'])
--------------------------------------------------------------------------

    Molecular point group: c1
  Charge       = 0
  Multiplicity = 1
  Basis Set: AUG-CC-PVTZ
    Blend: AUG-CC-PVTZ
  Basis Set: (AUG-CC-PVTZ AUX)
    Blend: AUG-CC-PVTZ-JKFIT

    Orbital Energies [Eh]
    ---------------------

    Doubly Occupied:

       1A    -15.602172     2A    -11.263946     3A    -11.262872
       4A    -11.232714     5A    -11.230939     6A    -11.229187
       7A    -11.223079     8A    -11.222266     9A    -11.217484
      10A    -11.214166    11A     -1.297106    12A     -1.129375
      13A     -1.075232    14A     -0.997490    15A     -0.982282
      16A     -0.925911    17A     -0.841910    18A     -0.811405
      19A     -0.756303    20A     -0.719821    21A     -0.661918
      22A     -0.647384    23A     -0.602375    24A     -0.594066
      25A     -0.593218    26A     -0.572367    27A     -0.547084
      28A     -0.534044    29A     -0.521845    30A     -0.503652
      31A     -0.472053    32A     -0.463139    33A     -0.383798
      34A     -0.301926    35A     -0.272225

  @DF-RHF Final Energy:  -400.62715203907908

   => Energetics <=

    Nuclear Repulsion Energy =            484.5785607461561995
    One-Electron Energy =               -1502.5979163598733521
    Two-Electron Energy =                 617.3922035746380743
    Total Energy =                       -400.6271520390790783
  Basis Set: (AUG-CC-PVTZ AUX)
    Blend: AUG-CC-PVTZ-RI
    Molecular point group: c1

    Geometry (in Angstrom), charge = 0, multiplicity = 1:

       Center              X                  Y                   Z               Mass
    ------------   -----------------  -----------------  -----------------  -----------------
         C           -2.658364825349    -1.341372687352     0.000147784268    12.000000000000
         C           -0.210928825349    -0.414180687352     0.000221784268    12.000000000000
         C           -1.541071125349    -0.230921687352    -0.000033315732    12.000000000000
         C            0.371429174651     0.883331312648    -0.000149215732    12.000000000000
         C           -1.866685825349     1.107656312648    -0.000062215732    12.000000000000
         C            2.010887174651    -1.342091687352     0.000033784268    12.000000000000
         C            2.565462174651    -0.043325687352    -0.000074215732    12.000000000000
         C            0.636480174651    -1.538160687352    -0.000284215732    12.000000000000
         C            1.757088174651     1.086670312648     0.000297784268    12.000000000000
         N           -0.665203825349     1.788491312648    -0.000100215732    14.003074004430
         H            2.677029174651    -2.201709687352    -0.000356215732     1.007825032230
         H            3.646584174651     0.074665312648     0.000270784268     1.007825032230
         H            0.221412174651    -2.544561687352    -0.000064215732     1.007825032230
         H            2.187036174651     2.086586312648     0.000286784268     1.007825032230
         H           -3.670033825349    -0.924572687352    -0.000191215732     1.007825032230
         H           -2.560525825349    -1.982034687352     0.883285784268     1.007825032230
         H           -2.806111825349     1.647862312648    -0.000359215732     1.007825032230
         H           -0.565015825349     2.794481312648    -0.000118215732     1.007825032230
         H           -2.560192825349    -1.982625687352    -0.882528215732     1.007825032230

  Basis Set: AUG-CC-PVTZ
    Blend: AUG-CC-PVTZ
  Basis Set: (AUG-CC-PVTZ AUX)
    Blend: AUG-CC-PVTZ-JKFIT
	 Reference Energy          =    -400.6271520390790783 [Eh]
	 Singles Energy            =      -0.0000000000000000 [Eh]
	 Same-Spin Energy          =      -0.4528034314339501 [Eh]
	 Opposite-Spin Energy      =      -1.4057204450798406 [Eh]
	 Correlation Energy        =      -1.8585238765137908 [Eh]
	 Total Energy              =    -402.4856759155928785 [Eh]

	 ================> DF-SCS-MP2 Energies <==================
	-----------------------------------------------------------
	 SCS Same-Spin Scale       =       0.3333333333333333 [-]
	 SCS Opposite-Spin Scale   =       1.2000000000000000 [-]
	 SCS Same-Spin Energy      =      -0.1509344771446500 [Eh]
	 SCS Opposite-Spin Energy  =      -1.6868645340958086 [Eh]
	 SCS Correlation Energy    =      -1.8377990112404587 [Eh]
	 SCS Total Energy          =    -402.4649510503195415 [Eh]
	-----------------------------------------------------------

  Dipole Moment: [D]
     X:    -0.9354      Y:     1.9259      Z:    -0.0001     Total:     2.1410

*** Psi4 exiting successfully. Buy a developer a beer!
