                               Psi4 1.3.2 release

  ==> Input File <==

--------------------------------------------------------------------------
#psi4
#
memory 32 gb

molecule  {
0 1
  C       -2.6260010    -1.3181790     0.0001460
  C       -0.1558316    -0.4009529     0.0002335
  C       -1.6028750    -0.2271810    -0.0000330
  C        0.4037930     0.9065250    -0.0001510
  C       -1.8343220     1.1308500    -0.0000640
  C        2.0432510    -1.3188980     0.0000320
  C        2.5978260    -0.0201320    -0.0000760
  C        0.6688440    -1.5149670    -0.0002860
  C        1.7894520     1.1098640     0.0002960
  N       -0.6328400     1.8116850    -0.0001020
  H        2.7093930    -2.1785160    -0.0003580
  H        3.6789480     0.0978590     0.0002690
  H        0.2537760    -2.5213680    -0.0000660
  H        2.2194000     2.1097800     0.0002850
  H       -3.6376700    -0.9013790    -0.0001930
  H       -2.5281620    -1.9588410     0.8832840
  H       -2.7737480     1.6710560    -0.0003610
  H       -0.5326520     2.8176750    -0.0001200
  H       -2.5278290    -1.9594320    -0.8825300
units angstrom
no_reorient  #important for SAPT in psi4, default
symmetry c1  #important for SAPT in psi4, default
}

set PROPERTIES_ORIGIN ["COM"]
properties('MP2/aug-cc-pvtz', properties = ['dipole'])
--------------------------------------------------------------------------

    Molecular point group: c1
  Charge       = 0
  Multiplicity = 1
  Basis Set: AUG-CC-PVTZ
    Blend: AUG-CC-PVTZ
  Basis Set: (AUG-CC-PVTZ AUX)
    Blend: AUG-CC-PVTZ-JKFIT

    Orbital Energies [Eh]
    ---------------------

    Doubly Occupied:

       1A    -15.599098     2A    -11.266138     3A    -11.264619
       4A    -11.231423     5A    -11.229433     6A    -11.228772
       7A    -11.224087     8A    -11.222084     9A    -11.221176
      10A    -11.220817    11A     -1.290465    12A     -1.129316
      13A     -1.069489    14A     -0.998639    15A     -0.986305
      16A     -0.930036    17A     -0.839751    18A     -0.803496
      19A     -0.754913    20A     -0.720185    21A     -0.659088
      22A     -0.644612    23A     -0.603161    24A     -0.595865
      25A     -0.591110    26A     -0.569925    27A     -0.551217
      28A     -0.541272    29A     -0.529823    30A     -0.499182
      31A     -0.472185    32A     -0.464605    33A     -0.374015
      34A     -0.297611    35A     -0.279467

  @DF-RHF Final Energy:  -400.64000198179320

   => Energetics <=

    Nuclear Repulsion Energy =            483.2219743590847543
    One-Electron Energy =               -1499.9171911564726543
    Two-Electron Energy =                 616.0552148155948089
    Total Energy =                       -400.6400019817931479
  Basis Set: (AUG-CC-PVTZ AUX)
    Blend: AUG-CC-PVTZ-RI
    Molecular point group: c1

    Geometry (in Angstrom), charge = 0, multiplicity = 1:

       Center              X                  Y                   Z               Mass
    ------------   -----------------  -----------------  -----------------  -----------------
         C           -2.651824894664    -1.338679337423     0.000146356062    12.000000000000
         C           -0.181655494664    -0.421453237423     0.000233856062    12.000000000000
         C           -1.628698894664    -0.247681337423    -0.000032643938    12.000000000000
         C            0.377969105336     0.886024662577    -0.000150643938    12.000000000000
         C           -1.860145894664     1.110349662577    -0.000063643938    12.000000000000
         C            2.017427105336    -1.339398337423     0.000032356062    12.000000000000
         C            2.572002105336    -0.040632337423    -0.000075643938    12.000000000000
         C            0.643020105336    -1.535467337423    -0.000285643938    12.000000000000
         C            1.763628105336     1.089363662577     0.000296356062    12.000000000000
         N           -0.658663894664     1.791184662577    -0.000101643938    14.003074004430
         H            2.683569105336    -2.199016337423    -0.000357643938     1.007825032230
         H            3.653124105336     0.077358662577     0.000269356062     1.007825032230
         H            0.227952105336    -2.541868337423    -0.000065643938     1.007825032230
         H            2.193576105336     2.089279662577     0.000285356062     1.007825032230
         H           -3.663493894664    -0.921879337423    -0.000192643938     1.007825032230
         H           -2.553985894664    -1.979341337423     0.883284356062     1.007825032230
         H           -2.799571894664     1.650555662577    -0.000360643938     1.007825032230
         H           -0.558475894664     2.797174662577    -0.000119643938     1.007825032230
         H           -2.553652894664    -1.979932337423    -0.882529643938     1.007825032230

  Basis Set: AUG-CC-PVTZ
    Blend: AUG-CC-PVTZ
  Basis Set: (AUG-CC-PVTZ AUX)
    Blend: AUG-CC-PVTZ-JKFIT
	 Reference Energy          =    -400.6400019817932048 [Eh]
	 Singles Energy            =      -0.0000000000000000 [Eh]
	 Same-Spin Energy          =      -0.4513986709886245 [Eh]
	 Opposite-Spin Energy      =      -1.4037450405306893 [Eh]
	 Correlation Energy        =      -1.8551437115193137 [Eh]
	 Total Energy              =    -402.4951456933125087 [Eh]

	 ================> DF-SCS-MP2 Energies <==================
	-----------------------------------------------------------
	 SCS Same-Spin Scale       =       0.3333333333333333 [-]
	 SCS Opposite-Spin Scale   =       1.2000000000000000 [-]
	 SCS Same-Spin Energy      =      -0.1504662236628748 [Eh]
	 SCS Opposite-Spin Energy  =      -1.6844940486368272 [Eh]
	 SCS Correlation Energy    =      -1.8349602722997020 [Eh]
	 SCS Total Energy          =    -402.4749622540929295 [Eh]
	-----------------------------------------------------------

  Dipole Moment: [D]
     X:    -0.9362      Y:     1.7877      Z:    -0.0001     Total:     2.0180

*** Psi4 exiting successfully. Buy a developer a beer!
