                               Psi4 1.3.2 release

  ==> Input File <==

--------------------------------------------------------------------------
#psi4
#
memory 32 gb

molecule  {
0 1
  C       -2.6260010    -1.3181790     0.0001460
  C       -0.1785650    -0.3909870     0.0002200
  C       -1.6028750    -0.2271810    -0.0000330
  C        0.3901291     1.0524797    -0.0000804
  C       -1.8343220     1.1308500    -0.0000640
  C        2.0432510    -1.3188980     0.0000320
  C        2.5978260    -0.0201320    -0.0000760
  C        0.6688440    -1.5149670    -0.0002860
  C        1.7894520     1.1098640     0.0002960
  N       -0.6328400     1.8116850    -0.0001020
  H        2.7093930    -2.1785160    -0.0003580
  H        3.6789480     0.0978590     0.0002690
  H        0.2537760    -2.5213680    -0.0000660
  H        2.2194000     2.1097800     0.0002850
  H       -3.6376700    -0.9013790    -0.0001930
  H       -2.5281620    -1.9588410     0.8832840
  H       -2.7737480     1.6710560    -0.0003610
  H       -0.5326520     2.8176750    -0.0001200
  H       -2.5278290    -1.9594320    -0.8825300
units angstrom
no_reorient  #important for SAPT in psi4, default
symmetry c1  #important for SAPT in psi4, default
}

set PROPERTIES_ORIGIN ["COM"]
properties('MP2/aug-cc-pvtz', properties = ['dipole'])
--------------------------------------------------------------------------

    Molecular point group: c1
  Charge       = 0
  Multiplicity = 1
  Basis Set: AUG-CC-PVTZ
    Blend: AUG-CC-PVTZ
  Basis Set: (AUG-CC-PVTZ AUX)
    Blend: AUG-CC-PVTZ-JKFIT

    Orbital Energies [Eh]
    ---------------------

    Doubly Occupied:

       1A    -15.612530     2A    -11.271615     3A    -11.265194
       4A    -11.229767     5A    -11.229565     6A    -11.229031
       7A    -11.227637     8A    -11.227444     9A    -11.224194
      10A    -11.215959    11A     -1.324178    12A     -1.117225
      13A     -1.079177    14A     -0.996413    15A     -0.976853
      16A     -0.941131    17A     -0.846970    18A     -0.806146
      19A     -0.755259    20A     -0.722974    21A     -0.677733
      22A     -0.645123    23A     -0.603764    24A     -0.593639
      25A     -0.585577    26A     -0.573380    27A     -0.559742
      28A     -0.544532    29A     -0.533023    30A     -0.497872
      31A     -0.459562    32A     -0.447790    33A     -0.383749
      34A     -0.285337    35A     -0.277201

  @DF-RHF Final Energy:  -400.61379056157040

   => Energetics <=

    Nuclear Repulsion Energy =            482.2635095694515144
    One-Electron Energy =               -1497.8200267311092375
    Two-Electron Energy =                 614.9427266000873260
    Total Energy =                       -400.6137905615703403
  Basis Set: (AUG-CC-PVTZ AUX)
    Blend: AUG-CC-PVTZ-RI
    Molecular point group: c1

    Geometry (in Angstrom), charge = 0, multiplicity = 1:

       Center              X                  Y                   Z               Mass
    ------------   -----------------  -----------------  -----------------  -----------------
         C           -2.648492660442    -1.352954131413     0.000141128461    12.000000000000
         C           -0.201056660442    -0.425762131413     0.000215128461    12.000000000000
         C           -1.625366660442    -0.261956131413    -0.000037871539    12.000000000000
         C            0.367637439558     1.017704568587    -0.000085271539    12.000000000000
         C           -1.856813660442     1.096074868587    -0.000068871539    12.000000000000
         C            2.020759339558    -1.353673131413     0.000027128461    12.000000000000
         C            2.575334339558    -0.054907131413    -0.000080871539    12.000000000000
         C            0.646352339558    -1.549742131413    -0.000290871539    12.000000000000
         C            1.766960339558     1.075088868587     0.000291128461    12.000000000000
         N           -0.655331660442     1.776909868587    -0.000106871539    14.003074004430
         H            2.686901339558    -2.213291131413    -0.000362871539     1.007825032230
         H            3.656456339558     0.063083868587     0.000264128461     1.007825032230
         H            0.231284339558    -2.556143131413    -0.000070871539     1.007825032230
         H            2.196908339558     2.075004868587     0.000280128461     1.007825032230
         H           -3.660161660442    -0.936154131413    -0.000197871539     1.007825032230
         H           -2.550653660442    -1.993616131413     0.883279128461     1.007825032230
         H           -2.796239660442     1.636280868587    -0.000365871539     1.007825032230
         H           -0.555143660442     2.782899868587    -0.000124871539     1.007825032230
         H           -2.550320660442    -1.994207131413    -0.882534871539     1.007825032230

  Basis Set: AUG-CC-PVTZ
    Blend: AUG-CC-PVTZ
  Basis Set: (AUG-CC-PVTZ AUX)
    Blend: AUG-CC-PVTZ-JKFIT
	 Reference Energy          =    -400.6137905615703971 [Eh]
	 Singles Energy            =      -0.0000000000000000 [Eh]
	 Same-Spin Energy          =      -0.4537559525091542 [Eh]
	 Opposite-Spin Energy      =      -1.4062568877921007 [Eh]
	 Correlation Energy        =      -1.8600128403012550 [Eh]
	 Total Energy              =    -402.4738034018716348 [Eh]

	 ================> DF-SCS-MP2 Energies <==================
	-----------------------------------------------------------
	 SCS Same-Spin Scale       =       0.3333333333333333 [-]
	 SCS Opposite-Spin Scale   =       1.2000000000000000 [-]
	 SCS Same-Spin Energy      =      -0.1512519841697181 [Eh]
	 SCS Opposite-Spin Energy  =      -1.6875082653505207 [Eh]
	 SCS Correlation Energy    =      -1.8387602495202389 [Eh]
	 SCS Total Energy          =    -402.4525508110906458 [Eh]
	-----------------------------------------------------------

  Dipole Moment: [D]
     X:    -1.3869      Y:     1.9952      Z:    -0.0001     Total:     2.4299

*** Psi4 exiting successfully. Buy a developer a beer!
