                               Psi4 1.3.2 release

  ==> Input File <==

--------------------------------------------------------------------------
#psi4
#
memory 32 gb

molecule  {
0 1
  C       -2.6260010    -1.3181790     0.0001460
  C       -0.1785650    -0.3909870     0.0002200
  C       -1.6028750    -0.2271810    -0.0000330
  C        0.4037930     0.9065250    -0.0001510
  C       -1.8343220     1.1308500    -0.0000640
  C        2.0432510    -1.3188980     0.0000320
  C        2.5978260    -0.0201320    -0.0000760
  C        0.6688440    -1.5149670    -0.0002860
  C        1.7957043     1.0613813     0.0002801
  N       -0.6328400     1.8116850    -0.0001020
  H        2.7093930    -2.1785160    -0.0003580
  H        3.6789480     0.0978590     0.0002690
  H        0.2537760    -2.5213680    -0.0000660
  H        2.2194000     2.1097800     0.0002850
  H       -3.6376700    -0.9013790    -0.0001930
  H       -2.5281620    -1.9588410     0.8832840
  H       -2.7737480     1.6710560    -0.0003610
  H       -0.5326520     2.8176750    -0.0001200
  H       -2.5278290    -1.9594320    -0.8825300
units angstrom
no_reorient  #important for SAPT in psi4, default
symmetry c1  #important for SAPT in psi4, default
}

set PROPERTIES_ORIGIN ["COM"]
properties('MP2/aug-cc-pvtz', properties = ['dipole'])
--------------------------------------------------------------------------

    Molecular point group: c1
  Charge       = 0
  Multiplicity = 1
  Basis Set: AUG-CC-PVTZ
    Blend: AUG-CC-PVTZ
  Basis Set: (AUG-CC-PVTZ AUX)
    Blend: AUG-CC-PVTZ-JKFIT

    Orbital Energies [Eh]
    ---------------------

    Doubly Occupied:

       1A    -15.601923     2A    -11.264401     3A    -11.264337
       4A    -11.231194     5A    -11.229887     6A    -11.224419
       7A    -11.222520     8A    -11.221383     9A    -11.220735
      10A    -11.220564    11A     -1.291951    12A     -1.131736
      13A     -1.072888    14A     -0.997637    15A     -0.987953
      16A     -0.931509    17A     -0.837422    18A     -0.806159
      19A     -0.753705    20A     -0.721093    21A     -0.658754
      22A     -0.647548    23A     -0.600697    24A     -0.592358
      25A     -0.587116    26A     -0.572326    27A     -0.551710
      28A     -0.541830    29A     -0.533307    30A     -0.498435
      31A     -0.468321    32A     -0.466704    33A     -0.376264
      34A     -0.297461    35A     -0.280875

  @DF-RHF Final Energy:  -400.63750607278655

   => Energetics <=

    Nuclear Repulsion Energy =            483.9042019488331903
    One-Electron Energy =               -1501.2691760897519089
    Two-Electron Energy =                 616.7274680681322252
    Total Energy =                       -400.6375060727865502
  Basis Set: (AUG-CC-PVTZ AUX)
    Blend: AUG-CC-PVTZ-RI
    Molecular point group: c1

    Geometry (in Angstrom), charge = 0, multiplicity = 1:

       Center              X                  Y                   Z               Mass
    ------------   -----------------  -----------------  -----------------  -----------------
         C           -2.650316022153    -1.335153059400     0.000149047682    12.000000000000
         C           -0.202880022153    -0.407961059400     0.000223047682    12.000000000000
         C           -1.627190022153    -0.244155059400    -0.000029952318    12.000000000000
         C            0.379477977847     0.889550940600    -0.000147952318    12.000000000000
         C           -1.858637022153     1.113875940600    -0.000060952318    12.000000000000
         C            2.018935977847    -1.335872059400     0.000035047682    12.000000000000
         C            2.573510977847    -0.037106059400    -0.000072952318    12.000000000000
         C            0.644528977847    -1.531941059400    -0.000282952318    12.000000000000
         C            1.771389277847     1.044407240600     0.000283147682    12.000000000000
         N           -0.657155022153     1.794710940600    -0.000098952318    14.003074004430
         H            2.685077977847    -2.195490059400    -0.000354952318     1.007825032230
         H            3.654632977847     0.080884940600     0.000272047682     1.007825032230
         H            0.229460977847    -2.538342059400    -0.000062952318     1.007825032230
         H            2.195084977847     2.092805940600     0.000288047682     1.007825032230
         H           -3.661985022153    -0.918353059400    -0.000189952318     1.007825032230
         H           -2.552477022153    -1.975815059400     0.883287047682     1.007825032230
         H           -2.798063022153     1.654081940600    -0.000357952318     1.007825032230
         H           -0.556967022153     2.800700940600    -0.000116952318     1.007825032230
         H           -2.552144022153    -1.976406059400    -0.882526952318     1.007825032230

  Basis Set: AUG-CC-PVTZ
    Blend: AUG-CC-PVTZ
  Basis Set: (AUG-CC-PVTZ AUX)
    Blend: AUG-CC-PVTZ-JKFIT
	 Reference Energy          =    -400.6375060727865502 [Eh]
	 Singles Energy            =      -0.0000000000000000 [Eh]
	 Same-Spin Energy          =      -0.4516639187863490 [Eh]
	 Opposite-Spin Energy      =      -1.4039541103922226 [Eh]
	 Correlation Energy        =      -1.8556180291785718 [Eh]
	 Total Energy              =    -402.4931241019651225 [Eh]

	 ================> DF-SCS-MP2 Energies <==================
	-----------------------------------------------------------
	 SCS Same-Spin Scale       =       0.3333333333333333 [-]
	 SCS Opposite-Spin Scale   =       1.2000000000000000 [-]
	 SCS Same-Spin Energy      =      -0.1505546395954497 [Eh]
	 SCS Opposite-Spin Energy  =      -1.6847449324706671 [Eh]
	 SCS Correlation Energy    =      -1.8352995720661167 [Eh]
	 SCS Total Energy          =    -402.4728056448526559 [Eh]
	-----------------------------------------------------------

  Dipole Moment: [D]
     X:    -0.9508      Y:     1.7889      Z:    -0.0001     Total:     2.0259

*** Psi4 exiting successfully. Buy a developer a beer!
