                               Psi4 1.3.2 release

  ==> Input File <==

--------------------------------------------------------------------------
#psi4
#
memory 32 gb

molecule  {
0 1
  C       -2.6260010    -1.3181790     0.0001460
  C       -0.1785650    -0.3909870     0.0002200
  C       -1.5792093    -0.2229349    -0.0000335
  C        0.4037930     0.9065250    -0.0001510
  C       -1.8343220     1.1308500    -0.0000640
  C        2.0432510    -1.3188980     0.0000320
  C        2.5978260    -0.0201320    -0.0000760
  C        0.6688440    -1.5149670    -0.0002860
  C        1.7894520     1.1098640     0.0002960
  N       -0.6328400     1.8116850    -0.0001020
  H        2.7093930    -2.1785160    -0.0003580
  H        3.6789480     0.0978590     0.0002690
  H        0.2537760    -2.5213680    -0.0000660
  H        2.2194000     2.1097800     0.0002850
  H       -3.6376700    -0.9013790    -0.0001930
  H       -2.5281620    -1.9588410     0.8832840
  H       -2.7737480     1.6710560    -0.0003610
  H       -0.5326520     2.8176750    -0.0001200
  H       -2.5278290    -1.9594320    -0.8825300
units angstrom
no_reorient  #important for SAPT in psi4, default
symmetry c1  #important for SAPT in psi4, default
}

set PROPERTIES_ORIGIN ["COM"]
properties('MP2/aug-cc-pvtz', properties = ['dipole'])
--------------------------------------------------------------------------

    Molecular point group: c1
  Charge       = 0
  Multiplicity = 1
  Basis Set: AUG-CC-PVTZ
    Blend: AUG-CC-PVTZ
  Basis Set: (AUG-CC-PVTZ AUX)
    Blend: AUG-CC-PVTZ-JKFIT

    Orbital Energies [Eh]
    ---------------------

    Doubly Occupied:

       1A    -15.600413     2A    -11.264913     3A    -11.264051
       4A    -11.232033     5A    -11.230704     6A    -11.229384
       7A    -11.222133     8A    -11.221330     9A    -11.221210
      10A    -11.219986    11A     -1.292867    12A     -1.127476
      13A     -1.072412    14A     -0.997003    15A     -0.985180
      16A     -0.929741    17A     -0.839626    18A     -0.805613
      19A     -0.756066    20A     -0.719908    21A     -0.660461
      22A     -0.645251    23A     -0.603169    24A     -0.592979
      25A     -0.592020    26A     -0.569971    27A     -0.550357
      28A     -0.537064    29A     -0.530240    30A     -0.499422
      31A     -0.476417    32A     -0.463046    33A     -0.376691
      34A     -0.299382    35A     -0.276414

  @DF-RHF Final Energy:  -400.63925926914919

   => Energetics <=

    Nuclear Repulsion Energy =            483.5717316528604783
    One-Electron Energy =               -1500.6121206871271170
    Two-Electron Energy =                 616.4011297651173891
    Total Energy =                       -400.6392592691491927
  Basis Set: (AUG-CC-PVTZ AUX)
    Blend: AUG-CC-PVTZ-RI
    Molecular point group: c1

    Geometry (in Angstrom), charge = 0, multiplicity = 1:

       Center              X                  Y                   Z               Mass
    ------------   -----------------  -----------------  -----------------  -----------------
         C           -2.651910248302    -1.339980470001     0.000147637786    12.000000000000
         C           -0.204474248302    -0.412788470001     0.000221637786    12.000000000000
         C           -1.605118548302    -0.244736370001    -0.000031862214    12.000000000000
         C            0.377883751698     0.884723529999    -0.000149362214    12.000000000000
         C           -1.860231248302     1.109048529999    -0.000062362214    12.000000000000
         C            2.017341751698    -1.340699470001     0.000033637786    12.000000000000
         C            2.571916751698    -0.041933470001    -0.000074362214    12.000000000000
         C            0.642934751698    -1.536768470001    -0.000284362214    12.000000000000
         C            1.763542751698     1.088062529999     0.000297637786    12.000000000000
         N           -0.658749248302     1.789883529999    -0.000100362214    14.003074004430
         H            2.683483751698    -2.200317470001    -0.000356362214     1.007825032230
         H            3.653038751698     0.076057529999     0.000270637786     1.007825032230
         H            0.227866751698    -2.543169470001    -0.000064362214     1.007825032230
         H            2.193490751698     2.087978529999     0.000286637786     1.007825032230
         H           -3.663579248302    -0.923180470001    -0.000191362214     1.007825032230
         H           -2.554071248302    -1.980642470001     0.883285637786     1.007825032230
         H           -2.799657248302     1.649254529999    -0.000359362214     1.007825032230
         H           -0.558561248302     2.795873529999    -0.000118362214     1.007825032230
         H           -2.553738248302    -1.981233470001    -0.882528362214     1.007825032230

  Basis Set: AUG-CC-PVTZ
    Blend: AUG-CC-PVTZ
  Basis Set: (AUG-CC-PVTZ AUX)
    Blend: AUG-CC-PVTZ-JKFIT
	 Reference Energy          =    -400.6392592691491927 [Eh]
	 Singles Energy            =      -0.0000000000000000 [Eh]
	 Same-Spin Energy          =      -0.4518905967404354 [Eh]
	 Opposite-Spin Energy      =      -1.4043815495387819 [Eh]
	 Correlation Energy        =      -1.8562721462792173 [Eh]
	 Total Energy              =    -402.4955314154283883 [Eh]

	 ================> DF-SCS-MP2 Energies <==================
	-----------------------------------------------------------
	 SCS Same-Spin Scale       =       0.3333333333333333 [-]
	 SCS Opposite-Spin Scale   =       1.2000000000000000 [-]
	 SCS Same-Spin Energy      =      -0.1506301989134785 [Eh]
	 SCS Opposite-Spin Energy  =      -1.6852578594465382 [Eh]
	 SCS Correlation Energy    =      -1.8358880583600166 [Eh]
	 SCS Total Energy          =    -402.4751473275092053 [Eh]
	-----------------------------------------------------------

  Dipole Moment: [D]
     X:    -0.9545      Y:     1.8344      Z:    -0.0001     Total:     2.0678

*** Psi4 exiting successfully. Buy a developer a beer!
