                               Psi4 1.4a3.dev225

  ==> Input File <==

--------------------------------------------------------------------------
#psi4
#
memory 32 gb

molecule  {
0 1
  C       -2.6260070    -1.3181640     0.0000030
  C       -0.1785920    -0.3910100    -0.0000140
  C       -1.6165671    -0.2417686    -0.0000069
  C        0.4037990     0.9065080    -0.0000120
  C       -1.8343130     1.1308630     0.0000070
  C        2.0432640    -1.3188820     0.0000040
  C        2.5978420    -0.0201300     0.0000040
  C        0.6688530    -1.5149630     0.0000000
  C        1.7894440     1.1098670     0.0000020
  N       -0.6328500     1.8116730     0.0000060
  H        2.7093900    -2.1785170     0.0000140
  H        3.6789570     0.0979150     0.0000120
  H        0.2538510    -2.5213940    -0.0000090
  H        2.2194160     2.1097700    -0.0000210
  H       -3.6376970    -0.9014040    -0.0000240
  H       -2.5280300    -1.9591080     0.8829250
  H       -2.7737400     1.6710680     0.0000050
  H       -0.5326180     2.8176610     0.0000030
  H       -2.5279980    -1.9591520    -0.8828820
units angstrom
no_reorient  #important for SAPT in psi4, default
symmetry c1  #important for SAPT in psi4, default
}

set PROPERTIES_ORIGIN ["COM"]
properties('MP2/aug-cc-pvtz', properties = ['dipole'])
--------------------------------------------------------------------------

    Molecular point group: c1
  Charge       = 0
  Multiplicity = 1
  Basis Set: AUG-CC-PVTZ
    Blend: AUG-CC-PVTZ
  Basis Set: (AUG-CC-PVTZ AUX)
    Blend: AUG-CC-PVTZ-JKFIT

    Orbital Energies [Eh]
    ---------------------

    Doubly Occupied:

       1A    -15.600612     2A    -11.266344     3A    -11.265535
       4A    -11.231891     5A    -11.230239     6A    -11.229321
       7A    -11.224170     8A    -11.222945     9A    -11.220876
      10A    -11.220869    11A     -1.290751    12A     -1.126830
      13A     -1.072342    14A     -0.997853    15A     -0.986000
      16A     -0.931153    17A     -0.838546    18A     -0.802959
      19A     -0.755906    20A     -0.720300    21A     -0.659285
      22A     -0.644021    23A     -0.604250    24A     -0.592670
      25A     -0.592041    26A     -0.569507    27A     -0.552413
      28A     -0.547255    29A     -0.528919    30A     -0.495426
      31A     -0.475879    32A     -0.462952    33A     -0.372810
      34A     -0.298428    35A     -0.276710

  @DF-RHF Final Energy:  -400.63902252625905

   => Energetics <=

    Nuclear Repulsion Energy =            483.0053379148332624
    One-Electron Energy =               -1499.4727067468627411
    Two-Electron Energy =                 615.8283463057704239
    Total Energy =                       -400.6390225262590548
  Basis Set: (AUG-CC-PVTZ AUX)
    Blend: AUG-CC-PVTZ-RI
    Molecular point group: c1

    Geometry (in Angstrom), charge = 0, multiplicity = 1:

       Center              X                  Y                   Z               Mass
    ------------   -----------------  -----------------  -----------------  -----------------
         C           -2.648496685643    -1.338241159603     0.000003363167    12.000000000000
         C           -0.201081685643    -0.411087159603    -0.000013636833    12.000000000000
         C           -1.639056785643    -0.261845759603    -0.000006536833    12.000000000000
         C            0.381309314357     0.886430840397    -0.000011636833    12.000000000000
         C           -1.856802685643     1.110785840397     0.000007363167    12.000000000000
         C            2.020774314357    -1.338959159603     0.000004363167    12.000000000000
         C            2.575352314357    -0.040207159603     0.000004363167    12.000000000000
         C            0.646363314357    -1.535040159603     0.000000363167    12.000000000000
         C            1.766954314357     1.089789840397     0.000002363167    12.000000000000
         N           -0.655339685643     1.791595840397     0.000006363167    14.003074004430
         H            2.686900314357    -2.198594159603     0.000014363167     1.007825032230
         H            3.656467314357     0.077837840397     0.000012363167     1.007825032230
         H            0.231361314357    -2.541471159603    -0.000008636833     1.007825032230
         H            2.196926314357     2.089692840397    -0.000020636833     1.007825032230
         H           -3.660186685643    -0.921481159603    -0.000023636833     1.007825032230
         H           -2.550519685643    -1.979185159603     0.882925363167     1.007825032230
         H           -2.796229685643     1.650990840397     0.000005363167     1.007825032230
         H           -0.555107685643     2.797583840397     0.000003363167     1.007825032230
         H           -2.550487685643    -1.979229159603    -0.882881636833     1.007825032230

  Basis Set: AUG-CC-PVTZ
    Blend: AUG-CC-PVTZ
  Basis Set: (AUG-CC-PVTZ AUX)
    Blend: AUG-CC-PVTZ-JKFIT
	 Reference Energy          =    -400.6390225262590548 [Eh]
	 Singles Energy            =      -0.0000000000000000 [Eh]
	 Same-Spin Energy          =      -0.4518792743870587 [Eh]
	 Opposite-Spin Energy      =      -1.4044580248382708 [Eh]
	 Correlation Energy        =      -1.8563372992253293 [Eh]
	 Total Energy              =    -402.4953598254843996 [Eh]

	 ================> DF-SCS-MP2 Energies <==================
	-----------------------------------------------------------
	 SCS Same-Spin Scale       =       0.3333333333333333 [-]
	 SCS Opposite-Spin Scale   =       1.2000000000000000 [-]
	 SCS Same-Spin Energy      =      -0.1506264247956862 [Eh]
	 SCS Opposite-Spin Energy  =      -1.6853496298059250 [Eh]
	 SCS Correlation Energy    =      -1.8359760546016111 [Eh]
	 SCS Total Energy          =    -402.4749985808606425 [Eh]
	-----------------------------------------------------------

  Dipole Moment: [D]
     X:    -0.9643      Y:     1.7905      Z:    -0.0000     Total:     2.0336

*** Psi4 exiting successfully. Buy a developer a beer!
