                               Psi4 1.3.2 release

  ==> Input File <==

--------------------------------------------------------------------------
#psi4
#
memory 32 gb

molecule  {
0 1
  C       -2.6260010    -1.3181790     0.0001460
  C       -0.1785650    -0.3909870     0.0002200
  C       -1.6028750    -0.2271810    -0.0000330
  C        0.4037930     0.9065250    -0.0001510
  C       -1.8343220     1.1308500    -0.0000640
  C        2.0432510    -1.3188980     0.0000320
  C        2.5978260    -0.0201320    -0.0000760
  C        0.6688440    -1.5149670    -0.0002860
  C        1.7894520     1.1098640     0.0002960
  N       -0.6328400     1.8116850    -0.0001020
  H        2.7093930    -2.1785160    -0.0003580
  H        3.6789480     0.0978590     0.0002690
  H        0.1775212    -2.7062604    -0.0000256
  H        2.2194000     2.1097800     0.0002850
  H       -3.6376700    -0.9013790    -0.0001930
  H       -2.5281620    -1.9588410     0.8832840
  H       -2.7737480     1.6710560    -0.0003610
  H       -0.5326520     2.8176750    -0.0001200
  H       -2.5278290    -1.9594320    -0.8825300
units angstrom
no_reorient  #important for SAPT in psi4, default
symmetry c1  #important for SAPT in psi4, default
}

set PROPERTIES_ORIGIN ["COM"]
properties('MP2/aug-cc-pvtz', properties = ['dipole'])
--------------------------------------------------------------------------

    Molecular point group: c1
  Charge       = 0
  Multiplicity = 1
  Basis Set: AUG-CC-PVTZ
    Blend: AUG-CC-PVTZ
  Basis Set: (AUG-CC-PVTZ AUX)
    Blend: AUG-CC-PVTZ-JKFIT

    Orbital Energies [Eh]
    ---------------------

    Doubly Occupied:

       1A    -15.600903     2A    -11.267154     3A    -11.265173
       4A    -11.252337     5A    -11.233038     6A    -11.231138
       7A    -11.224820     8A    -11.223397     9A    -11.222896
      10A    -11.221133    11A     -1.292751    12A     -1.127599
      13A     -1.072543    14A     -0.994905    15A     -0.986518
      16A     -0.930297    17A     -0.835363    18A     -0.805234
      19A     -0.754070    20A     -0.711836    21A     -0.656838
      22A     -0.645517    23A     -0.601408    24A     -0.592625
      25A     -0.578637    26A     -0.566989    27A     -0.551419
      28A     -0.540895    29A     -0.529006    30A     -0.495971
      31A     -0.465240    32A     -0.464687    33A     -0.375639
      34A     -0.300054    35A     -0.278758

  @DF-RHF Final Energy:  -400.61795674562813

   => Energetics <=

    Nuclear Repulsion Energy =            482.3483779283060358
    One-Electron Energy =               -1498.1390958047722961
    Two-Electron Energy =                 615.1727611308381256
    Total Energy =                       -400.6179567456281347
  Basis Set: (AUG-CC-PVTZ AUX)
    Blend: AUG-CC-PVTZ-RI
    Molecular point group: c1

    Geometry (in Angstrom), charge = 0, multiplicity = 1:

       Center              X                  Y                   Z               Mass
    ------------   -----------------  -----------------  -----------------  -----------------
         C           -2.649157289861    -1.338170093454     0.000147281374    12.000000000000
         C           -0.201721289861    -0.410978093454     0.000221281374    12.000000000000
         C           -1.626031289861    -0.247172093454    -0.000031718626    12.000000000000
         C            0.380636710139     0.886533906546    -0.000149718626    12.000000000000
         C           -1.857478289861     1.110858906546    -0.000062718626    12.000000000000
         C            2.020094710139    -1.338889093454     0.000033281374    12.000000000000
         C            2.574669710139    -0.040123093454    -0.000074718626    12.000000000000
         C            0.645687710139    -1.534958093454    -0.000284718626    12.000000000000
         C            1.766295710139     1.089872906546     0.000297281374    12.000000000000
         N           -0.655996289861     1.791693906546    -0.000100718626    14.003074004430
         H            2.686236710139    -2.198507093454    -0.000356718626     1.007825032230
         H            3.655791710139     0.077867906546     0.000270281374     1.007825032230
         H            0.154364910139    -2.726251493454    -0.000024318626     1.007825032230
         H            2.196243710139     2.089788906546     0.000286281374     1.007825032230
         H           -3.660826289861    -0.921370093454    -0.000191718626     1.007825032230
         H           -2.551318289861    -1.978832093454     0.883285281374     1.007825032230
         H           -2.796904289861     1.651064906546    -0.000359718626     1.007825032230
         H           -0.555808289861     2.797683906546    -0.000118718626     1.007825032230
         H           -2.550985289861    -1.979423093454    -0.882528718626     1.007825032230

  Basis Set: AUG-CC-PVTZ
    Blend: AUG-CC-PVTZ
  Basis Set: (AUG-CC-PVTZ AUX)
    Blend: AUG-CC-PVTZ-JKFIT
	 Reference Energy          =    -400.6179567456281347 [Eh]
	 Singles Energy            =      -0.0000000000000000 [Eh]
	 Same-Spin Energy          =      -0.4522748977173001 [Eh]
	 Opposite-Spin Energy      =      -1.4063825763569582 [Eh]
	 Correlation Energy        =      -1.8586574740742583 [Eh]
	 Total Energy              =    -402.4766142197024124 [Eh]

	 ================> DF-SCS-MP2 Energies <==================
	-----------------------------------------------------------
	 SCS Same-Spin Scale       =       0.3333333333333333 [-]
	 SCS Opposite-Spin Scale   =       1.2000000000000000 [-]
	 SCS Same-Spin Energy      =      -0.1507582992391000 [Eh]
	 SCS Opposite-Spin Energy  =      -1.6876590916283498 [Eh]
	 SCS Correlation Energy    =      -1.8384173908674499 [Eh]
	 SCS Total Energy          =    -402.4563741364955831 [Eh]
	-----------------------------------------------------------

  Dipole Moment: [D]
     X:    -0.9303      Y:     1.9149      Z:    -0.0001     Total:     2.1290

*** Psi4 exiting successfully. Buy a developer a beer!
