                               Psi4 1.3.2 release

  ==> Input File <==

--------------------------------------------------------------------------
#psi4
#
memory 32 gb

molecule  {
0 1
  C       -2.6260010    -1.3181790     0.0001460
  C       -0.1785650    -0.3909870     0.0002200
  C       -1.6981702    -0.2400178    -0.0000310
  C        0.4037930     0.9065250    -0.0001510
  C       -1.8343220     1.1308500    -0.0000640
  C        2.0432510    -1.3188980     0.0000320
  C        2.5978260    -0.0201320    -0.0000760
  C        0.6688440    -1.5149670    -0.0002860
  C        1.7894520     1.1098640     0.0002960
  N       -0.6328400     1.8116850    -0.0001020
  H        2.7093930    -2.1785160    -0.0003580
  H        3.6789480     0.0978590     0.0002690
  H        0.2537760    -2.5213680    -0.0000660
  H        2.2194000     2.1097800     0.0002850
  H       -3.6376700    -0.9013790    -0.0001930
  H       -2.5281620    -1.9588410     0.8832840
  H       -2.7737480     1.6710560    -0.0003610
  H       -0.5326520     2.8176750    -0.0001200
  H       -2.5278290    -1.9594320    -0.8825300
units angstrom
no_reorient  #important for SAPT in psi4, default
symmetry c1  #important for SAPT in psi4, default
}

set PROPERTIES_ORIGIN ["COM"]
properties('MP2/aug-cc-pvtz', properties = ['dipole'])
--------------------------------------------------------------------------

    Molecular point group: c1
  Charge       = 0
  Multiplicity = 1
  Basis Set: AUG-CC-PVTZ
    Blend: AUG-CC-PVTZ
  Basis Set: (AUG-CC-PVTZ AUX)
    Blend: AUG-CC-PVTZ-JKFIT

    Orbital Energies [Eh]
    ---------------------

    Doubly Occupied:

       1A    -15.598577     2A    -11.267125     3A    -11.266701
       4A    -11.231298     5A    -11.230412     6A    -11.229627
       7A    -11.227839     8A    -11.227181     9A    -11.220144
      10A    -11.219560    11A     -1.287866    12A     -1.125504
      13A     -1.074658    14A     -1.000418    15A     -0.985506
      16A     -0.935422    17A     -0.836884    18A     -0.798689
      19A     -0.753836    20A     -0.720982    21A     -0.658049
      22A     -0.642453    23A     -0.605240    24A     -0.593185
      25A     -0.591952    26A     -0.572758    27A     -0.562698
      28A     -0.555094    29A     -0.526831    30A     -0.492957
      31A     -0.463169    32A     -0.462325    33A     -0.366934
      34A     -0.296370    35A     -0.282240

  @DF-RHF Final Energy:  -400.63009503830466

   => Energetics <=

    Nuclear Repulsion Energy =            482.1035123585821225
    One-Electron Energy =               -1497.6462500009565701
    Two-Electron Energy =                 614.9126426040699016
    Total Energy =                       -400.6300950383046029
  Basis Set: (AUG-CC-PVTZ AUX)
    Blend: AUG-CC-PVTZ-RI
    Molecular point group: c1

    Geometry (in Angstrom), charge = 0, multiplicity = 1:

       Center              X                  Y                   Z               Mass
    ------------   -----------------  -----------------  -----------------  -----------------
         C           -2.641019177203    -1.338416501685     0.000147408906    12.000000000000
         C           -0.193583177203    -0.411224501685     0.000221408906    12.000000000000
         C           -1.713188377203    -0.260255301685    -0.000029591094    12.000000000000
         C            0.388774822797     0.886287498315    -0.000149591094    12.000000000000
         C           -1.849340177203     1.110612498315    -0.000062591094    12.000000000000
         C            2.028232822797    -1.339135501685     0.000033408906    12.000000000000
         C            2.582807822797    -0.040369501685    -0.000074591094    12.000000000000
         C            0.653825822797    -1.535204501685    -0.000284591094    12.000000000000
         C            1.774433822797     1.089626498315     0.000297408906    12.000000000000
         N           -0.647858177203     1.791447498315    -0.000100591094    14.003074004430
         H            2.694374822797    -2.198753501685    -0.000356591094     1.007825032230
         H            3.663929822797     0.077621498315     0.000270408906     1.007825032230
         H            0.238757822797    -2.541605501685    -0.000064591094     1.007825032230
         H            2.204381822797     2.089542498315     0.000286408906     1.007825032230
         H           -3.652688177203    -0.921616501685    -0.000191591094     1.007825032230
         H           -2.543180177203    -1.979078501685     0.883285408906     1.007825032230
         H           -2.788766177203     1.650818498315    -0.000359591094     1.007825032230
         H           -0.547670177203     2.797437498315    -0.000118591094     1.007825032230
         H           -2.542847177203    -1.979669501685    -0.882528591094     1.007825032230

  Basis Set: AUG-CC-PVTZ
    Blend: AUG-CC-PVTZ
  Basis Set: (AUG-CC-PVTZ AUX)
    Blend: AUG-CC-PVTZ-JKFIT
	 Reference Energy          =    -400.6300950383046597 [Eh]
	 Singles Energy            =      -0.0000000000000000 [Eh]
	 Same-Spin Energy          =      -0.4514136650527154 [Eh]
	 Opposite-Spin Energy      =      -1.4040421248815651 [Eh]
	 Correlation Energy        =      -1.8554557899342805 [Eh]
	 Total Energy              =    -402.4855508282389565 [Eh]

	 ================> DF-SCS-MP2 Energies <==================
	-----------------------------------------------------------
	 SCS Same-Spin Scale       =       0.3333333333333333 [-]
	 SCS Opposite-Spin Scale   =       1.2000000000000000 [-]
	 SCS Same-Spin Energy      =      -0.1504712216842385 [Eh]
	 SCS Opposite-Spin Energy  =      -1.6848505498578781 [Eh]
	 SCS Correlation Energy    =      -1.8353217715421166 [Eh]
	 SCS Total Energy          =    -402.4654168098467721 [Eh]
	-----------------------------------------------------------

  Dipole Moment: [D]
     X:    -0.9656      Y:     1.6889      Z:    -0.0001     Total:     1.9455

*** Psi4 exiting successfully. Buy a developer a beer!
