                               Psi4 1.3.2 release

  ==> Input File <==

--------------------------------------------------------------------------
#psi4
#
memory 32 gb

molecule  {
0 1
  C       -2.6260010    -1.3181790     0.0001460
  C       -0.1785650    -0.3909870     0.0002200
  C       -1.6028750    -0.2271810    -0.0000330
  C        0.4037930     0.9065250    -0.0001510
  C       -1.8343220     1.1308500    -0.0000640
  C        2.0432510    -1.3188980     0.0000320
  C        2.5978260    -0.0201320    -0.0000760
  C        0.6688440    -1.5149670    -0.0002860
  C        1.7815115     1.1580989     0.0003114
  N       -0.6328400     1.8116850    -0.0001020
  H        2.7093930    -2.1785160    -0.0003580
  H        3.6789480     0.0978590     0.0002690
  H        0.2537760    -2.5213680    -0.0000660
  H        2.2194000     2.1097800     0.0002850
  H       -3.6376700    -0.9013790    -0.0001930
  H       -2.5281620    -1.9588410     0.8832840
  H       -2.7737480     1.6710560    -0.0003610
  H       -0.5326520     2.8176750    -0.0001200
  H       -2.5278290    -1.9594320    -0.8825300
units angstrom
no_reorient  #important for SAPT in psi4, default
symmetry c1  #important for SAPT in psi4, default
}

set PROPERTIES_ORIGIN ["COM"]
properties('MP2/aug-cc-pvtz', properties = ['dipole'])
--------------------------------------------------------------------------

    Molecular point group: c1
  Charge       = 0
  Multiplicity = 1
  Basis Set: AUG-CC-PVTZ
    Blend: AUG-CC-PVTZ
  Basis Set: (AUG-CC-PVTZ AUX)
    Blend: AUG-CC-PVTZ-JKFIT

    Orbital Energies [Eh]
    ---------------------

    Doubly Occupied:

       1A    -15.597990     2A    -11.266601     3A    -11.264781
       4A    -11.234693     5A    -11.232228     6A    -11.231497
       7A    -11.223547     8A    -11.222308     9A    -11.221662
      10A    -11.221539    11A     -1.291510    12A     -1.123132
      13A     -1.071473    14A     -0.997655    15A     -0.983270
      16A     -0.930356    17A     -0.841056    18A     -0.801881
      19A     -0.758034    20A     -0.719584    21A     -0.662465
      22A     -0.641600    23A     -0.609112    24A     -0.595198
      25A     -0.591649    26A     -0.567333    27A     -0.551146
      28A     -0.542698    29A     -0.525858    30A     -0.495761
      31A     -0.481776    32A     -0.460016    33A     -0.373029
      34A     -0.299992    35A     -0.274609

  @DF-RHF Final Energy:  -400.63634273866882

   => Energetics <=

    Nuclear Repulsion Energy =            482.6555339175208132
    One-Electron Energy =               -1498.7696823655378466
    Two-Electron Energy =                 615.4778057093481038
    Total Energy =                       -400.6363427386688727
  Basis Set: (AUG-CC-PVTZ AUX)
    Blend: AUG-CC-PVTZ-RI
    Molecular point group: c1

    Geometry (in Angstrom), charge = 0, multiplicity = 1:

       Center              X                  Y                   Z               Mass
    ------------   -----------------  -----------------  -----------------  -----------------
         C           -2.649016647368    -1.344007718856     0.000146182114    12.000000000000
         C           -0.201580647368    -0.416815718856     0.000220182114    12.000000000000
         C           -1.625890647368    -0.253009718856    -0.000032817886    12.000000000000
         C            0.380777352632     0.880696281144    -0.000150817886    12.000000000000
         C           -1.857337647368     1.105021281144    -0.000063817886    12.000000000000
         C            2.020235352632    -1.344726718856     0.000032182114    12.000000000000
         C            2.574810352632    -0.045960718856    -0.000075817886    12.000000000000
         C            0.645828352632    -1.540795718856    -0.000285817886    12.000000000000
         C            1.758495852632     1.132270181144     0.000311582114    12.000000000000
         N           -0.655855647368     1.785856281144    -0.000101817886    14.003074004430
         H            2.686377352632    -2.204344718856    -0.000357817886     1.007825032230
         H            3.655932352632     0.072030281144     0.000269182114     1.007825032230
         H            0.230760352632    -2.547196718856    -0.000065817886     1.007825032230
         H            2.196384352632     2.083951281144     0.000285182114     1.007825032230
         H           -3.660685647368    -0.927207718856    -0.000192817886     1.007825032230
         H           -2.551177647368    -1.984669718856     0.883284182114     1.007825032230
         H           -2.796763647368     1.645227281144    -0.000360817886     1.007825032230
         H           -0.555667647368     2.791846281144    -0.000119817886     1.007825032230
         H           -2.550844647368    -1.985260718856    -0.882529817886     1.007825032230

  Basis Set: AUG-CC-PVTZ
    Blend: AUG-CC-PVTZ
  Basis Set: (AUG-CC-PVTZ AUX)
    Blend: AUG-CC-PVTZ-JKFIT
	 Reference Energy          =    -400.6363427386688159 [Eh]
	 Singles Energy            =      -0.0000000000000000 [Eh]
	 Same-Spin Energy          =      -0.4518034594414422 [Eh]
	 Opposite-Spin Energy      =      -1.4046222007621563 [Eh]
	 Correlation Energy        =      -1.8564256602035984 [Eh]
	 Total Energy              =    -402.4927683988724425 [Eh]

	 ================> DF-SCS-MP2 Energies <==================
	-----------------------------------------------------------
	 SCS Same-Spin Scale       =       0.3333333333333333 [-]
	 SCS Opposite-Spin Scale   =       1.2000000000000000 [-]
	 SCS Same-Spin Energy      =      -0.1506011531471474 [Eh]
	 SCS Opposite-Spin Energy  =      -1.6855466409145874 [Eh]
	 SCS Correlation Energy    =      -1.8361477940617348 [Eh]
	 SCS Total Energy          =    -402.4724905327305464 [Eh]
	-----------------------------------------------------------

  Dipole Moment: [D]
     X:    -0.9709      Y:     1.8080      Z:    -0.0001     Total:     2.0521

*** Psi4 exiting successfully. Buy a developer a beer!
