                               Psi4 1.3.2 release

  ==> Input File <==

--------------------------------------------------------------------------
#psi4
#
memory 32 gb

molecule  {
0 1
  C       -2.6260010    -1.3181790     0.0001460
  C       -0.1785650    -0.3909870     0.0002200
  C       -1.6028750    -0.2271810    -0.0000330
  C        0.4037930     0.9065250    -0.0001510
  C       -1.8343220     1.1308500    -0.0000640
  C        2.0432510    -1.3188980     0.0000320
  C        2.5978260    -0.0201320    -0.0000760
  C        0.6688440    -1.5149670    -0.0002860
  C        1.7894520     1.1098640     0.0002960
  N       -0.6328400     1.8116850    -0.0001020
  H        2.7093930    -2.1785160    -0.0003580
  H        3.6789480     0.0978590     0.0002690
  H        0.2919034    -2.4289218    -0.0000862
  H        2.2194000     2.1097800     0.0002850
  H       -3.6376700    -0.9013790    -0.0001930
  H       -2.5281620    -1.9588410     0.8832840
  H       -2.7737480     1.6710560    -0.0003610
  H       -0.5326520     2.8176750    -0.0001200
  H       -2.5278290    -1.9594320    -0.8825300
units angstrom
no_reorient  #important for SAPT in psi4, default
symmetry c1  #important for SAPT in psi4, default
}

set PROPERTIES_ORIGIN ["COM"]
properties('MP2/aug-cc-pvtz', properties = ['dipole'])
--------------------------------------------------------------------------

    Molecular point group: c1
  Charge       = 0
  Multiplicity = 1
  Basis Set: AUG-CC-PVTZ
    Blend: AUG-CC-PVTZ
  Basis Set: (AUG-CC-PVTZ AUX)
    Blend: AUG-CC-PVTZ-JKFIT

    Orbital Energies [Eh]
    ---------------------

    Doubly Occupied:

       1A    -15.599627     2A    -11.264597     3A    -11.264378
       4A    -11.231557     5A    -11.228851     6A    -11.222420
       7A    -11.221601     8A    -11.221049     9A    -11.220520
      10A    -11.218188    11A     -1.291331    12A     -1.127448
      13A     -1.072143    14A     -1.000440    15A     -0.985439
      16A     -0.931609    17A     -0.842983    18A     -0.803520
      19A     -0.758344    20A     -0.726439    21A     -0.662790
      22A     -0.644359    23A     -0.609108    24A     -0.596559
      25A     -0.591724    26A     -0.569933    27A     -0.551363
      28A     -0.542713    29A     -0.529916    30A     -0.498659
      31A     -0.478296    32A     -0.462532    33A     -0.374225
      34A     -0.298158    35A     -0.277451

  @DF-RHF Final Energy:  -400.63449436052514

   => Energetics <=

    Nuclear Repulsion Energy =            483.7950306195548364
    One-Electron Energy =               -1501.0185104901831892
    Two-Electron Energy =                 616.5889855101032708
    Total Energy =                       -400.6344943605250819
  Basis Set: (AUG-CC-PVTZ AUX)
    Blend: AUG-CC-PVTZ-RI
    Molecular point group: c1

    Geometry (in Angstrom), charge = 0, multiplicity = 1:

       Center              X                  Y                   Z               Mass
    ------------   -----------------  -----------------  -----------------  -----------------
         C           -2.650036775379    -1.340302551846     0.000147747328    12.000000000000
         C           -0.202600775379    -0.413110551846     0.000221747328    12.000000000000
         C           -1.626910775379    -0.249304551846    -0.000031252672    12.000000000000
         C            0.379757224621     0.884401448154    -0.000149252672    12.000000000000
         C           -1.858357775379     1.108726448154    -0.000062252672    12.000000000000
         C            2.019215224621    -1.341021551846     0.000033747328    12.000000000000
         C            2.573790224621    -0.042255551846    -0.000074252672    12.000000000000
         C            0.644808224621    -1.537090551846    -0.000284252672    12.000000000000
         C            1.765416224621     1.087740448154     0.000297747328    12.000000000000
         N           -0.656875775379     1.789561448154    -0.000100252672    14.003074004430
         H            2.685357224621    -2.200639551846    -0.000356252672     1.007825032230
         H            3.654912224621     0.075735448154     0.000270747328     1.007825032230
         H            0.267867624621    -2.451045351846    -0.000084452672     1.007825032230
         H            2.195364224621     2.087656448154     0.000286747328     1.007825032230
         H           -3.661705775379    -0.923502551846    -0.000191252672     1.007825032230
         H           -2.552197775379    -1.980964551846     0.883285747328     1.007825032230
         H           -2.797783775379     1.648932448154    -0.000359252672     1.007825032230
         H           -0.556687775379     2.795551448154    -0.000118252672     1.007825032230
         H           -2.551864775379    -1.981555551846    -0.882528252672     1.007825032230

  Basis Set: AUG-CC-PVTZ
    Blend: AUG-CC-PVTZ
  Basis Set: (AUG-CC-PVTZ AUX)
    Blend: AUG-CC-PVTZ-JKFIT
	 Reference Energy          =    -400.6344943605251387 [Eh]
	 Singles Energy            =      -0.0000000000000000 [Eh]
	 Same-Spin Energy          =      -0.4515044910080201 [Eh]
	 Opposite-Spin Energy      =      -1.4036018748569015 [Eh]
	 Correlation Energy        =      -1.8551063658649216 [Eh]
	 Total Energy              =    -402.4896007263900515 [Eh]

	 ================> DF-SCS-MP2 Energies <==================
	-----------------------------------------------------------
	 SCS Same-Spin Scale       =       0.3333333333333333 [-]
	 SCS Opposite-Spin Scale   =       1.2000000000000000 [-]
	 SCS Same-Spin Energy      =      -0.1505014970026734 [Eh]
	 SCS Opposite-Spin Energy  =      -1.6843222498282817 [Eh]
	 SCS Correlation Energy    =      -1.8348237468309552 [Eh]
	 SCS Total Energy          =    -402.4693181073561163 [Eh]
	-----------------------------------------------------------

  Dipole Moment: [D]
     X:    -0.9639      Y:     1.7733      Z:    -0.0001     Total:     2.0183

*** Psi4 exiting successfully. Buy a developer a beer!
