                               Psi4 1.4a3.dev225

  ==> Input File <==

--------------------------------------------------------------------------
#psi4
#
memory 32 gb

molecule  {
0 1
  C       -2.6260070    -1.3181640     0.0000030
  C       -0.1785920    -0.3910100    -0.0000140
  C       -1.5892049    -0.2125914    -0.0000071
  C        0.4037990     0.9065080    -0.0000120
  C       -1.8343130     1.1308630     0.0000070
  C        2.0432640    -1.3188820     0.0000040
  C        2.5978420    -0.0201300     0.0000040
  C        0.6688530    -1.5149630     0.0000000
  C        1.7894440     1.1098670     0.0000020
  N       -0.6328500     1.8116730     0.0000060
  H        2.7093900    -2.1785170     0.0000140
  H        3.6789570     0.0979150     0.0000120
  H        0.2538510    -2.5213940    -0.0000090
  H        2.2194160     2.1097700    -0.0000210
  H       -3.6376970    -0.9014040    -0.0000240
  H       -2.5280300    -1.9591080     0.8829250
  H       -2.7737400     1.6710680     0.0000050
  H       -0.5326180     2.8176610     0.0000030
  H       -2.5279980    -1.9591520    -0.8828820
units angstrom
no_reorient  #important for SAPT in psi4, default
symmetry c1  #important for SAPT in psi4, default
}

set PROPERTIES_ORIGIN ["COM"]
properties('MP2/aug-cc-pvtz', properties = ['dipole'])
--------------------------------------------------------------------------

    Molecular point group: c1
  Charge       = 0
  Multiplicity = 1
  Basis Set: AUG-CC-PVTZ
    Blend: AUG-CC-PVTZ
  Basis Set: (AUG-CC-PVTZ AUX)
    Blend: AUG-CC-PVTZ-JKFIT

    Orbital Energies [Eh]
    ---------------------

    Doubly Occupied:

       1A    -15.599278     2A    -11.265037     3A    -11.262755
       4A    -11.231836     5A    -11.231068     6A    -11.229594
       7A    -11.222215     8A    -11.221324     9A    -11.221241
      10A    -11.220233    11A     -1.292714    12A     -1.127178
      13A     -1.072155    14A     -0.996952    15A     -0.985421
      16A     -0.930530    17A     -0.839484    18A     -0.804929
      19A     -0.755652    20A     -0.719814    21A     -0.660677
      22A     -0.645287    23A     -0.602842    24A     -0.592749
      25A     -0.591991    26A     -0.570155    27A     -0.550338
      28A     -0.537366    29A     -0.530426    30A     -0.499888
      31A     -0.475001    32A     -0.463176    33A     -0.376272
      34A     -0.298869    35A     -0.278691

  @DF-RHF Final Energy:  -400.64017327510606

   => Energetics <=

    Nuclear Repulsion Energy =            483.5183024417398201
    One-Electron Energy =               -1500.5106723151952792
    Two-Electron Energy =                 616.3521965983494511
    Total Energy =                       -400.6401732751060081
  Basis Set: (AUG-CC-PVTZ AUX)
    Blend: AUG-CC-PVTZ-RI
    Molecular point group: c1

    Geometry (in Angstrom), charge = 0, multiplicity = 1:

       Center              X                  Y                   Z               Mass
    ------------   -----------------  -----------------  -----------------  -----------------
         C           -2.651001741217    -1.340912381489     0.000003381477    12.000000000000
         C           -0.203586741217    -0.413758381489    -0.000013618523    12.000000000000
         C           -1.614199641217    -0.235339781489    -0.000006718523    12.000000000000
         C            0.378804258783     0.883759618511    -0.000011618523    12.000000000000
         C           -1.859307741217     1.108114618511     0.000007381477    12.000000000000
         C            2.018269258783    -1.341630381489     0.000004381477    12.000000000000
         C            2.572847258783    -0.042878381489     0.000004381477    12.000000000000
         C            0.643858258783    -1.537711381489     0.000000381477    12.000000000000
         C            1.764449258783     1.087118618511     0.000002381477    12.000000000000
         N           -0.657844741217     1.788924618511     0.000006381477    14.003074004430
         H            2.684395258783    -2.201265381489     0.000014381477     1.007825032230
         H            3.653962258783     0.075166618511     0.000012381477     1.007825032230
         H            0.228856258783    -2.544142381489    -0.000008618523     1.007825032230
         H            2.194421258783     2.087021618511    -0.000020618523     1.007825032230
         H           -3.662691741217    -0.924152381489    -0.000023618523     1.007825032230
         H           -2.553024741217    -1.981856381489     0.882925381477     1.007825032230
         H           -2.798734741217     1.648319618511     0.000005381477     1.007825032230
         H           -0.557612741217     2.794912618511     0.000003381477     1.007825032230
         H           -2.552992741217    -1.981900381489    -0.882881618523     1.007825032230

  Basis Set: AUG-CC-PVTZ
    Blend: AUG-CC-PVTZ
  Basis Set: (AUG-CC-PVTZ AUX)
    Blend: AUG-CC-PVTZ-JKFIT
	 Reference Energy          =    -400.6401732751060649 [Eh]
	 Singles Energy            =      -0.0000000000000000 [Eh]
	 Same-Spin Energy          =      -0.4515451526807344 [Eh]
	 Opposite-Spin Energy      =      -1.4038683916438601 [Eh]
	 Correlation Energy        =      -1.8554135443245945 [Eh]
	 Total Energy              =    -402.4955868194306845 [Eh]

	 ================> DF-SCS-MP2 Energies <==================
	-----------------------------------------------------------
	 SCS Same-Spin Scale       =       0.3333333333333333 [-]
	 SCS Opposite-Spin Scale   =       1.2000000000000000 [-]
	 SCS Same-Spin Energy      =      -0.1505150508935781 [Eh]
	 SCS Opposite-Spin Energy  =      -1.6846420699726321 [Eh]
	 SCS Correlation Energy    =      -1.8351571208662103 [Eh]
	 SCS Total Energy          =    -402.4753303959722643 [Eh]
	-----------------------------------------------------------

  Dipole Moment: [D]
     X:    -0.9499      Y:     1.8191      Z:    -0.0000     Total:     2.0522

*** Psi4 exiting successfully. Buy a developer a beer!
