                               Psi4 1.3.2 release

  ==> Input File <==

--------------------------------------------------------------------------
#psi4
#
memory 32 gb

molecule  {
0 1
  C       -2.6260010    -1.3181790     0.0001460
  C       -0.0564349    -0.3085659     0.0002849
  C       -1.6028750    -0.2271810    -0.0000330
  C        0.4037930     0.9065250    -0.0001510
  C       -1.8343220     1.1308500    -0.0000640
  C        2.0432510    -1.3188980     0.0000320
  C        2.5978260    -0.0201320    -0.0000760
  C        0.6688440    -1.5149670    -0.0002860
  C        1.7894520     1.1098640     0.0002960
  N       -0.6328400     1.8116850    -0.0001020
  H        2.7093930    -2.1785160    -0.0003580
  H        3.6789480     0.0978590     0.0002690
  H        0.2537760    -2.5213680    -0.0000660
  H        2.2194000     2.1097800     0.0002850
  H       -3.6376700    -0.9013790    -0.0001930
  H       -2.5281620    -1.9588410     0.8832840
  H       -2.7737480     1.6710560    -0.0003610
  H       -0.5326520     2.8176750    -0.0001200
  H       -2.5278290    -1.9594320    -0.8825300
units angstrom
no_reorient  #important for SAPT in psi4, default
symmetry c1  #important for SAPT in psi4, default
}

set PROPERTIES_ORIGIN ["COM"]
properties('MP2/aug-cc-pvtz', properties = ['dipole'])
--------------------------------------------------------------------------

    Molecular point group: c1
  Charge       = 0
  Multiplicity = 1
  Basis Set: AUG-CC-PVTZ
    Blend: AUG-CC-PVTZ
  Basis Set: (AUG-CC-PVTZ AUX)
    Blend: AUG-CC-PVTZ-JKFIT

    Orbital Energies [Eh]
    ---------------------

    Doubly Occupied:

       1A    -15.590425     2A    -11.260195     3A    -11.251653
       4A    -11.233763     5A    -11.232780     6A    -11.229942
       7A    -11.224669     8A    -11.222618     9A    -11.222037
      10A    -11.216404    11A     -1.290725    12A     -1.137227
      13A     -1.057059    14A     -1.004945    15A     -0.992582
      16A     -0.926329    17A     -0.842523    18A     -0.793349
      19A     -0.760976    20A     -0.718384    21A     -0.649631
      22A     -0.644397    23A     -0.611494    24A     -0.601242
      25A     -0.591800    26A     -0.566164    27A     -0.552664
      28A     -0.539975    29A     -0.528634    30A     -0.503916
      31A     -0.466877    32A     -0.458280    33A     -0.359926
      34A     -0.311178    35A     -0.280877

  @DF-RHF Final Energy:  -400.61973345354272

   => Energetics <=

    Nuclear Repulsion Energy =            484.2554526257389966
    One-Electron Energy =               -1501.9990920476773226
    Two-Electron Energy =                 617.1239059683955475
    Total Energy =                       -400.6197334535427217
  Basis Set: (AUG-CC-PVTZ AUX)
    Blend: AUG-CC-PVTZ-RI
    Molecular point group: c1

    Geometry (in Angstrom), charge = 0, multiplicity = 1:

       Center              X                  Y                   Z               Mass
    ------------   -----------------  -----------------  -----------------  -----------------
         C           -2.660924830246    -1.347137523143     0.000141650305    12.000000000000
         C           -0.091358730246    -0.337524423143     0.000280550305    12.000000000000
         C           -1.637798830246    -0.256139523143    -0.000037349695    12.000000000000
         C            0.368869169754     0.877566476857    -0.000155349695    12.000000000000
         C           -1.869245830246     1.101891476857    -0.000068349695    12.000000000000
         C            2.008327169754    -1.347856523143     0.000027650305    12.000000000000
         C            2.562902169754    -0.049090523143    -0.000080349695    12.000000000000
         C            0.633920169754    -1.543925523143    -0.000290349695    12.000000000000
         C            1.754528169754     1.080905476857     0.000291650305    12.000000000000
         N           -0.667763830246     1.782726476857    -0.000106349695    14.003074004430
         H            2.674469169754    -2.207474523143    -0.000362349695     1.007825032230
         H            3.644024169754     0.068900476857     0.000264650305     1.007825032230
         H            0.218852169754    -2.550326523143    -0.000070349695     1.007825032230
         H            2.184476169754     2.080821476857     0.000280650305     1.007825032230
         H           -3.672593830246    -0.930337523143    -0.000197349695     1.007825032230
         H           -2.563085830246    -1.987799523143     0.883279650305     1.007825032230
         H           -2.808671830246     1.642097476857    -0.000365349695     1.007825032230
         H           -0.567575830246     2.788716476857    -0.000124349695     1.007825032230
         H           -2.562752830246    -1.988390523143    -0.882534349695     1.007825032230

  Basis Set: AUG-CC-PVTZ
    Blend: AUG-CC-PVTZ
  Basis Set: (AUG-CC-PVTZ AUX)
    Blend: AUG-CC-PVTZ-JKFIT
	 Reference Energy          =    -400.6197334535427217 [Eh]
	 Singles Energy            =      -0.0000000000000000 [Eh]
	 Same-Spin Energy          =      -0.4498792218044103 [Eh]
	 Opposite-Spin Energy      =      -1.4029459742241215 [Eh]
	 Correlation Energy        =      -1.8528251960285318 [Eh]
	 Total Energy              =    -402.4725586495712264 [Eh]

	 ================> DF-SCS-MP2 Energies <==================
	-----------------------------------------------------------
	 SCS Same-Spin Scale       =       0.3333333333333333 [-]
	 SCS Opposite-Spin Scale   =       1.2000000000000000 [-]
	 SCS Same-Spin Energy      =      -0.1499597406014701 [Eh]
	 SCS Opposite-Spin Energy  =      -1.6835351690689457 [Eh]
	 SCS Correlation Energy    =      -1.8334949096704158 [Eh]
	 SCS Total Energy          =    -402.4532283632131566 [Eh]
	-----------------------------------------------------------

  Dipole Moment: [D]
     X:    -0.7440      Y:     1.5320      Z:    -0.0001     Total:     1.7031

*** Psi4 exiting successfully. Buy a developer a beer!
