                               Psi4 1.3.2 release

  ==> Input File <==

--------------------------------------------------------------------------
#psi4
#
memory 32 gb

molecule  {
0 1
  C       -2.6260010    -1.3181790     0.0001460
  C       -0.1388224    -0.3620976     0.0002423
  C       -1.6028750    -0.2271810    -0.0000330
  C        0.4037930     0.9065250    -0.0001510
  C       -1.8343220     1.1308500    -0.0000640
  C        2.0432510    -1.3188980     0.0000320
  C        2.5978260    -0.0201320    -0.0000760
  C        0.6688440    -1.5149670    -0.0002860
  C        1.7894520     1.1098640     0.0002960
  N       -0.6328400     1.8116850    -0.0001020
  H        2.7093930    -2.1785160    -0.0003580
  H        3.6789480     0.0978590     0.0002690
  H        0.2537760    -2.5213680    -0.0000660
  H        2.2194000     2.1097800     0.0002850
  H       -3.6376700    -0.9013790    -0.0001930
  H       -2.5281620    -1.9588410     0.8832840
  H       -2.7737480     1.6710560    -0.0003610
  H       -0.5326520     2.8176750    -0.0001200
  H       -2.5278290    -1.9594320    -0.8825300
units angstrom
no_reorient  #important for SAPT in psi4, default
symmetry c1  #important for SAPT in psi4, default
}

set PROPERTIES_ORIGIN ["COM"]
properties('MP2/aug-cc-pvtz', properties = ['dipole'])
--------------------------------------------------------------------------

    Molecular point group: c1
  Charge       = 0
  Multiplicity = 1
  Basis Set: AUG-CC-PVTZ
    Blend: AUG-CC-PVTZ
  Basis Set: (AUG-CC-PVTZ AUX)
    Blend: AUG-CC-PVTZ-JKFIT

    Orbital Energies [Eh]
    ---------------------

    Doubly Occupied:

       1A    -15.596634     2A    -11.263037     3A    -11.261005
       4A    -11.232395     5A    -11.231115     6A    -11.229616
       7A    -11.223415     8A    -11.221795     9A    -11.221409
      10A    -11.220045    11A     -1.291306    12A     -1.129909
      13A     -1.066868    14A     -0.998466    15A     -0.988873
      16A     -0.929504    17A     -0.839873    18A     -0.800129
      19A     -0.757279    20A     -0.719884    21A     -0.656257
      22A     -0.644111    23A     -0.604034    24A     -0.597579
      25A     -0.591668    26A     -0.568311    27A     -0.551778
      28A     -0.541897    29A     -0.529401    30A     -0.496935
      31A     -0.475442    32A     -0.464174    33A     -0.369371
      34A     -0.301892    35A     -0.279406

  @DF-RHF Final Energy:  -400.63928462931244

   => Energetics <=

    Nuclear Repulsion Energy =            483.5772830364817310
    One-Electron Energy =               -1500.6435117204196104
    Two-Electron Energy =                 616.4269440546254373
    Total Energy =                       -400.6392846293124421
  Basis Set: (AUG-CC-PVTZ AUX)
    Blend: AUG-CC-PVTZ-RI
    Molecular point group: c1

    Geometry (in Angstrom), charge = 0, multiplicity = 1:

       Center              X                  Y                   Z               Mass
    ------------   -----------------  -----------------  -----------------  -----------------
         C           -2.653382115621    -1.342236605693     0.000145550407    12.000000000000
         C           -0.166203515621    -0.386155205693     0.000241850407    12.000000000000
         C           -1.630256115621    -0.251238605693    -0.000033449593    12.000000000000
         C            0.376411884379     0.882467394307    -0.000151449593    12.000000000000
         C           -1.861703115621     1.106792394307    -0.000064449593    12.000000000000
         C            2.015869884379    -1.342955605693     0.000031550407    12.000000000000
         C            2.570444884379    -0.044189605693    -0.000076449593    12.000000000000
         C            0.641462884379    -1.539024605693    -0.000286449593    12.000000000000
         C            1.762070884379     1.085806394307     0.000295550407    12.000000000000
         N           -0.660221115621     1.787627394307    -0.000102449593    14.003074004430
         H            2.682011884379    -2.202573605693    -0.000358449593     1.007825032230
         H            3.651566884379     0.073801394307     0.000268550407     1.007825032230
         H            0.226394884379    -2.545425605693    -0.000066449593     1.007825032230
         H            2.192018884379     2.085722394307     0.000284550407     1.007825032230
         H           -3.665051115621    -0.925436605693    -0.000193449593     1.007825032230
         H           -2.555543115621    -1.982898605693     0.883283550407     1.007825032230
         H           -2.801129115621     1.646998394307    -0.000361449593     1.007825032230
         H           -0.560033115621     2.793617394307    -0.000120449593     1.007825032230
         H           -2.555210115621    -1.983489605693    -0.882530449593     1.007825032230

  Basis Set: AUG-CC-PVTZ
    Blend: AUG-CC-PVTZ
  Basis Set: (AUG-CC-PVTZ AUX)
    Blend: AUG-CC-PVTZ-JKFIT
	 Reference Energy          =    -400.6392846293124421 [Eh]
	 Singles Energy            =      -0.0000000000000000 [Eh]
	 Same-Spin Energy          =      -0.4509011736038427 [Eh]
	 Opposite-Spin Energy      =      -1.4033767908385277 [Eh]
	 Correlation Energy        =      -1.8542779644423704 [Eh]
	 Total Energy              =    -402.4935625937548025 [Eh]

	 ================> DF-SCS-MP2 Energies <==================
	-----------------------------------------------------------
	 SCS Same-Spin Scale       =       0.3333333333333333 [-]
	 SCS Opposite-Spin Scale   =       1.2000000000000000 [-]
	 SCS Same-Spin Energy      =      -0.1503003912012809 [Eh]
	 SCS Opposite-Spin Energy  =      -1.6840521490062332 [Eh]
	 SCS Correlation Energy    =      -1.8343525402075140 [Eh]
	 SCS Total Energy          =    -402.4736371695199750 [Eh]
	-----------------------------------------------------------

  Dipole Moment: [D]
     X:    -0.8899      Y:     1.7134      Z:    -0.0001     Total:     1.9307

*** Psi4 exiting successfully. Buy a developer a beer!
