                               Psi4 1.3.2 release

  ==> Input File <==

--------------------------------------------------------------------------
#psi4
#
memory 32 gb

molecule  {
0 1
  C       -2.6260010    -1.3181790     0.0001460
  C       -0.1785650    -0.3909870     0.0002200
  C       -1.6504106    -0.2344311    -0.0000320
  C        0.4037930     0.9065250    -0.0001510
  C       -1.8343220     1.1308500    -0.0000640
  C        2.0432510    -1.3188980     0.0000320
  C        2.5978260    -0.0201320    -0.0000760
  C        0.6688440    -1.5149670    -0.0002860
  C        1.7894520     1.1098640     0.0002960
  N       -0.6328400     1.8116850    -0.0001020
  H        2.7093930    -2.1785160    -0.0003580
  H        3.6789480     0.0978590     0.0002690
  H        0.2537760    -2.5213680    -0.0000660
  H        2.2194000     2.1097800     0.0002850
  H       -3.6376700    -0.9013790    -0.0001930
  H       -2.5281620    -1.9588410     0.8832840
  H       -2.7737480     1.6710560    -0.0003610
  H       -0.5326520     2.8176750    -0.0001200
  H       -2.5278290    -1.9594320    -0.8825300
units angstrom
no_reorient  #important for SAPT in psi4, default
symmetry c1  #important for SAPT in psi4, default
}

set PROPERTIES_ORIGIN ["COM"]
properties('MP2/aug-cc-pvtz', properties = ['dipole'])
--------------------------------------------------------------------------

    Molecular point group: c1
  Charge       = 0
  Multiplicity = 1
  Basis Set: AUG-CC-PVTZ
    Blend: AUG-CC-PVTZ
  Basis Set: (AUG-CC-PVTZ AUX)
    Blend: AUG-CC-PVTZ-JKFIT

    Orbital Energies [Eh]
    ---------------------

    Doubly Occupied:

       1A    -15.599156     2A    -11.266009     3A    -11.265700
       4A    -11.231554     5A    -11.230526     6A    -11.229567
       7A    -11.225415     8A    -11.224576     9A    -11.220580
      10A    -11.220540    11A     -1.289598    12A     -1.126180
      13A     -1.072629    14A     -0.998622    15A     -0.985976
      16A     -0.933242    17A     -0.837860    18A     -0.801010
      19A     -0.754992    20A     -0.720457    21A     -0.658969
      22A     -0.643450    23A     -0.604287    24A     -0.592259
      25A     -0.592244    26A     -0.570091    27A     -0.553426
      28A     -0.553318    29A     -0.528179    30A     -0.494686
      31A     -0.471087    32A     -0.463105    33A     -0.370542
      34A     -0.297337    35A     -0.280171

  @DF-RHF Final Energy:  -400.63779106943679

   => Energetics <=

    Nuclear Repulsion Energy =            482.6616795681352983
    One-Electron Energy =               -1498.7842661789898102
    Two-Electron Energy =                 615.4847955414177250
    Total Energy =                       -400.6377910694368438
  Basis Set: (AUG-CC-PVTZ AUX)
    Blend: AUG-CC-PVTZ-RI
    Molecular point group: c1

    Geometry (in Angstrom), charge = 0, multiplicity = 1:

       Center              X                  Y                   Z               Mass
    ------------   -----------------  -----------------  -----------------  -----------------
         C           -2.645391649161    -1.338927973495     0.000147500458    12.000000000000
         C           -0.197955649161    -0.411735973495     0.000221500458    12.000000000000
         C           -1.669801249161    -0.255180073495    -0.000030499542    12.000000000000
         C            0.384402350839     0.885776026505    -0.000149499542    12.000000000000
         C           -1.853712649161     1.110101026505    -0.000062499542    12.000000000000
         C            2.023860350839    -1.339646973495     0.000033500458    12.000000000000
         C            2.578435350839    -0.040880973495    -0.000074499542    12.000000000000
         C            0.649453350839    -1.535715973495    -0.000284499542    12.000000000000
         C            1.770061350839     1.089115026505     0.000297500458    12.000000000000
         N           -0.652230649161     1.790936026505    -0.000100499542    14.003074004430
         H            2.690002350839    -2.199264973495    -0.000356499542     1.007825032230
         H            3.659557350839     0.077110026505     0.000270500458     1.007825032230
         H            0.234385350839    -2.542116973495    -0.000064499542     1.007825032230
         H            2.200009350839     2.089031026505     0.000286500458     1.007825032230
         H           -3.657060649161    -0.922127973495    -0.000191499542     1.007825032230
         H           -2.547552649161    -1.979589973495     0.883285500458     1.007825032230
         H           -2.793138649161     1.650307026505    -0.000359499542     1.007825032230
         H           -0.552042649161     2.796926026505    -0.000118499542     1.007825032230
         H           -2.547219649161    -1.980180973495    -0.882528499542     1.007825032230

  Basis Set: AUG-CC-PVTZ
    Blend: AUG-CC-PVTZ
  Basis Set: (AUG-CC-PVTZ AUX)
    Blend: AUG-CC-PVTZ-JKFIT
	 Reference Energy          =    -400.6377910694367870 [Eh]
	 Singles Energy            =      -0.0000000000000000 [Eh]
	 Same-Spin Energy          =      -0.4514429040830429 [Eh]
	 Opposite-Spin Energy      =      -1.4038967862602150 [Eh]
	 Correlation Energy        =      -1.8553396903432580 [Eh]
	 Total Energy              =    -402.4931307597800583 [Eh]

	 ================> DF-SCS-MP2 Energies <==================
	-----------------------------------------------------------
	 SCS Same-Spin Scale       =       0.3333333333333333 [-]
	 SCS Opposite-Spin Scale   =       1.2000000000000000 [-]
	 SCS Same-Spin Energy      =      -0.1504809680276810 [Eh]
	 SCS Opposite-Spin Energy  =      -1.6846761435122579 [Eh]
	 SCS Correlation Energy    =      -1.8351571115399388 [Eh]
	 SCS Total Energy          =    -402.4729481809767435 [Eh]
	-----------------------------------------------------------

  Dipole Moment: [D]
     X:    -0.9618      Y:     1.7464      Z:    -0.0001     Total:     1.9938

*** Psi4 exiting successfully. Buy a developer a beer!
