                               Psi4 1.3.2 release

  ==> Input File <==

--------------------------------------------------------------------------
#psi4
#
memory 32 gb

molecule  {
0 1
  C       -2.6260010    -1.3181790     0.0001460
  C       -0.2234928    -0.3698726     0.0001927
  C       -1.6028750    -0.2271810    -0.0000330
  C        0.4037930     0.9065250    -0.0001510
  C       -1.8343220     1.1308500    -0.0000640
  C        2.0432510    -1.3188980     0.0000320
  C        2.5978260    -0.0201320    -0.0000760
  C        0.6688440    -1.5149670    -0.0002860
  C        1.7894520     1.1098640     0.0002960
  N       -0.6328400     1.8116850    -0.0001020
  H        2.7093930    -2.1785160    -0.0003580
  H        3.6789480     0.0978590     0.0002690
  H        0.2537760    -2.5213680    -0.0000660
  H        2.2194000     2.1097800     0.0002850
  H       -3.6376700    -0.9013790    -0.0001930
  H       -2.5281620    -1.9588410     0.8832840
  H       -2.7737480     1.6710560    -0.0003610
  H       -0.5326520     2.8176750    -0.0001200
  H       -2.5278290    -1.9594320    -0.8825300
units angstrom
no_reorient  #important for SAPT in psi4, default
symmetry c1  #important for SAPT in psi4, default
}

set PROPERTIES_ORIGIN ["COM"]
properties('MP2/aug-cc-pvtz', properties = ['dipole'])
--------------------------------------------------------------------------

    Molecular point group: c1
  Charge       = 0
  Multiplicity = 1
  Basis Set: AUG-CC-PVTZ
    Blend: AUG-CC-PVTZ
  Basis Set: (AUG-CC-PVTZ AUX)
    Blend: AUG-CC-PVTZ-JKFIT

    Orbital Energies [Eh]
    ---------------------

    Doubly Occupied:

       1A    -15.601824     2A    -11.264482     3A    -11.263543
       4A    -11.233992     5A    -11.232752     6A    -11.229294
       7A    -11.222398     8A    -11.221667     9A    -11.221512
      10A    -11.218461    11A     -1.294441    12A     -1.122856
      13A     -1.078136    14A     -0.995387    15A     -0.983802
      16A     -0.932820    17A     -0.837714    18A     -0.804897
      19A     -0.757697    20A     -0.719568    21A     -0.661787
      22A     -0.644513    23A     -0.604271    24A     -0.593890
      25A     -0.587341    26A     -0.568545    27A     -0.551805
      28A     -0.544641    29A     -0.529451    30A     -0.496663
      31A     -0.478346    32A     -0.460225    33A     -0.376247
      34A     -0.301150    35A     -0.273694

  @DF-RHF Final Energy:  -400.63534996399289

   => Energetics <=

    Nuclear Repulsion Energy =            483.3791989078918050
    One-Electron Energy =               -1500.2094798034838732
    Two-Electron Energy =                 616.1949309315991741
    Total Energy =                       -400.6353499639928941
  Basis Set: (AUG-CC-PVTZ AUX)
    Blend: AUG-CC-PVTZ-RI
    Molecular point group: c1

    Geometry (in Angstrom), charge = 0, multiplicity = 1:

       Center              X                  Y                   Z               Mass
    ------------   -----------------  -----------------  -----------------  -----------------
         C           -2.645630397650    -1.341524791325     0.000150091371    12.000000000000
         C           -0.243122197650    -0.393218391325     0.000196791371    12.000000000000
         C           -1.622504397650    -0.250526791325    -0.000028908629    12.000000000000
         C            0.384163602350     0.883179208675    -0.000146908629    12.000000000000
         C           -1.853951397650     1.107504208675    -0.000059908629    12.000000000000
         C            2.023621602350    -1.342243791325     0.000036091371    12.000000000000
         C            2.578196602350    -0.043477791325    -0.000071908629    12.000000000000
         C            0.649214602350    -1.538312791325    -0.000281908629    12.000000000000
         C            1.769822602350     1.086518208675     0.000300091371    12.000000000000
         N           -0.652469397650     1.788339208675    -0.000097908629    14.003074004430
         H            2.689763602350    -2.201861791325    -0.000353908629     1.007825032230
         H            3.659318602350     0.074513208675     0.000273091371     1.007825032230
         H            0.234146602350    -2.544713791325    -0.000061908629     1.007825032230
         H            2.199770602350     2.086434208675     0.000289091371     1.007825032230
         H           -3.657299397650    -0.924724791325    -0.000188908629     1.007825032230
         H           -2.547791397650    -1.982186791325     0.883288091371     1.007825032230
         H           -2.793377397650     1.647710208675    -0.000356908629     1.007825032230
         H           -0.552281397650     2.794329208675    -0.000115908629     1.007825032230
         H           -2.547458397650    -1.982777791325    -0.882525908629     1.007825032230

  Basis Set: AUG-CC-PVTZ
    Blend: AUG-CC-PVTZ
  Basis Set: (AUG-CC-PVTZ AUX)
    Blend: AUG-CC-PVTZ-JKFIT
	 Reference Energy          =    -400.6353499639928941 [Eh]
	 Singles Energy            =      -0.0000000000000000 [Eh]
	 Same-Spin Energy          =      -0.4523524036509760 [Eh]
	 Opposite-Spin Energy      =      -1.4051401047637513 [Eh]
	 Correlation Energy        =      -1.8574925084147274 [Eh]
	 Total Energy              =    -402.4928424724076308 [Eh]

	 ================> DF-SCS-MP2 Energies <==================
	-----------------------------------------------------------
	 SCS Same-Spin Scale       =       0.3333333333333333 [-]
	 SCS Opposite-Spin Scale   =       1.2000000000000000 [-]
	 SCS Same-Spin Energy      =      -0.1507841345503253 [Eh]
	 SCS Opposite-Spin Energy  =      -1.6861681257165015 [Eh]
	 SCS Correlation Energy    =      -1.8369522602668269 [Eh]
	 SCS Total Energy          =    -402.4723022242596926 [Eh]
	-----------------------------------------------------------

  Dipole Moment: [D]
     X:    -1.0057      Y:     1.8358      Z:    -0.0001     Total:     2.0932

*** Psi4 exiting successfully. Buy a developer a beer!
