                               Psi4 1.3.2 release

  ==> Input File <==

--------------------------------------------------------------------------
#psi4
#
memory 32 gb

molecule  {
0 1
  C       -2.6260010    -1.3181790     0.0001460
  C       -0.1785650    -0.3909870     0.0002200
  C       -1.6028750    -0.2271810    -0.0000330
  C        0.4037930     0.9065250    -0.0001510
  C       -1.8343220     1.1308500    -0.0000640
  C        2.0432510    -1.3188980     0.0000320
  C        2.5978260    -0.0201320    -0.0000760
  C        0.6688440    -1.5149670    -0.0002860
  C        1.7894520     1.1098640     0.0002960
  N       -0.6328400     1.8116850    -0.0001020
  H        2.7706466    -2.2575603    -0.0003939
  H        3.6789480     0.0978590     0.0002690
  H        0.2537760    -2.5213680    -0.0000660
  H        2.2194000     2.1097800     0.0002850
  H       -3.6376700    -0.9013790    -0.0001930
  H       -2.5281620    -1.9588410     0.8832840
  H       -2.7737480     1.6710560    -0.0003610
  H       -0.5326520     2.8176750    -0.0001200
  H       -2.5278290    -1.9594320    -0.8825300
units angstrom
no_reorient  #important for SAPT in psi4, default
symmetry c1  #important for SAPT in psi4, default
}

set PROPERTIES_ORIGIN ["COM"]
properties('MP2/aug-cc-pvtz', properties = ['dipole'])
--------------------------------------------------------------------------

    Molecular point group: c1
  Charge       = 0
  Multiplicity = 1
  Basis Set: AUG-CC-PVTZ
    Blend: AUG-CC-PVTZ
  Basis Set: (AUG-CC-PVTZ AUX)
    Blend: AUG-CC-PVTZ-JKFIT

    Orbital Energies [Eh]
    ---------------------

    Doubly Occupied:

       1A    -15.600368     2A    -11.265791     3A    -11.264995
       4A    -11.233113     5A    -11.232648     6A    -11.231432
       7A    -11.230392     8A    -11.223337     9A    -11.222426
      10A    -11.221710    11A     -1.292143    12A     -1.127149
      13A     -1.072599    14A     -0.996299    15A     -0.985099
      16A     -0.931331    17A     -0.837375    18A     -0.802067
      19A     -0.754590    20A     -0.720450    21A     -0.658596
      22A     -0.636257    23A     -0.604007    24A     -0.592389
      25A     -0.591428    26A     -0.569995    27A     -0.551729
      28A     -0.541742    29A     -0.528224    30A     -0.489272
      31A     -0.476275    32A     -0.463881    33A     -0.375148
      34A     -0.299253    35A     -0.278288

  @DF-RHF Final Energy:  -400.63283677532775

   => Energetics <=

    Nuclear Repulsion Energy =            482.7720686215795354
    One-Electron Energy =               -1499.0062092890975691
    Two-Electron Energy =                 615.6013038921902307
    Total Energy =                       -400.6328367753277462
  Basis Set: (AUG-CC-PVTZ AUX)
    Blend: AUG-CC-PVTZ-RI
    Molecular point group: c1

    Geometry (in Angstrom), charge = 0, multiplicity = 1:

       Center              X                  Y                   Z               Mass
    ------------   -----------------  -----------------  -----------------  -----------------
         C           -2.650214592889    -1.338983960219     0.000147868045    12.000000000000
         C           -0.202778592889    -0.411791960219     0.000221868045    12.000000000000
         C           -1.627088592889    -0.247985960219    -0.000031131955    12.000000000000
         C            0.379579407111     0.885720039781    -0.000149131955    12.000000000000
         C           -1.858535592889     1.110045039781    -0.000062131955    12.000000000000
         C            2.019037407111    -1.339702960219     0.000033868045    12.000000000000
         C            2.573612407111    -0.040936960219    -0.000074131955    12.000000000000
         C            0.644630407111    -1.535771960219    -0.000284131955    12.000000000000
         C            1.765238407111     1.089059039781     0.000297868045    12.000000000000
         N           -0.657053592889     1.790880039781    -0.000100131955    14.003074004430
         H            2.746433007111    -2.278365260219    -0.000392031955     1.007825032230
         H            3.654734407111     0.077054039781     0.000270868045     1.007825032230
         H            0.229562407111    -2.542172960219    -0.000064131955     1.007825032230
         H            2.195186407111     2.088975039781     0.000286868045     1.007825032230
         H           -3.661883592889    -0.922183960219    -0.000191131955     1.007825032230
         H           -2.552375592889    -1.979645960219     0.883285868045     1.007825032230
         H           -2.797961592889     1.650251039781    -0.000359131955     1.007825032230
         H           -0.556865592889     2.796870039781    -0.000118131955     1.007825032230
         H           -2.552042592889    -1.980236960219    -0.882528131955     1.007825032230

  Basis Set: AUG-CC-PVTZ
    Blend: AUG-CC-PVTZ
  Basis Set: (AUG-CC-PVTZ AUX)
    Blend: AUG-CC-PVTZ-JKFIT
	 Reference Energy          =    -400.6328367753277462 [Eh]
	 Singles Energy            =      -0.0000000000000000 [Eh]
	 Same-Spin Energy          =      -0.4518905205543058 [Eh]
	 Opposite-Spin Energy      =      -1.4050801391429752 [Eh]
	 Correlation Energy        =      -1.8569706596972810 [Eh]
	 Total Energy              =    -402.4898074350249999 [Eh]

	 ================> DF-SCS-MP2 Energies <==================
	-----------------------------------------------------------
	 SCS Same-Spin Scale       =       0.3333333333333333 [-]
	 SCS Opposite-Spin Scale   =       1.2000000000000000 [-]
	 SCS Same-Spin Energy      =      -0.1506301735181019 [Eh]
	 SCS Opposite-Spin Energy  =      -1.6860961669715702 [Eh]
	 SCS Correlation Energy    =      -1.8367263404896721 [Eh]
	 SCS Total Energy          =    -402.4695631158174365 [Eh]
	-----------------------------------------------------------

  Dipole Moment: [D]
     X:    -0.9985      Y:     1.8512      Z:    -0.0001     Total:     2.1033

*** Psi4 exiting successfully. Buy a developer a beer!
