                               Psi4 1.3.2 release

  ==> Input File <==

--------------------------------------------------------------------------
#psi4
#
memory 32 gb

molecule  {
0 1
  C       -2.6260010    -1.3181790     0.0001460
  C       -0.1785650    -0.3909870     0.0002200
  C       -1.6028750    -0.2271810    -0.0000330
  C        0.4037930     0.9065250    -0.0001510
  C       -1.8343220     1.1308500    -0.0000640
  C        2.0432510    -1.3188980     0.0000320
  C        2.5978260    -0.0201320    -0.0000760
  C        0.6688440    -1.5149670    -0.0002860
  C        1.7894520     1.1098640     0.0002960
  N       -0.6328400     1.8116850    -0.0001020
  H        2.7093930    -2.1785160    -0.0003580
  H        3.6789480     0.0978590     0.0002690
  H        0.2537760    -2.5213680    -0.0000660
  H        2.2194000     2.1097800     0.0002850
  H       -3.6376700    -0.9013790    -0.0001930
  H       -2.5281620    -1.9588410     0.8832840
  H       -2.7737480     1.6710560    -0.0003610
  H       -0.5227419     2.9171827    -0.0001218
  H       -2.5278290    -1.9594320    -0.8825300
units angstrom
no_reorient  #important for SAPT in psi4, default
symmetry c1  #important for SAPT in psi4, default
}

set PROPERTIES_ORIGIN ["COM"]
properties('MP2/aug-cc-pvtz', properties = ['dipole'])
--------------------------------------------------------------------------

    Molecular point group: c1
  Charge       = 0
  Multiplicity = 1
  Basis Set: AUG-CC-PVTZ
    Blend: AUG-CC-PVTZ
  Basis Set: (AUG-CC-PVTZ AUX)
    Blend: AUG-CC-PVTZ-JKFIT

    Orbital Energies [Eh]
    ---------------------

    Doubly Occupied:

       1A    -15.608275     2A    -11.265031     3A    -11.264345
       4A    -11.231375     5A    -11.230294     6A    -11.229001
       7A    -11.222223     8A    -11.221423     9A    -11.220925
      10A    -11.220568    11A     -1.285806    12A     -1.124940
      13A     -1.068792    14A     -0.995620    15A     -0.984566
      16A     -0.925973    17A     -0.837345    18A     -0.797736
      19A     -0.753437    20A     -0.706570    21A     -0.659224
      22A     -0.643912    23A     -0.601328    24A     -0.591108
      25A     -0.588528    26A     -0.568975    27A     -0.550657
      28A     -0.540944    29A     -0.529030    30A     -0.497134
      31A     -0.474899    32A     -0.462263    33A     -0.373934
      34A     -0.297803    35A     -0.277026

  @DF-RHF Final Energy:  -400.62914617613944

   => Energetics <=

    Nuclear Repulsion Energy =            482.6719630924587818
    One-Electron Energy =               -1498.9001999009815336
    Two-Electron Energy =                 615.5990906323833087
    Total Energy =                       -400.6291461761394430
  Basis Set: (AUG-CC-PVTZ AUX)
    Blend: AUG-CC-PVTZ-RI
    Molecular point group: c1

    Geometry (in Angstrom), charge = 0, multiplicity = 1:

       Center              X                  Y                   Z               Mass
    ------------   -----------------  -----------------  -----------------  -----------------
         C           -2.649819812367    -1.340356847768     0.000147605850    12.000000000000
         C           -0.202383812367    -0.413164847768     0.000221605850    12.000000000000
         C           -1.626693812367    -0.249358847768    -0.000031394150    12.000000000000
         C            0.379974187633     0.884347152232    -0.000149394150    12.000000000000
         C           -1.858140812367     1.108672152232    -0.000062394150    12.000000000000
         C            2.019432187633    -1.341075847768     0.000033605850    12.000000000000
         C            2.574007187633    -0.042309847768    -0.000074394150    12.000000000000
         C            0.645025187633    -1.537144847768    -0.000284394150    12.000000000000
         C            1.765633187633     1.087686152232     0.000297605850    12.000000000000
         N           -0.656658812367     1.789507152232    -0.000100394150    14.003074004430
         H            2.685574187633    -2.200693847768    -0.000356394150     1.007825032230
         H            3.655129187633     0.075681152232     0.000270605850     1.007825032230
         H            0.229957187633    -2.543545847768    -0.000064394150     1.007825032230
         H            2.195581187633     2.087602152232     0.000286605850     1.007825032230
         H           -3.661488812367    -0.923556847768    -0.000191394150     1.007825032230
         H           -2.551980812367    -1.981018847768     0.883285605850     1.007825032230
         H           -2.797566812367     1.648878152232    -0.000359394150     1.007825032230
         H           -0.546560712367     2.895004852232    -0.000120194150     1.007825032230
         H           -2.551647812367    -1.981609847768    -0.882528394150     1.007825032230

  Basis Set: AUG-CC-PVTZ
    Blend: AUG-CC-PVTZ
  Basis Set: (AUG-CC-PVTZ AUX)
    Blend: AUG-CC-PVTZ-JKFIT
	 Reference Energy          =    -400.6291461761394430 [Eh]
	 Singles Energy            =      -0.0000000000000000 [Eh]
	 Same-Spin Energy          =      -0.4525729820284551 [Eh]
	 Opposite-Spin Energy      =      -1.4062562129246032 [Eh]
	 Correlation Energy        =      -1.8588291949530584 [Eh]
	 Total Energy              =    -402.4879753710924888 [Eh]

	 ================> DF-SCS-MP2 Energies <==================
	-----------------------------------------------------------
	 SCS Same-Spin Scale       =       0.3333333333333333 [-]
	 SCS Opposite-Spin Scale   =       1.2000000000000000 [-]
	 SCS Same-Spin Energy      =      -0.1508576606761517 [Eh]
	 SCS Opposite-Spin Energy  =      -1.6875074555095237 [Eh]
	 SCS Correlation Energy    =      -1.8383651161856753 [Eh]
	 SCS Total Energy          =    -402.4675112923251277 [Eh]
	-----------------------------------------------------------

  Dipole Moment: [D]
     X:    -0.9600      Y:     1.9252      Z:    -0.0001     Total:     2.1513

*** Psi4 exiting successfully. Buy a developer a beer!
