                               Psi4 1.3.2 release

  ==> Input File <==

--------------------------------------------------------------------------
#psi4
#
memory 32 gb

molecule  {
0 1
  C       -2.6260010    -1.3181790     0.0001460
  C       -0.1785650    -0.3909870     0.0002200
  C       -1.6028750    -0.2271810    -0.0000330
  C        0.3581557     0.9260586    -0.0001233
  C       -1.8343220     1.1308500    -0.0000640
  C        2.0432510    -1.3188980     0.0000320
  C        2.5978260    -0.0201320    -0.0000760
  C        0.6688440    -1.5149670    -0.0002860
  C        1.7894520     1.1098640     0.0002960
  N       -0.6328400     1.8116850    -0.0001020
  H        2.7093930    -2.1785160    -0.0003580
  H        3.6789480     0.0978590     0.0002690
  H        0.2537760    -2.5213680    -0.0000660
  H        2.2194000     2.1097800     0.0002850
  H       -3.6376700    -0.9013790    -0.0001930
  H       -2.5281620    -1.9588410     0.8832840
  H       -2.7737480     1.6710560    -0.0003610
  H       -0.5326520     2.8176750    -0.0001200
  H       -2.5278290    -1.9594320    -0.8825300
units angstrom
no_reorient  #important for SAPT in psi4, default
symmetry c1  #important for SAPT in psi4, default
}

set PROPERTIES_ORIGIN ["COM"]
properties('MP2/aug-cc-pvtz', properties = ['dipole'])
--------------------------------------------------------------------------

    Molecular point group: c1
  Charge       = 0
  Multiplicity = 1
  Basis Set: AUG-CC-PVTZ
    Blend: AUG-CC-PVTZ
  Basis Set: (AUG-CC-PVTZ AUX)
    Blend: AUG-CC-PVTZ-JKFIT

    Orbital Energies [Eh]
    ---------------------

    Doubly Occupied:

       1A    -15.603851     2A    -11.266092     3A    -11.261704
       4A    -11.234266     5A    -11.231177     6A    -11.229693
       7A    -11.223764     8A    -11.221590     9A    -11.219465
      10A    -11.219130    11A     -1.307165    12A     -1.123554
      13A     -1.072978    14A     -0.992453    15A     -0.985732
      16A     -0.934029    17A     -0.842186    18A     -0.801336
      19A     -0.755611    20A     -0.724835    21A     -0.665414
      22A     -0.643844    23A     -0.598752    24A     -0.597236
      25A     -0.593486    26A     -0.568800    27A     -0.554215
      28A     -0.542590    29A     -0.530418    30A     -0.498399
      31A     -0.470745    32A     -0.461631    33A     -0.373965
      34A     -0.292739    35A     -0.280944

  @DF-RHF Final Energy:  -400.63689168902215

   => Energetics <=

    Nuclear Repulsion Energy =            483.4143729248207819
    One-Electron Energy =               -1500.2549487921414766
    Two-Electron Energy =                 616.2036841782985448
    Total Energy =                       -400.6368916890221499
  Basis Set: (AUG-CC-PVTZ AUX)
    Blend: AUG-CC-PVTZ-RI
    Molecular point group: c1

    Geometry (in Angstrom), charge = 0, multiplicity = 1:

       Center              X                  Y                   Z               Mass
    ------------   -----------------  -----------------  -----------------  -----------------
         C           -2.645565441728    -1.341380066418     0.000145056028    12.000000000000
         C           -0.198129441728    -0.414188066418     0.000219056028    12.000000000000
         C           -1.622439441728    -0.250382066418    -0.000033943972    12.000000000000
         C            0.338591258272     0.902857533582    -0.000124243972    12.000000000000
         C           -1.853886441728     1.107648933582    -0.000064943972    12.000000000000
         C            2.023686558272    -1.342099066418     0.000031056028    12.000000000000
         C            2.578261558272    -0.043333066418    -0.000076943972    12.000000000000
         C            0.649279558272    -1.538168066418    -0.000286943972    12.000000000000
         C            1.769887558272     1.086662933582     0.000295056028    12.000000000000
         N           -0.652404441728     1.788483933582    -0.000102943972    14.003074004430
         H            2.689828558272    -2.201717066418    -0.000358943972     1.007825032230
         H            3.659383558272     0.074657933582     0.000268056028     1.007825032230
         H            0.234211558272    -2.544569066418    -0.000066943972     1.007825032230
         H            2.199835558272     2.086578933582     0.000284056028     1.007825032230
         H           -3.657234441728    -0.924580066418    -0.000193943972     1.007825032230
         H           -2.547726441728    -1.982042066418     0.883283056028     1.007825032230
         H           -2.793312441728     1.647854933582    -0.000361943972     1.007825032230
         H           -0.552216441728     2.794473933582    -0.000120943972     1.007825032230
         H           -2.547393441728    -1.982633066418    -0.882530943972     1.007825032230

  Basis Set: AUG-CC-PVTZ
    Blend: AUG-CC-PVTZ
  Basis Set: (AUG-CC-PVTZ AUX)
    Blend: AUG-CC-PVTZ-JKFIT
	 Reference Energy          =    -400.6368916890221499 [Eh]
	 Singles Energy            =      -0.0000000000000000 [Eh]
	 Same-Spin Energy          =      -0.4516664655196688 [Eh]
	 Opposite-Spin Energy      =      -1.4041004886410808 [Eh]
	 Correlation Energy        =      -1.8557669541607495 [Eh]
	 Total Energy              =    -402.4926586431828923 [Eh]

	 ================> DF-SCS-MP2 Energies <==================
	-----------------------------------------------------------
	 SCS Same-Spin Scale       =       0.3333333333333333 [-]
	 SCS Opposite-Spin Scale   =       1.2000000000000000 [-]
	 SCS Same-Spin Energy      =      -0.1505554885065563 [Eh]
	 SCS Opposite-Spin Energy  =      -1.6849205863692969 [Eh]
	 SCS Correlation Energy    =      -1.8354760748758532 [Eh]
	 SCS Total Energy          =    -402.4723677638979780 [Eh]
	-----------------------------------------------------------

  Dipole Moment: [D]
     X:    -1.0400      Y:     1.8991      Z:    -0.0001     Total:     2.1652

*** Psi4 exiting successfully. Buy a developer a beer!
