                               Psi4 1.3.2 release

  ==> Input File <==

--------------------------------------------------------------------------
#psi4
#
memory 32 gb

molecule  {
0 1
  C       -2.6260010    -1.3181790     0.0001460
  C       -0.1785650    -0.3909870     0.0002200
  C       -1.6028750    -0.2271810    -0.0000330
  C        0.4037930     0.9065250    -0.0001510
  C       -1.8343220     1.1308500    -0.0000640
  C        2.0206689    -1.3090215     0.0000409
  C        2.5978260    -0.0201320    -0.0000760
  C        0.6688440    -1.5149670    -0.0002860
  C        1.7894520     1.1098640     0.0002960
  N       -0.6328400     1.8116850    -0.0001020
  H        2.7093930    -2.1785160    -0.0003580
  H        3.6789480     0.0978590     0.0002690
  H        0.2537760    -2.5213680    -0.0000660
  H        2.2194000     2.1097800     0.0002850
  H       -3.6376700    -0.9013790    -0.0001930
  H       -2.5281620    -1.9588410     0.8832840
  H       -2.7737480     1.6710560    -0.0003610
  H       -0.5326520     2.8176750    -0.0001200
  H       -2.5278290    -1.9594320    -0.8825300
units angstrom
no_reorient  #important for SAPT in psi4, default
symmetry c1  #important for SAPT in psi4, default
}

set PROPERTIES_ORIGIN ["COM"]
properties('MP2/aug-cc-pvtz', properties = ['dipole'])
--------------------------------------------------------------------------

    Molecular point group: c1
  Charge       = 0
  Multiplicity = 1
  Basis Set: AUG-CC-PVTZ
    Blend: AUG-CC-PVTZ
  Basis Set: (AUG-CC-PVTZ AUX)
    Blend: AUG-CC-PVTZ-JKFIT

    Orbital Energies [Eh]
    ---------------------

    Doubly Occupied:

       1A    -15.599955     2A    -11.264498     3A    -11.264174
       4A    -11.232226     5A    -11.229326     6A    -11.227989
       7A    -11.222367     8A    -11.221524     9A    -11.221107
      10A    -11.220640    11A     -1.291426    12A     -1.129261
      13A     -1.071977    14A     -0.999627    15A     -0.985062
      16A     -0.931048    17A     -0.837888    18A     -0.804245
      19A     -0.755572    20A     -0.720334    21A     -0.659145
      22A     -0.643013    23A     -0.604782    24A     -0.592599
      25A     -0.591913    26A     -0.570040    27A     -0.551339
      28A     -0.541997    29A     -0.530736    30A     -0.492961
      31A     -0.476496    32A     -0.464897    33A     -0.374691
      34A     -0.299431    35A     -0.277983

  @DF-RHF Final Energy:  -400.63952255281293

   => Energetics <=

    Nuclear Repulsion Energy =            483.7059340462820956
    One-Electron Energy =               -1500.8863786913909735
    Two-Electron Energy =                 616.5409220922958866
    Total Energy =                       -400.6395225528129913
  Basis Set: (AUG-CC-PVTZ AUX)
    Blend: AUG-CC-PVTZ-RI
    Molecular point group: c1

    Geometry (in Angstrom), charge = 0, multiplicity = 1:

       Center              X                  Y                   Z               Mass
    ------------   -----------------  -----------------  -----------------  -----------------
         C           -2.647676184186    -1.340495942620     0.000146777200    12.000000000000
         C           -0.200240184186    -0.413303942620     0.000220777200    12.000000000000
         C           -1.624550184186    -0.249497942620    -0.000032222800    12.000000000000
         C            0.382117815814     0.884208057380    -0.000150222800    12.000000000000
         C           -1.855997184186     1.108533057380    -0.000063222800    12.000000000000
         C            1.998993715814    -1.331338442620     0.000041677200    12.000000000000
         C            2.576150815814    -0.042448942620    -0.000075222800    12.000000000000
         C            0.647168815814    -1.537283942620    -0.000285222800    12.000000000000
         C            1.767776815814     1.087547057380     0.000296777200    12.000000000000
         N           -0.654515184186     1.789368057380    -0.000101222800    14.003074004430
         H            2.687717815814    -2.200832942620    -0.000357222800     1.007825032230
         H            3.657272815814     0.075542057380     0.000269777200     1.007825032230
         H            0.232100815814    -2.543684942620    -0.000065222800     1.007825032230
         H            2.197724815814     2.087463057380     0.000285777200     1.007825032230
         H           -3.659345184186    -0.923695942620    -0.000192222800     1.007825032230
         H           -2.549837184186    -1.981157942620     0.883284777200     1.007825032230
         H           -2.795423184186     1.648739057380    -0.000360222800     1.007825032230
         H           -0.554327184186     2.795358057380    -0.000119222800     1.007825032230
         H           -2.549504184186    -1.981748942620    -0.882529222800     1.007825032230

  Basis Set: AUG-CC-PVTZ
    Blend: AUG-CC-PVTZ
  Basis Set: (AUG-CC-PVTZ AUX)
    Blend: AUG-CC-PVTZ-JKFIT
	 Reference Energy          =    -400.6395225528129345 [Eh]
	 Singles Energy            =      -0.0000000000000000 [Eh]
	 Same-Spin Energy          =      -0.4517200925573264 [Eh]
	 Opposite-Spin Energy      =      -1.4040904045568434 [Eh]
	 Correlation Energy        =      -1.8558104971141698 [Eh]
	 Total Energy              =    -402.4953330499271260 [Eh]

	 ================> DF-SCS-MP2 Energies <==================
	-----------------------------------------------------------
	 SCS Same-Spin Scale       =       0.3333333333333333 [-]
	 SCS Opposite-Spin Scale   =       1.2000000000000000 [-]
	 SCS Same-Spin Energy      =      -0.1505733641857754 [Eh]
	 SCS Opposite-Spin Energy  =      -1.6849084854682121 [Eh]
	 SCS Correlation Energy    =      -1.8354818496539875 [Eh]
	 SCS Total Energy          =    -402.4750044024669364 [Eh]
	-----------------------------------------------------------

  Dipole Moment: [D]
     X:    -0.9491      Y:     1.8073      Z:    -0.0001     Total:     2.0413

*** Psi4 exiting successfully. Buy a developer a beer!
