                               Psi4 1.4a3.dev225

  ==> Input File <==

--------------------------------------------------------------------------
#psi4
#
memory 32 gb

molecule  {
0 1
  C       -2.6260070    -1.3181640     0.0000030
  C       -0.1785920    -0.3910100    -0.0000140
  C       -1.6028860    -0.2271800    -0.0000070
  C        0.4037990     0.9065080    -0.0000120
  C       -1.8343130     1.1308630     0.0000070
  C        2.0432640    -1.3188820     0.0000040
  C        2.5978420    -0.0201300     0.0000040
  C        0.6688530    -1.5149630     0.0000000
  C        1.7894440     1.1098670     0.0000020
  N       -0.6328500     1.8116730     0.0000060
  H        2.7093900    -2.1785170     0.0000140
  H        3.6789570     0.0979150     0.0000120
  H        0.2538510    -2.5213940    -0.0000090
  H        2.2194160     2.1097700    -0.0000210
  H       -3.6376970    -0.9014040    -0.0000240
  H       -2.5280300    -1.9591080     0.8829250
  H       -2.7564021     1.6610981     0.0000050
  H       -0.5326180     2.8176610     0.0000030
  H       -2.5279980    -1.9591520    -0.8828820
units angstrom
no_reorient  #important for SAPT in psi4, default
symmetry c1  #important for SAPT in psi4, default
}

set PROPERTIES_ORIGIN ["COM"]
properties('MP2/aug-cc-pvtz', properties = ['dipole'])
--------------------------------------------------------------------------

    Molecular point group: c1
  Charge       = 0
  Multiplicity = 1
  Basis Set: AUG-CC-PVTZ
    Blend: AUG-CC-PVTZ
  Basis Set: (AUG-CC-PVTZ AUX)
    Blend: AUG-CC-PVTZ-JKFIT

    Orbital Energies [Eh]
    ---------------------

    Doubly Occupied:

       1A    -15.599770     2A    -11.265190     3A    -11.262252
       4A    -11.231794     5A    -11.230592     6A    -11.229416
       7A    -11.222610     8A    -11.221739     9A    -11.221312
      10A    -11.221008    11A     -1.291599    12A     -1.126965
      13A     -1.072120    14A     -0.997285    15A     -0.986073
      16A     -0.931267    17A     -0.840043    18A     -0.804260
      19A     -0.756317    20A     -0.720397    21A     -0.660771
      22A     -0.645864    23A     -0.603462    24A     -0.592639
      25A     -0.591858    26A     -0.571329    27A     -0.551353
      28A     -0.542316    29A     -0.529846    30A     -0.497647
      31A     -0.475741    32A     -0.462992    33A     -0.374462
      34A     -0.298574    35A     -0.277675

  @DF-RHF Final Energy:  -400.64033544617769

   => Energetics <=

    Nuclear Repulsion Energy =            483.3658618502088302
    One-Electron Energy =               -1500.1953206483328813
    Two-Electron Energy =                 616.1891233519463640
    Total Energy =                       -400.6403354461776871
  Basis Set: (AUG-CC-PVTZ AUX)
    Blend: AUG-CC-PVTZ-RI
    Molecular point group: c1

    Geometry (in Angstrom), charge = 0, multiplicity = 1:

       Center              X                  Y                   Z               Mass
    ------------   -----------------  -----------------  -----------------  -----------------
         C           -2.649882524661    -1.339500111916     0.000003372322    12.000000000000
         C           -0.202467524661    -0.412346111916    -0.000013627678    12.000000000000
         C           -1.626761524661    -0.248516111916    -0.000006627678    12.000000000000
         C            0.379923475339     0.885171888084    -0.000011627678    12.000000000000
         C           -1.858188524661     1.109526888084     0.000007372322    12.000000000000
         C            2.019388475339    -1.340218111916     0.000004372322    12.000000000000
         C            2.573966475339    -0.041466111916     0.000004372322    12.000000000000
         C            0.644977475339    -1.536299111916     0.000000372322    12.000000000000
         C            1.765568475339     1.088530888084     0.000002372322    12.000000000000
         N           -0.656725524661     1.790336888084     0.000006372322    14.003074004430
         H            2.685514475339    -2.199853111916     0.000014372322     1.007825032230
         H            3.655081475339     0.076578888084     0.000012372322     1.007825032230
         H            0.229975475339    -2.542730111916    -0.000008627678     1.007825032230
         H            2.195540475339     2.088433888084    -0.000020627678     1.007825032230
         H           -3.661572524661    -0.922740111916    -0.000023627678     1.007825032230
         H           -2.551905524661    -1.980444111916     0.882925372322     1.007825032230
         H           -2.780277624661     1.639761988084     0.000005372322     1.007825032230
         H           -0.556493524661     2.796324888084     0.000003372322     1.007825032230
         H           -2.551873524661    -1.980488111916    -0.882881627678     1.007825032230

  Basis Set: AUG-CC-PVTZ
    Blend: AUG-CC-PVTZ
  Basis Set: (AUG-CC-PVTZ AUX)
    Blend: AUG-CC-PVTZ-JKFIT
	 Reference Energy          =    -400.6403354461776871 [Eh]
	 Singles Energy            =      -0.0000000000000000 [Eh]
	 Same-Spin Energy          =      -0.4516421105005273 [Eh]
	 Opposite-Spin Energy      =      -1.4039630085771475 [Eh]
	 Correlation Energy        =      -1.8556051190776748 [Eh]
	 Total Energy              =    -402.4959405652553528 [Eh]

	 ================> DF-SCS-MP2 Energies <==================
	-----------------------------------------------------------
	 SCS Same-Spin Scale       =       0.3333333333333333 [-]
	 SCS Opposite-Spin Scale   =       1.2000000000000000 [-]
	 SCS Same-Spin Energy      =      -0.1505473701668424 [Eh]
	 SCS Opposite-Spin Energy  =      -1.6847556102925769 [Eh]
	 SCS Correlation Energy    =      -1.8353029804594194 [Eh]
	 SCS Total Energy          =    -402.4756384266370901 [Eh]
	-----------------------------------------------------------

  Dipole Moment: [D]
     X:    -0.9606      Y:     1.8057      Z:    -0.0000     Total:     2.0453

*** Psi4 exiting successfully. Buy a developer a beer!
