                               Psi4 1.4a3.dev225

  ==> Input File <==

--------------------------------------------------------------------------
#psi4
#
memory 32 gb

molecule  {
0 1
  C       -2.6260070    -1.3181640     0.0000030
  C       -0.1785920    -0.3910100    -0.0000140
  C       -1.6028860    -0.2271800    -0.0000070
  C        0.4037990     0.9065080    -0.0000120
  C       -1.8343130     1.1308630     0.0000070
  C        2.0432640    -1.3188820     0.0000040
  C        2.5978420    -0.0201300     0.0000040
  C        0.6688530    -1.5149630     0.0000000
  C        1.7894440     1.1098670     0.0000020
  N       -0.6328500     1.8116730     0.0000060
  H        2.7093900    -2.1785170     0.0000140
  H        3.6789570     0.0979150     0.0000120
  H        0.2347904    -2.5676184    -0.0000094
  H        2.2194160     2.1097700    -0.0000210
  H       -3.6376970    -0.9014040    -0.0000240
  H       -2.5280300    -1.9591080     0.8829250
  H       -2.7737400     1.6710680     0.0000050
  H       -0.5326180     2.8176610     0.0000030
  H       -2.5279980    -1.9591520    -0.8828820
units angstrom
no_reorient  #important for SAPT in psi4, default
symmetry c1  #important for SAPT in psi4, default
}

set PROPERTIES_ORIGIN ["COM"]
properties('MP2/aug-cc-pvtz', properties = ['dipole'])
--------------------------------------------------------------------------

    Molecular point group: c1
  Charge       = 0
  Multiplicity = 1
  Basis Set: AUG-CC-PVTZ
    Blend: AUG-CC-PVTZ
  Basis Set: (AUG-CC-PVTZ AUX)
    Blend: AUG-CC-PVTZ-JKFIT

    Orbital Energies [Eh]
    ---------------------

    Doubly Occupied:

       1A    -15.600140     2A    -11.265680     3A    -11.264665
       4A    -11.236402     5A    -11.232077     6A    -11.229813
       7A    -11.223045     8A    -11.222124     9A    -11.221550
      10A    -11.221352    11A     -1.291904    12A     -1.126980
      13A     -1.072173    14A     -0.996309    15A     -0.985867
      16A     -0.930704    17A     -0.837632    18A     -0.804198
      19A     -0.755069    20A     -0.717380    21A     -0.658854
      22A     -0.644780    23A     -0.602213    24A     -0.592081
      25A     -0.589103    26A     -0.569465    27A     -0.551387
      28A     -0.542037    29A     -0.529562    30A     -0.497151
      31A     -0.473935    32A     -0.463391    33A     -0.374753
      34A     -0.298936    35A     -0.277924

  @DF-RHF Final Energy:  -400.63768917007820

   => Energetics <=

    Nuclear Repulsion Energy =            483.0123504536731502
    One-Electron Energy =               -1499.4988084305166467
    Two-Electron Energy =                 615.8487688067651789
    Total Energy =                       -400.6376891700782608
  Basis Set: (AUG-CC-PVTZ AUX)
    Blend: AUG-CC-PVTZ-RI
    Molecular point group: c1

    Geometry (in Angstrom), charge = 0, multiplicity = 1:

       Center              X                  Y                   Z               Mass
    ------------   -----------------  -----------------  -----------------  -----------------
         C           -2.649602656346    -1.339221350818     0.000003375398    12.000000000000
         C           -0.202187656346    -0.412067350818    -0.000013624602    12.000000000000
         C           -1.626481656346    -0.248237350818    -0.000006624602    12.000000000000
         C            0.380203343654     0.885450649182    -0.000011624602    12.000000000000
         C           -1.857908656346     1.109805649182     0.000007375398    12.000000000000
         C            2.019668343654    -1.339939350818     0.000004375398    12.000000000000
         C            2.574246343654    -0.041187350818     0.000004375398    12.000000000000
         C            0.645257343654    -1.536020350818     0.000000375398    12.000000000000
         C            1.765848343654     1.088809649182     0.000002375398    12.000000000000
         N           -0.656445656346     1.790615649182     0.000006375398    14.003074004430
         H            2.685794343654    -2.199574350818     0.000014375398     1.007825032230
         H            3.655361343654     0.076857649182     0.000012375398     1.007825032230
         H            0.211194743654    -2.588675750818    -0.000009024602     1.007825032230
         H            2.195820343654     2.088712649182    -0.000020624602     1.007825032230
         H           -3.661292656346    -0.922461350818    -0.000023624602     1.007825032230
         H           -2.551625656346    -1.980165350818     0.882925375398     1.007825032230
         H           -2.797335656346     1.650010649182     0.000005375398     1.007825032230
         H           -0.556213656346     2.796603649182     0.000003375398     1.007825032230
         H           -2.551593656346    -1.980209350818    -0.882881624602     1.007825032230

  Basis Set: AUG-CC-PVTZ
    Blend: AUG-CC-PVTZ
  Basis Set: (AUG-CC-PVTZ AUX)
    Blend: AUG-CC-PVTZ-JKFIT
	 Reference Energy          =    -400.6376891700782039 [Eh]
	 Singles Energy            =      -0.0000000000000000 [Eh]
	 Same-Spin Energy          =      -0.4518143193379310 [Eh]
	 Opposite-Spin Energy      =      -1.4045543591543472 [Eh]
	 Correlation Energy        =      -1.8563686784922782 [Eh]
	 Total Energy              =    -402.4940578485704918 [Eh]

	 ================> DF-SCS-MP2 Energies <==================
	-----------------------------------------------------------
	 SCS Same-Spin Scale       =       0.3333333333333333 [-]
	 SCS Opposite-Spin Scale   =       1.2000000000000000 [-]
	 SCS Same-Spin Energy      =      -0.1506047731126436 [Eh]
	 SCS Opposite-Spin Energy  =      -1.6854652309852167 [Eh]
	 SCS Correlation Energy    =      -1.8360700040978604 [Eh]
	 SCS Total Energy          =    -402.4737591741760525 [Eh]
	-----------------------------------------------------------

  Dipole Moment: [D]
     X:    -0.9526      Y:     1.8265      Z:    -0.0000     Total:     2.0600

*** Psi4 exiting successfully. Buy a developer a beer!
