                               Psi4 1.3.2 release

  ==> Input File <==

--------------------------------------------------------------------------
#psi4
#
memory 32 gb

molecule  {
0 1
  C       -2.6260010    -1.3181790     0.0001460
  C       -0.1785650    -0.3909870     0.0002200
  C       -1.6028750    -0.2271810    -0.0000330
  C        0.4037930     0.9065250    -0.0001510
  C       -1.8343220     1.1308500    -0.0000640
  C        2.0432510    -1.3188980     0.0000320
  C        2.5978260    -0.0201320    -0.0000760
  C        0.6688440    -1.5149670    -0.0002860
  C        1.7894520     1.1098640     0.0002960
  N       -0.6328400     1.8116850    -0.0001020
  H        2.8319002    -2.3366045    -0.0004297
  H        3.6789480     0.0978590     0.0002690
  H        0.2537760    -2.5213680    -0.0000660
  H        2.2194000     2.1097800     0.0002850
  H       -3.6376700    -0.9013790    -0.0001930
  H       -2.5281620    -1.9588410     0.8832840
  H       -2.7737480     1.6710560    -0.0003610
  H       -0.5326520     2.8176750    -0.0001200
  H       -2.5278290    -1.9594320    -0.8825300
units angstrom
no_reorient  #important for SAPT in psi4, default
symmetry c1  #important for SAPT in psi4, default
}

set PROPERTIES_ORIGIN ["COM"]
properties('MP2/aug-cc-pvtz', properties = ['dipole'])
--------------------------------------------------------------------------

    Molecular point group: c1
  Charge       = 0
  Multiplicity = 1
  Basis Set: AUG-CC-PVTZ
    Blend: AUG-CC-PVTZ
  Basis Set: (AUG-CC-PVTZ AUX)
    Blend: AUG-CC-PVTZ-JKFIT

    Orbital Energies [Eh]
    ---------------------

    Doubly Occupied:

       1A    -15.600939     2A    -11.266498     3A    -11.265569
       4A    -11.243341     5A    -11.233722     6A    -11.233040
       7A    -11.231873     8A    -11.224180     9A    -11.223178
      10A    -11.222118    11A     -1.292753    12A     -1.127748
      13A     -1.073235    14A     -0.996243    15A     -0.984819
      16A     -0.931845    17A     -0.836791    18A     -0.801046
      19A     -0.753929    20A     -0.721052    21A     -0.658636
      22A     -0.629669    23A     -0.604699    24A     -0.592966
      25A     -0.590043    26A     -0.570398    27A     -0.552185
      28A     -0.541718    29A     -0.527130    30A     -0.480009
      31A     -0.474968    32A     -0.464936    33A     -0.375915
      34A     -0.300126    35A     -0.278984

  @DF-RHF Final Energy:  -400.61808930088603

   => Energetics <=

    Nuclear Repulsion Energy =            482.3353303778698091
    One-Electron Energy =               -1498.0942345386913530
    Two-Electron Energy =                 615.1408148599355172
    Total Energy =                       -400.6180893008860266
  Basis Set: (AUG-CC-PVTZ AUX)
    Blend: AUG-CC-PVTZ-RI
    Molecular point group: c1

    Geometry (in Angstrom), charge = 0, multiplicity = 1:

       Center              X                  Y                   Z               Mass
    ------------   -----------------  -----------------  -----------------  -----------------
         C           -2.650685572238    -1.338376188825     0.000148143312    12.000000000000
         C           -0.203249572238    -0.411184188825     0.000222143312    12.000000000000
         C           -1.627559572238    -0.247378188825    -0.000030856688    12.000000000000
         C            0.379108427762     0.886327811175    -0.000148856688    12.000000000000
         C           -1.859006572238     1.110652811175    -0.000061856688    12.000000000000
         C            2.018566427762    -1.339095188825     0.000034143312    12.000000000000
         C            2.573141427762    -0.040329188825    -0.000073856688    12.000000000000
         C            0.644159427762    -1.535164188825    -0.000283856688    12.000000000000
         C            1.764767427762     1.089666811175     0.000298143312    12.000000000000
         N           -0.657524572238     1.791487811175    -0.000099856688    14.003074004430
         H            2.807215627762    -2.356801688825    -0.000427556688     1.007825032230
         H            3.654263427762     0.077661811175     0.000271143312     1.007825032230
         H            0.229091427762    -2.541565188825    -0.000063856688     1.007825032230
         H            2.194715427762     2.089582811175     0.000287143312     1.007825032230
         H           -3.662354572238    -0.921576188825    -0.000190856688     1.007825032230
         H           -2.552846572238    -1.979038188825     0.883286143312     1.007825032230
         H           -2.798432572238     1.650858811175    -0.000358856688     1.007825032230
         H           -0.557336572238     2.797477811175    -0.000117856688     1.007825032230
         H           -2.552513572238    -1.979629188825    -0.882527856688     1.007825032230

  Basis Set: AUG-CC-PVTZ
    Blend: AUG-CC-PVTZ
  Basis Set: (AUG-CC-PVTZ AUX)
    Blend: AUG-CC-PVTZ-JKFIT
	 Reference Energy          =    -400.6180893008860266 [Eh]
	 Singles Energy            =      -0.0000000000000000 [Eh]
	 Same-Spin Energy          =      -0.4521300033802474 [Eh]
	 Opposite-Spin Energy      =      -1.4063270907243475 [Eh]
	 Correlation Energy        =      -1.8584570941045948 [Eh]
	 Total Energy              =    -402.4765463949906348 [Eh]

	 ================> DF-SCS-MP2 Energies <==================
	-----------------------------------------------------------
	 SCS Same-Spin Scale       =       0.3333333333333333 [-]
	 SCS Opposite-Spin Scale   =       1.2000000000000000 [-]
	 SCS Same-Spin Energy      =      -0.1507100011267491 [Eh]
	 SCS Opposite-Spin Energy  =      -1.6875925088692170 [Eh]
	 SCS Correlation Energy    =      -1.8383025099959660 [Eh]
	 SCS Total Energy          =    -402.4563918108819962 [Eh]
	-----------------------------------------------------------

  Dipole Moment: [D]
     X:    -1.0525      Y:     1.9120      Z:    -0.0001     Total:     2.1825

*** Psi4 exiting successfully. Buy a developer a beer!
