                               Psi4 1.4a3.dev225

  ==> Input File <==

--------------------------------------------------------------------------
#psi4
#
memory 32 gb

molecule  {
0 1
  C       -2.6260070    -1.3181640     0.0000030
  C       -0.1785920    -0.3910100    -0.0000140
  C       -1.6028860    -0.2271800    -0.0000070
  C        0.4037990     0.9065080    -0.0000120
  C       -1.8343130     1.1308630     0.0000070
  C        2.0432640    -1.3188820     0.0000040
  C        2.5978420    -0.0201300     0.0000040
  C        0.6688530    -1.5149630     0.0000000
  C        1.7894440     1.1098670     0.0000020
  N       -0.6328500     1.8116730     0.0000060
  H        2.6787640    -2.1389942     0.0000135
  H        3.6789570     0.0979150     0.0000120
  H        0.2538510    -2.5213940    -0.0000090
  H        2.2194160     2.1097700    -0.0000210
  H       -3.6376970    -0.9014040    -0.0000240
  H       -2.5280300    -1.9591080     0.8829250
  H       -2.7737400     1.6710680     0.0000050
  H       -0.5326180     2.8176610     0.0000030
  H       -2.5279980    -1.9591520    -0.8828820
units angstrom
no_reorient  #important for SAPT in psi4, default
symmetry c1  #important for SAPT in psi4, default
}

set PROPERTIES_ORIGIN ["COM"]
properties('MP2/aug-cc-pvtz', properties = ['dipole'])
--------------------------------------------------------------------------

    Molecular point group: c1
  Charge       = 0
  Multiplicity = 1
  Basis Set: AUG-CC-PVTZ
    Blend: AUG-CC-PVTZ
  Basis Set: (AUG-CC-PVTZ AUX)
    Blend: AUG-CC-PVTZ-JKFIT

    Orbital Energies [Eh]
    ---------------------

    Doubly Occupied:

       1A    -15.599780     2A    -11.265087     3A    -11.264364
       4A    -11.231505     5A    -11.230197     6A    -11.228981
       7A    -11.222491     8A    -11.221573     9A    -11.221182
      10A    -11.215037    11A     -1.291504    12A     -1.127118
      13A     -1.071944    14A     -0.998363    15A     -0.986060
      16A     -0.930794    17A     -0.840361    18A     -0.805206
      19A     -0.756630    20A     -0.719934    21A     -0.662090
      22A     -0.648343    23A     -0.603326    24A     -0.593237
      25A     -0.591766    26A     -0.569610    27A     -0.551243
      28A     -0.542810    29A     -0.530474    30A     -0.500800
      31A     -0.475499    32A     -0.462729    33A     -0.374290
      34A     -0.298428    35A     -0.277498

  @DF-RHF Final Energy:  -400.63941701568331

   => Energetics <=

    Nuclear Repulsion Energy =            483.5230683643496263
    One-Electron Energy =               -1500.5044687619465549
    Two-Electron Energy =                 616.3419833819135647
    Total Energy =                       -400.6394170156833070
  Basis Set: (AUG-CC-PVTZ AUX)
    Blend: AUG-CC-PVTZ-RI
    Molecular point group: c1

    Geometry (in Angstrom), charge = 0, multiplicity = 1:

       Center              X                  Y                   Z               Mass
    ------------   -----------------  -----------------  -----------------  -----------------
         C           -2.649513729906    -1.339880661625     0.000003376167    12.000000000000
         C           -0.202098729906    -0.412726661625    -0.000013623833    12.000000000000
         C           -1.626392729906    -0.248896661625    -0.000006623833    12.000000000000
         C            0.380292270094     0.884791338375    -0.000011623833    12.000000000000
         C           -1.857819729906     1.109146338375     0.000007376167    12.000000000000
         C            2.019757270094    -1.340598661625     0.000004376167    12.000000000000
         C            2.574335270094    -0.041846661625     0.000004376167    12.000000000000
         C            0.645346270094    -1.536679661625     0.000000376167    12.000000000000
         C            1.765937270094     1.088150338375     0.000002376167    12.000000000000
         N           -0.656356729906     1.789956338375     0.000006376167    14.003074004430
         H            2.655257270094    -2.160710861625     0.000013876167     1.007825032230
         H            3.655450270094     0.076198338375     0.000012376167     1.007825032230
         H            0.230344270094    -2.543110661625    -0.000008623833     1.007825032230
         H            2.195909270094     2.088053338375    -0.000020623833     1.007825032230
         H           -3.661203729906    -0.923120661625    -0.000023623833     1.007825032230
         H           -2.551536729906    -1.980824661625     0.882925376167     1.007825032230
         H           -2.797246729906     1.649351338375     0.000005376167     1.007825032230
         H           -0.556124729906     2.795944338375     0.000003376167     1.007825032230
         H           -2.551504729906    -1.980868661625    -0.882881623833     1.007825032230

  Basis Set: AUG-CC-PVTZ
    Blend: AUG-CC-PVTZ
  Basis Set: (AUG-CC-PVTZ AUX)
    Blend: AUG-CC-PVTZ-JKFIT
	 Reference Energy          =    -400.6394170156833070 [Eh]
	 Singles Energy            =      -0.0000000000000000 [Eh]
	 Same-Spin Energy          =      -0.4516109839236998 [Eh]
	 Opposite-Spin Energy      =      -1.4038007144498665 [Eh]
	 Correlation Energy        =      -1.8554116983735662 [Eh]
	 Total Energy              =    -402.4948287140568937 [Eh]

	 ================> DF-SCS-MP2 Energies <==================
	-----------------------------------------------------------
	 SCS Same-Spin Scale       =       0.3333333333333333 [-]
	 SCS Opposite-Spin Scale   =       1.2000000000000000 [-]
	 SCS Same-Spin Energy      =      -0.1505369946412333 [Eh]
	 SCS Opposite-Spin Energy  =      -1.6845608573398398 [Eh]
	 SCS Correlation Energy    =      -1.8350978519810730 [Eh]
	 SCS Total Energy          =    -402.4745148676643680 [Eh]
	-----------------------------------------------------------

  Dipole Moment: [D]
     X:    -0.9423      Y:     1.7872      Z:    -0.0000     Total:     2.0204

*** Psi4 exiting successfully. Buy a developer a beer!
