                               Psi4 1.3.2 release

  ==> Input File <==

--------------------------------------------------------------------------
#psi4
#
memory 32 gb

molecule  {
0 1
  C       -2.6260010    -1.3181790     0.0001460
  C       -0.1785650    -0.3909870     0.0002200
  C       -1.6028750    -0.2271810    -0.0000330
  C        0.4037930     0.9065250    -0.0001510
  C       -1.8343220     1.1308500    -0.0000640
  C        2.0432510    -1.3188980     0.0000320
  C        2.6428144    -0.0402776    -0.0000604
  C        0.6688440    -1.5149670    -0.0002860
  C        1.7894520     1.1098640     0.0002960
  N       -0.6328400     1.8116850    -0.0001020
  H        2.7093930    -2.1785160    -0.0003580
  H        3.6789480     0.0978590     0.0002690
  H        0.2537760    -2.5213680    -0.0000660
  H        2.2194000     2.1097800     0.0002850
  H       -3.6376700    -0.9013790    -0.0001930
  H       -2.5281620    -1.9588410     0.8832840
  H       -2.7737480     1.6710560    -0.0003610
  H       -0.5326520     2.8176750    -0.0001200
  H       -2.5278290    -1.9594320    -0.8825300
units angstrom
no_reorient  #important for SAPT in psi4, default
symmetry c1  #important for SAPT in psi4, default
}

set PROPERTIES_ORIGIN ["COM"]
properties('MP2/aug-cc-pvtz', properties = ['dipole'])
--------------------------------------------------------------------------

    Molecular point group: c1
  Charge       = 0
  Multiplicity = 1
  Basis Set: AUG-CC-PVTZ
    Blend: AUG-CC-PVTZ
  Basis Set: (AUG-CC-PVTZ AUX)
    Blend: AUG-CC-PVTZ-JKFIT

    Orbital Energies [Eh]
    ---------------------

    Doubly Occupied:

       1A    -15.599690     2A    -11.266311     3A    -11.265653
       4A    -11.235840     5A    -11.230449     6A    -11.230349
       7A    -11.223886     8A    -11.222530     9A    -11.221975
      10A    -11.221692    11A     -1.292014    12A     -1.123204
      13A     -1.071173    14A     -0.994705    15A     -0.986149
      16A     -0.931209    17A     -0.839815    18A     -0.805818
      19A     -0.755577    20A     -0.720093    21A     -0.664470
      22A     -0.643281    23A     -0.603647    24A     -0.591995
      25A     -0.590850    26A     -0.569347    27A     -0.551393
      28A     -0.546063    29A     -0.533279    30A     -0.493672
      31A     -0.477479    32A     -0.460386    33A     -0.372415
      34A     -0.299930    35A     -0.275591

  @DF-RHF Final Energy:  -400.63636128423525

   => Energetics <=

    Nuclear Repulsion Energy =            482.4033506872788166
    One-Electron Energy =               -1498.2555636730407969
    Two-Electron Energy =                 615.2158517015267307
    Total Energy =                       -400.6363612842352495
  Basis Set: (AUG-CC-PVTZ AUX)
    Blend: AUG-CC-PVTZ-RI
    Molecular point group: c1

    Geometry (in Angstrom), charge = 0, multiplicity = 1:

       Center              X                  Y                   Z               Mass
    ------------   -----------------  -----------------  -----------------  -----------------
         C           -2.653862377462    -1.337747368714     0.000146163803    12.000000000000
         C           -0.206426377462    -0.410555368714     0.000220163803    12.000000000000
         C           -1.630736377462    -0.246749368714    -0.000032836197    12.000000000000
         C            0.375931622538     0.886956631286    -0.000150836197    12.000000000000
         C           -1.862183377462     1.111281631286    -0.000063836197    12.000000000000
         C            2.015389622538    -1.338466368714     0.000032163803    12.000000000000
         C            2.614953022538    -0.059845968714    -0.000060236197    12.000000000000
         C            0.640982622538    -1.534535368714    -0.000285836197    12.000000000000
         C            1.761590622538     1.090295631286     0.000296163803    12.000000000000
         N           -0.660701377462     1.792116631286    -0.000101836197    14.003074004430
         H            2.681531622538    -2.198084368714    -0.000357836197     1.007825032230
         H            3.651086622538     0.078290631286     0.000269163803     1.007825032230
         H            0.225914622538    -2.540936368714    -0.000065836197     1.007825032230
         H            2.191538622538     2.090211631286     0.000285163803     1.007825032230
         H           -3.665531377462    -0.920947368714    -0.000192836197     1.007825032230
         H           -2.556023377462    -1.978409368714     0.883284163803     1.007825032230
         H           -2.801609377462     1.651487631286    -0.000360836197     1.007825032230
         H           -0.560513377462     2.798106631286    -0.000119836197     1.007825032230
         H           -2.555690377462    -1.979000368714    -0.882529836197     1.007825032230

  Basis Set: AUG-CC-PVTZ
    Blend: AUG-CC-PVTZ
  Basis Set: (AUG-CC-PVTZ AUX)
    Blend: AUG-CC-PVTZ-JKFIT
	 Reference Energy          =    -400.6363612842352495 [Eh]
	 Singles Energy            =      -0.0000000000000000 [Eh]
	 Same-Spin Energy          =      -0.4518234404421309 [Eh]
	 Opposite-Spin Energy      =      -1.4045945943321281 [Eh]
	 Correlation Energy        =      -1.8564180347742589 [Eh]
	 Total Energy              =    -402.4927793190095144 [Eh]

	 ================> DF-SCS-MP2 Energies <==================
	-----------------------------------------------------------
	 SCS Same-Spin Scale       =       0.3333333333333333 [-]
	 SCS Opposite-Spin Scale   =       1.2000000000000000 [-]
	 SCS Same-Spin Energy      =      -0.1506078134807103 [Eh]
	 SCS Opposite-Spin Energy  =      -1.6855135131985537 [Eh]
	 SCS Correlation Energy    =      -1.8361213266792640 [Eh]
	 SCS Total Energy          =    -402.4724826109145397 [Eh]
	-----------------------------------------------------------

  Dipole Moment: [D]
     X:    -0.9851      Y:     1.8045      Z:    -0.0001     Total:     2.0559

*** Psi4 exiting successfully. Buy a developer a beer!
