                               Psi4 1.3.2 release

  ==> Input File <==

--------------------------------------------------------------------------
#psi4
#
memory 32 gb

molecule  {
0 1
  C       -2.6260010    -1.3181790     0.0001460
  C       -0.1785650    -0.3909870     0.0002200
  C       -1.6028750    -0.2271810    -0.0000330
  C        0.4037930     0.9065250    -0.0001510
  C       -1.8343220     1.1308500    -0.0000640
  C        2.0432510    -1.3188980     0.0000320
  C        2.5978260    -0.0201320    -0.0000760
  C        0.6688440    -1.5149670    -0.0002860
  C        1.7894520     1.1098640     0.0002960
  N       -0.6328400     1.8116850    -0.0001020
  H        2.7093930    -2.1785160    -0.0003580
  H        3.6789480     0.0978590     0.0002690
  H        0.2537760    -2.5213680    -0.0000660
  H        2.2194000     2.1097800     0.0002850
  H       -3.6376700    -0.9013790    -0.0001930
  H       -2.5281620    -1.9588410     0.8832840
  H       -2.7737480     1.6710560    -0.0003610
  H       -0.5524722     2.6186595    -0.0001164
  H       -2.5278290    -1.9594320    -0.8825300
units angstrom
no_reorient  #important for SAPT in psi4, default
symmetry c1  #important for SAPT in psi4, default
}

set PROPERTIES_ORIGIN ["COM"]
properties('MP2/aug-cc-pvtz', properties = ['dipole'])
--------------------------------------------------------------------------

    Molecular point group: c1
  Charge       = 0
  Multiplicity = 1
  Basis Set: AUG-CC-PVTZ
    Blend: AUG-CC-PVTZ
  Basis Set: (AUG-CC-PVTZ AUX)
    Blend: AUG-CC-PVTZ-JKFIT

    Orbital Energies [Eh]
    ---------------------

    Doubly Occupied:

       1A    -15.578790     2A    -11.266092     3A    -11.265243
       4A    -11.232838     5A    -11.231448     6A    -11.230395
       7A    -11.224051     8A    -11.222807     9A    -11.222290
      10A    -11.222121    11A     -1.312696    12A     -1.134522
      13A     -1.082270    14A     -1.003579    15A     -0.988261
      16A     -0.944941    17A     -0.845855    18A     -0.820498
      19A     -0.762835    20A     -0.737901    21A     -0.661599
      22A     -0.645954    23A     -0.608766    24A     -0.596734
      25A     -0.594013    26A     -0.570978    27A     -0.553092
      28A     -0.544434    29A     -0.530874    30A     -0.498747
      31A     -0.477312    32A     -0.464903    33A     -0.375904
      34A     -0.300554    35A     -0.279309

  @DF-RHF Final Energy:  -400.59538148154900

   => Energetics <=

    Nuclear Repulsion Energy =            484.7115441009910910
    One-Electron Energy =               -1502.5486388217761942
    Two-Electron Energy =                 617.2417132392361054
    Total Energy =                       -400.5953814815489977
  Basis Set: (AUG-CC-PVTZ AUX)
    Blend: AUG-CC-PVTZ-RI
    Molecular point group: c1

    Geometry (in Angstrom), charge = 0, multiplicity = 1:

       Center              X                  Y                   Z               Mass
    ------------   -----------------  -----------------  -----------------  -----------------
         C           -2.649591215887    -1.338061500842     0.000147564329    12.000000000000
         C           -0.202155215887    -0.410869500842     0.000221564329    12.000000000000
         C           -1.626465215887    -0.247063500842    -0.000031435671    12.000000000000
         C            0.380202784113     0.886642499158    -0.000149435671    12.000000000000
         C           -1.857912215887     1.110967499158    -0.000062435671    12.000000000000
         C            2.019660784113    -1.338780500842     0.000033564329    12.000000000000
         C            2.574235784113    -0.040014500842    -0.000074435671    12.000000000000
         C            0.645253784113    -1.534849500842    -0.000284435671    12.000000000000
         C            1.765861784113     1.089981499158     0.000297564329    12.000000000000
         N           -0.656430215887     1.791802499158    -0.000100435671    14.003074004430
         H            2.685802784113    -2.198398500842    -0.000356435671     1.007825032230
         H            3.655357784113     0.077976499158     0.000270564329     1.007825032230
         H            0.230185784113    -2.541250500842    -0.000064435671     1.007825032230
         H            2.195809784113     2.089897499158     0.000286564329     1.007825032230
         H           -3.661260215887    -0.921261500842    -0.000191435671     1.007825032230
         H           -2.551752215887    -1.978723500842     0.883285564329     1.007825032230
         H           -2.797338215887     1.651173499158    -0.000359435671     1.007825032230
         H           -0.576062415887     2.598776999158    -0.000114835671     1.007825032230
         H           -2.551419215887    -1.979314500842    -0.882528435671     1.007825032230

  Basis Set: AUG-CC-PVTZ
    Blend: AUG-CC-PVTZ
  Basis Set: (AUG-CC-PVTZ AUX)
    Blend: AUG-CC-PVTZ-JKFIT
	 Reference Energy          =    -400.5953814815489977 [Eh]
	 Singles Energy            =      -0.0000000000000000 [Eh]
	 Same-Spin Energy          =      -0.4502014276618151 [Eh]
	 Opposite-Spin Energy      =      -1.4011720428700640 [Eh]
	 Correlation Energy        =      -1.8513734705318792 [Eh]
	 Total Energy              =    -402.4467549520808802 [Eh]

	 ================> DF-SCS-MP2 Energies <==================
	-----------------------------------------------------------
	 SCS Same-Spin Scale       =       0.3333333333333333 [-]
	 SCS Opposite-Spin Scale   =       1.2000000000000000 [-]
	 SCS Same-Spin Energy      =      -0.1500671425539384 [Eh]
	 SCS Opposite-Spin Energy  =      -1.6814064514440767 [Eh]
	 SCS Correlation Energy    =      -1.8314735939980151 [Eh]
	 SCS Total Energy          =    -402.4268550755469960 [Eh]
	-----------------------------------------------------------

  Dipole Moment: [D]
     X:    -0.9500      Y:     1.5579      Z:    -0.0001     Total:     1.8247

*** Psi4 exiting successfully. Buy a developer a beer!
