                               Psi4 1.3.2 release

  ==> Input File <==

--------------------------------------------------------------------------
#psi4
#
memory 32 gb

molecule  {
0 1
  C       -2.6260010    -1.3181790     0.0001460
  C       -0.1785650    -0.3909870     0.0002200
  C       -1.6028750    -0.2271810    -0.0000330
  C        0.4037930     0.9065250    -0.0001510
  C       -1.8343220     1.1308500    -0.0000640
  C        2.1351992    -1.3544195    -0.0000037
  C        2.5978260    -0.0201320    -0.0000760
  C        0.6688440    -1.5149670    -0.0002860
  C        1.7894520     1.1098640     0.0002960
  N       -0.6328400     1.8116850    -0.0001020
  H        2.7093930    -2.1785160    -0.0003580
  H        3.6789480     0.0978590     0.0002690
  H        0.2537760    -2.5213680    -0.0000660
  H        2.2194000     2.1097800     0.0002850
  H       -3.6376700    -0.9013790    -0.0001930
  H       -2.5281620    -1.9588410     0.8832840
  H       -2.7737480     1.6710560    -0.0003610
  H       -0.5326520     2.8176750    -0.0001200
  H       -2.5278290    -1.9594320    -0.8825300
units angstrom
no_reorient  #important for SAPT in psi4, default
symmetry c1  #important for SAPT in psi4, default
}

set PROPERTIES_ORIGIN ["COM"]
properties('MP2/aug-cc-pvtz', properties = ['dipole'])
--------------------------------------------------------------------------

    Molecular point group: c1
  Charge       = 0
  Multiplicity = 1
  Basis Set: AUG-CC-PVTZ
    Blend: AUG-CC-PVTZ
  Basis Set: (AUG-CC-PVTZ AUX)
    Blend: AUG-CC-PVTZ-JKFIT

    Orbital Energies [Eh]
    ---------------------

    Doubly Occupied:

       1A    -15.600125     2A    -11.268709     3A    -11.266229
       4A    -11.240856     5A    -11.231490     6A    -11.229946
       7A    -11.224519     8A    -11.223513     9A    -11.222973
      10A    -11.221990    11A     -1.292984    12A     -1.119624
      13A     -1.072956    14A     -0.991129    15A     -0.986961
      16A     -0.930680    17A     -0.844420    18A     -0.803287
      19A     -0.757526    20A     -0.719185    21A     -0.669707
      22A     -0.646282    23A     -0.601148    24A     -0.592906
      25A     -0.592354    26A     -0.568109    27A     -0.551772
      28A     -0.548191    29A     -0.522859    30A     -0.511592
      31A     -0.467980    32A     -0.456975    33A     -0.374562
      34A     -0.297231    35A     -0.275653

  @DF-RHF Final Energy:  -400.62649433799072

   => Energetics <=

    Nuclear Repulsion Energy =            481.5616873102994759
    One-Electron Energy =               -1496.5235147814262291
    Two-Electron Energy =                 614.3353331331360323
    Total Energy =                       -400.6264943379907209
  Basis Set: (AUG-CC-PVTZ AUX)
    Blend: AUG-CC-PVTZ-RI
    Molecular point group: c1

    Geometry (in Angstrom), charge = 0, multiplicity = 1:

       Center              X                  Y                   Z               Mass
    ------------   -----------------  -----------------  -----------------  -----------------
         C           -2.658161626380    -1.336339679127     0.000150860405    12.000000000000
         C           -0.210725626380    -0.409147679127     0.000224860405    12.000000000000
         C           -1.635035626380    -0.245341679127    -0.000028139595    12.000000000000
         C            0.371632373620     0.888364320873    -0.000146139595    12.000000000000
         C           -1.866482626380     1.112689320873    -0.000059139595    12.000000000000
         C            2.103038573620    -1.372580179127     0.000001160405    12.000000000000
         C            2.565665373620    -0.038292679127    -0.000071139595    12.000000000000
         C            0.636683373620    -1.533127679127    -0.000281139595    12.000000000000
         C            1.757291373620     1.091703320873     0.000300860405    12.000000000000
         N           -0.665000626380     1.793524320873    -0.000097139595    14.003074004430
         H            2.677232373620    -2.196676679127    -0.000353139595     1.007825032230
         H            3.646787373620     0.079698320873     0.000273860405     1.007825032230
         H            0.221615373620    -2.539528679127    -0.000061139595     1.007825032230
         H            2.187239373620     2.091619320873     0.000289860405     1.007825032230
         H           -3.669830626380    -0.919539679127    -0.000188139595     1.007825032230
         H           -2.560322626380    -1.977001679127     0.883288860405     1.007825032230
         H           -2.805908626380     1.652895320873    -0.000356139595     1.007825032230
         H           -0.564812626380     2.799514320873    -0.000115139595     1.007825032230
         H           -2.559989626380    -1.977592679127    -0.882525139595     1.007825032230

  Basis Set: AUG-CC-PVTZ
    Blend: AUG-CC-PVTZ
  Basis Set: (AUG-CC-PVTZ AUX)
    Blend: AUG-CC-PVTZ-JKFIT
	 Reference Energy          =    -400.6264943379907209 [Eh]
	 Singles Energy            =      -0.0000000000000000 [Eh]
	 Same-Spin Energy          =      -0.4517117514520375 [Eh]
	 Opposite-Spin Energy      =      -1.4051127803629231 [Eh]
	 Correlation Energy        =      -1.8568245318149605 [Eh]
	 Total Energy              =    -402.4833188698056574 [Eh]

	 ================> DF-SCS-MP2 Energies <==================
	-----------------------------------------------------------
	 SCS Same-Spin Scale       =       0.3333333333333333 [-]
	 SCS Opposite-Spin Scale   =       1.2000000000000000 [-]
	 SCS Same-Spin Energy      =      -0.1505705838173458 [Eh]
	 SCS Opposite-Spin Energy  =      -1.6861353364355076 [Eh]
	 SCS Correlation Energy    =      -1.8367059202528535 [Eh]
	 SCS Total Energy          =    -402.4632002582435462 [Eh]
	-----------------------------------------------------------

  Dipole Moment: [D]
     X:    -1.0117      Y:     1.8189      Z:    -0.0001     Total:     2.0813

*** Psi4 exiting successfully. Buy a developer a beer!
