                               Psi4 1.4a3.dev225

  ==> Input File <==

--------------------------------------------------------------------------
#psi4
#
memory 32 gb

molecule  {
0 1
  C       -2.6260070    -1.3181640     0.0000030
  C       -0.1785920    -0.3910100    -0.0000140
  C       -1.6028860    -0.2271800    -0.0000070
  C        0.4037990     0.9065080    -0.0000120
  C       -1.8343130     1.1308630     0.0000070
  C        2.0432640    -1.3188820     0.0000040
  C        2.5978420    -0.0201300     0.0000040
  C        0.6688530    -1.5149630     0.0000000
  C        1.7894440     1.1098670     0.0000020
  N       -0.6328500     1.8116730     0.0000060
  H        2.7093900    -2.1785170     0.0000140
  H        3.6789570     0.0979150     0.0000120
  H        0.2538510    -2.5213940    -0.0000090
  H        2.1996641     2.0638368    -0.0000199
  H       -3.6376970    -0.9014040    -0.0000240
  H       -2.5280300    -1.9591080     0.8829250
  H       -2.7737400     1.6710680     0.0000050
  H       -0.5326180     2.8176610     0.0000030
  H       -2.5279980    -1.9591520    -0.8828820
units angstrom
no_reorient  #important for SAPT in psi4, default
symmetry c1  #important for SAPT in psi4, default
}

set PROPERTIES_ORIGIN ["COM"]
properties('MP2/aug-cc-pvtz', properties = ['dipole'])
--------------------------------------------------------------------------

    Molecular point group: c1
  Charge       = 0
  Multiplicity = 1
  Basis Set: AUG-CC-PVTZ
    Blend: AUG-CC-PVTZ
  Basis Set: (AUG-CC-PVTZ AUX)
    Blend: AUG-CC-PVTZ-JKFIT

    Orbital Energies [Eh]
    ---------------------

    Doubly Occupied:

       1A    -15.599870     2A    -11.264804     3A    -11.264393
       4A    -11.230485     5A    -11.229327     6A    -11.225579
       7A    -11.222523     8A    -11.221564     9A    -11.221191
      10A    -11.220716    11A     -1.291583    12A     -1.126997
      13A     -1.072411    14A     -0.998630    15A     -0.985513
      16A     -0.930830    17A     -0.840963    18A     -0.803723
      19A     -0.757853    20A     -0.721226    21A     -0.661680
      22A     -0.645726    23A     -0.606581    24A     -0.594740
      25A     -0.591793    26A     -0.569492    27A     -0.551257
      28A     -0.542295    29A     -0.529429    30A     -0.497756
      31A     -0.477100    32A     -0.462797    33A     -0.374345
      34A     -0.298386    35A     -0.277565

  @DF-RHF Final Energy:  -400.63946492492380

   => Energetics <=

    Nuclear Repulsion Energy =            483.5251870379085517
    One-Electron Energy =               -1500.5070613082966702
    Two-Electron Energy =                 616.3424093454642616
    Total Energy =                       -400.6394649249238000
  Basis Set: (AUG-CC-PVTZ AUX)
    Blend: AUG-CC-PVTZ-RI
    Molecular point group: c1

    Geometry (in Angstrom), charge = 0, multiplicity = 1:

       Center              X                  Y                   Z               Mass
    ------------   -----------------  -----------------  -----------------  -----------------
         C           -2.649597340935    -1.339223589857     0.000003363864    12.000000000000
         C           -0.202182340935    -0.412069589857    -0.000013636136    12.000000000000
         C           -1.626476340935    -0.248239589857    -0.000006636136    12.000000000000
         C            0.380208659065     0.885448410143    -0.000011636136    12.000000000000
         C           -1.857903340935     1.109803410143     0.000007363864    12.000000000000
         C            2.019673659065    -1.339941589857     0.000004363864    12.000000000000
         C            2.574251659065    -0.041189589857     0.000004363864    12.000000000000
         C            0.645262659065    -1.536022589857     0.000000363864    12.000000000000
         C            1.765853659065     1.088807410143     0.000002363864    12.000000000000
         N           -0.656440340935     1.790613410143     0.000006363864    14.003074004430
         H            2.685799659065    -2.199576589857     0.000014363864     1.007825032230
         H            3.655366659065     0.076855410143     0.000012363864     1.007825032230
         H            0.230260659065    -2.542453589857    -0.000008636136     1.007825032230
         H            2.176073759065     2.042777210143    -0.000019536136     1.007825032230
         H           -3.661287340935    -0.922463589857    -0.000023636136     1.007825032230
         H           -2.551620340935    -1.980167589857     0.882925363864     1.007825032230
         H           -2.797330340935     1.650008410143     0.000005363864     1.007825032230
         H           -0.556208340935     2.796601410143     0.000003363864     1.007825032230
         H           -2.551588340935    -1.980211589857    -0.882881636136     1.007825032230

  Basis Set: AUG-CC-PVTZ
    Blend: AUG-CC-PVTZ
  Basis Set: (AUG-CC-PVTZ AUX)
    Blend: AUG-CC-PVTZ-JKFIT
	 Reference Energy          =    -400.6394649249238000 [Eh]
	 Singles Energy            =      -0.0000000000000000 [Eh]
	 Same-Spin Energy          =      -0.4515925469614617 [Eh]
	 Opposite-Spin Energy      =      -1.4037947523669252 [Eh]
	 Correlation Energy        =      -1.8553872993283869 [Eh]
	 Total Energy              =    -402.4948522242522131 [Eh]

	 ================> DF-SCS-MP2 Energies <==================
	-----------------------------------------------------------
	 SCS Same-Spin Scale       =       0.3333333333333333 [-]
	 SCS Opposite-Spin Scale   =       1.2000000000000000 [-]
	 SCS Same-Spin Energy      =      -0.1505308489871539 [Eh]
	 SCS Opposite-Spin Energy  =      -1.6845537028403101 [Eh]
	 SCS Correlation Energy    =      -1.8350845518274641 [Eh]
	 SCS Total Energy          =    -402.4745494767512923 [Eh]
	-----------------------------------------------------------

  Dipole Moment: [D]
     X:    -0.9482      Y:     1.8214      Z:    -0.0000     Total:     2.0535

*** Psi4 exiting successfully. Buy a developer a beer!
