                               Psi4 1.3.2 release

  ==> Input File <==

--------------------------------------------------------------------------
#psi4
#
memory 32 gb

molecule  {
0 1
  C       -2.6260010    -1.3181790     0.0001460
  C       -0.1785650    -0.3909870     0.0002200
  C       -1.6028750    -0.2271810    -0.0000330
  C        0.4037930     0.9065250    -0.0001510
  C       -1.8343220     1.1308500    -0.0000640
  C        1.9540046    -1.2770491     0.0000672
  C        2.5978260    -0.0201320    -0.0000760
  C        0.6688440    -1.5149670    -0.0002860
  C        1.7894520     1.1098640     0.0002960
  N       -0.6328400     1.8116850    -0.0001020
  H        2.7093930    -2.1785160    -0.0003580
  H        3.6789480     0.0978590     0.0002690
  H        0.2537760    -2.5213680    -0.0000660
  H        2.2194000     2.1097800     0.0002850
  H       -3.6376700    -0.9013790    -0.0001930
  H       -2.5281620    -1.9588410     0.8832840
  H       -2.7737480     1.6710560    -0.0003610
  H       -0.5326520     2.8176750    -0.0001200
  H       -2.5278290    -1.9594320    -0.8825300
units angstrom
no_reorient  #important for SAPT in psi4, default
symmetry c1  #important for SAPT in psi4, default
}

set PROPERTIES_ORIGIN ["COM"]
properties('MP2/aug-cc-pvtz', properties = ['dipole'])
--------------------------------------------------------------------------

    Molecular point group: c1
  Charge       = 0
  Multiplicity = 1
  Basis Set: AUG-CC-PVTZ
    Blend: AUG-CC-PVTZ
  Basis Set: (AUG-CC-PVTZ AUX)
    Blend: AUG-CC-PVTZ-JKFIT

    Orbital Energies [Eh]
    ---------------------

    Doubly Occupied:

       1A    -15.600167     2A    -11.263259     3A    -11.262418
       4A    -11.233535     5A    -11.229438     6A    -11.221681
       7A    -11.221211     8A    -11.220813     9A    -11.220134
      10A    -11.218756    11A     -1.290893    12A     -1.137217
      13A     -1.071775    14A     -1.007403    15A     -0.983234
      16A     -0.931475    17A     -0.835337    18A     -0.805152
      19A     -0.755379    20A     -0.721355    21A     -0.659294
      22A     -0.637172    23A     -0.609518    24A     -0.592678
      25A     -0.592071    26A     -0.570854    27A     -0.551400
      28A     -0.544458    29A     -0.531297    30A     -0.484336
      31A     -0.471294    32A     -0.468487    33A     -0.375607
      34A     -0.302599    35A     -0.278305

  @DF-RHF Final Energy:  -400.62751432268379

   => Energetics <=

    Nuclear Repulsion Energy =            485.1037267070716439
    One-Electron Energy =               -1503.6624724972225522
    Two-Electron Energy =                 617.9312314674671143
    Total Energy =                       -400.6275143226837372
  Basis Set: (AUG-CC-PVTZ AUX)
    Blend: AUG-CC-PVTZ-RI
    Molecular point group: c1

    Geometry (in Angstrom), charge = 0, multiplicity = 1:

       Center              X                  Y                   Z               Mass
    ------------   -----------------  -----------------  -----------------  -----------------
         C           -2.641572955049    -1.343423069782     0.000144369390    12.000000000000
         C           -0.194136955049    -0.416231069782     0.000218369390    12.000000000000
         C           -1.618446955049    -0.252425069782    -0.000034630610    12.000000000000
         C            0.388221044951     0.881280930218    -0.000152630610    12.000000000000
         C           -1.849893955049     1.105605930218    -0.000065630610    12.000000000000
         C            1.938432644951    -1.302293169782     0.000065569390    12.000000000000
         C            2.582254044951    -0.045376069782    -0.000077630610    12.000000000000
         C            0.653272044951    -1.540211069782    -0.000287630610    12.000000000000
         C            1.773880044951     1.084619930218     0.000294369390    12.000000000000
         N           -0.648411955049     1.786440930218    -0.000103630610    14.003074004430
         H            2.693821044951    -2.203760069782    -0.000359630610     1.007825032230
         H            3.663376044951     0.072614930218     0.000267369390     1.007825032230
         H            0.238204044951    -2.546612069782    -0.000067630610     1.007825032230
         H            2.203828044951     2.084535930218     0.000283369390     1.007825032230
         H           -3.653241955049    -0.926623069782    -0.000194630610     1.007825032230
         H           -2.543733955049    -1.984085069782     0.883282369390     1.007825032230
         H           -2.789319955049     1.645811930218    -0.000362630610     1.007825032230
         H           -0.548223955049     2.792430930218    -0.000121630610     1.007825032230
         H           -2.543400955049    -1.984676069782    -0.882531630610     1.007825032230

  Basis Set: AUG-CC-PVTZ
    Blend: AUG-CC-PVTZ
  Basis Set: (AUG-CC-PVTZ AUX)
    Blend: AUG-CC-PVTZ-JKFIT
	 Reference Energy          =    -400.6275143226837940 [Eh]
	 Singles Energy            =      -0.0000000000000000 [Eh]
	 Same-Spin Energy          =      -0.4519219701025996 [Eh]
	 Opposite-Spin Energy      =      -1.4044477820885310 [Eh]
	 Correlation Energy        =      -1.8563697521911307 [Eh]
	 Total Energy              =    -402.4838840748749362 [Eh]

	 ================> DF-SCS-MP2 Energies <==================
	-----------------------------------------------------------
	 SCS Same-Spin Scale       =       0.3333333333333333 [-]
	 SCS Opposite-Spin Scale   =       1.2000000000000000 [-]
	 SCS Same-Spin Energy      =      -0.1506406567008665 [Eh]
	 SCS Opposite-Spin Energy  =      -1.6853373385062371 [Eh]
	 SCS Correlation Energy    =      -1.8359779952071036 [Eh]
	 SCS Total Energy          =    -402.4634923178908821 [Eh]
	-----------------------------------------------------------

  Dipole Moment: [D]
     X:    -0.9399      Y:     1.8324      Z:    -0.0001     Total:     2.0594

*** Psi4 exiting successfully. Buy a developer a beer!
