                               Psi4 1.4a3.dev225

  ==> Input File <==

--------------------------------------------------------------------------
#psi4
#
memory 32 gb

molecule  {
0 1
  C       -2.6260070    -1.3181640     0.0000030
  C       -0.1785920    -0.3910100    -0.0000140
  C       -1.6028860    -0.2271800    -0.0000070
  C        0.4037990     0.9065080    -0.0000120
  C       -1.8343130     1.1308630     0.0000070
  C        2.0432640    -1.3188820     0.0000040
  C        2.5978420    -0.0201300     0.0000040
  C        0.6688530    -1.5149630     0.0000000
  C        1.7894440     1.1098670     0.0000020
  N       -0.6328500     1.8116730     0.0000060
  H        2.7093900    -2.1785170     0.0000140
  H        3.6292524     0.0924878     0.0000116
  H        0.2538510    -2.5213940    -0.0000090
  H        2.2194160     2.1097700    -0.0000210
  H       -3.6376970    -0.9014040    -0.0000240
  H       -2.5280300    -1.9591080     0.8829250
  H       -2.7737400     1.6710680     0.0000050
  H       -0.5326180     2.8176610     0.0000030
  H       -2.5279980    -1.9591520    -0.8828820
units angstrom
no_reorient  #important for SAPT in psi4, default
symmetry c1  #important for SAPT in psi4, default
}

set PROPERTIES_ORIGIN ["COM"]
properties('MP2/aug-cc-pvtz', properties = ['dipole'])
--------------------------------------------------------------------------

    Molecular point group: c1
  Charge       = 0
  Multiplicity = 1
  Basis Set: AUG-CC-PVTZ
    Blend: AUG-CC-PVTZ
  Basis Set: (AUG-CC-PVTZ AUX)
    Blend: AUG-CC-PVTZ-JKFIT

    Orbital Energies [Eh]
    ---------------------

    Doubly Occupied:

       1A    -15.599746     2A    -11.264955     3A    -11.264407
       4A    -11.231303     5A    -11.230303     6A    -11.223614
       7A    -11.222565     8A    -11.221655     9A    -11.221223
      10A    -11.220534    11A     -1.291492    12A     -1.127127
      13A     -1.072184    14A     -0.997072    15A     -0.987058
      16A     -0.931115    17A     -0.839602    18A     -0.806612
      19A     -0.755608    20A     -0.720868    21A     -0.663339
      22A     -0.645837    23A     -0.603716    24A     -0.592683
      25A     -0.591764    26A     -0.569765    27A     -0.551228
      28A     -0.543102    29A     -0.533165    30A     -0.497667
      31A     -0.476287    32A     -0.462742    33A     -0.374312
      34A     -0.298381    35A     -0.277545

  @DF-RHF Final Energy:  -400.63941560516366

   => Energetics <=

    Nuclear Repulsion Energy =            483.5231230644008633
    One-Electron Energy =               -1500.5039217025755534
    Two-Electron Energy =                 616.3413830330110841
    Total Energy =                       -400.6394156051636628
  Basis Set: (AUG-CC-PVTZ AUX)
    Blend: AUG-CC-PVTZ-RI
    Molecular point group: c1

    Geometry (in Angstrom), charge = 0, multiplicity = 1:

       Center              X                  Y                   Z               Mass
    ------------   -----------------  -----------------  -----------------  -----------------
         C           -2.649367034420    -1.339535040768     0.000003375398    12.000000000000
         C           -0.201952034420    -0.412381040768    -0.000013624602    12.000000000000
         C           -1.626246034420    -0.248551040768    -0.000006624602    12.000000000000
         C            0.380438965580     0.885136959232    -0.000011624602    12.000000000000
         C           -1.857673034420     1.109491959232     0.000007375398    12.000000000000
         C            2.019903965580    -1.340253040768     0.000004375398    12.000000000000
         C            2.574481965580    -0.041501040768     0.000004375398    12.000000000000
         C            0.645492965580    -1.536334040768     0.000000375398    12.000000000000
         C            1.766083965580     1.088495959232     0.000002375398    12.000000000000
         N           -0.656210034420     1.790301959232     0.000006375398    14.003074004430
         H            2.686029965580    -2.199888040768     0.000014375398     1.007825032230
         H            3.605892365580     0.071116759232     0.000011975398     1.007825032230
         H            0.230490965580    -2.542765040768    -0.000008624602     1.007825032230
         H            2.196055965580     2.088398959232    -0.000020624602     1.007825032230
         H           -3.661057034420    -0.922775040768    -0.000023624602     1.007825032230
         H           -2.551390034420    -1.980479040768     0.882925375398     1.007825032230
         H           -2.797100034420     1.649696959232     0.000005375398     1.007825032230
         H           -0.555978034420     2.796289959232     0.000003375398     1.007825032230
         H           -2.551358034420    -1.980523040768    -0.882881624602     1.007825032230

  Basis Set: AUG-CC-PVTZ
    Blend: AUG-CC-PVTZ
  Basis Set: (AUG-CC-PVTZ AUX)
    Blend: AUG-CC-PVTZ-JKFIT
	 Reference Energy          =    -400.6394156051636628 [Eh]
	 Singles Energy            =      -0.0000000000000000 [Eh]
	 Same-Spin Energy          =      -0.4516124500227602 [Eh]
	 Opposite-Spin Energy      =      -1.4038038388031415 [Eh]
	 Correlation Energy        =      -1.8554162888259018 [Eh]
	 Total Energy              =    -402.4948318939895557 [Eh]

	 ================> DF-SCS-MP2 Energies <==================
	-----------------------------------------------------------
	 SCS Same-Spin Scale       =       0.3333333333333333 [-]
	 SCS Opposite-Spin Scale   =       1.2000000000000000 [-]
	 SCS Same-Spin Energy      =      -0.1505374833409201 [Eh]
	 SCS Opposite-Spin Energy  =      -1.6845646065637698 [Eh]
	 SCS Correlation Energy    =      -1.8351020899046899 [Eh]
	 SCS Total Energy          =    -402.4745176950683572 [Eh]
	-----------------------------------------------------------

  Dipole Moment: [D]
     X:    -0.9355      Y:     1.8083      Z:    -0.0000     Total:     2.0360

*** Psi4 exiting successfully. Buy a developer a beer!
