                               Psi4 1.3.2 release

  ==> Input File <==

--------------------------------------------------------------------------
#psi4
#
memory 32 gb

molecule  {
0 1
  C       -2.6260010    -1.3181790     0.0001460
  C       -0.1785650    -0.3909870     0.0002200
  C       -1.6028750    -0.2271810    -0.0000330
  C        0.4037930     0.9065250    -0.0001510
  C       -1.8343220     1.1308500    -0.0000640
  C        2.0432510    -1.3188980     0.0000320
  C        2.5978260    -0.0201320    -0.0000760
  C        0.6688440    -1.5149670    -0.0002860
  C        1.7606065     1.2535909     0.0003404
  N       -0.6328400     1.8116850    -0.0001020
  H        2.7093930    -2.1785160    -0.0003580
  H        3.6789480     0.0978590     0.0002690
  H        0.2537760    -2.5213680    -0.0000660
  H        2.2194000     2.1097800     0.0002850
  H       -3.6376700    -0.9013790    -0.0001930
  H       -2.5281620    -1.9588410     0.8832840
  H       -2.7737480     1.6710560    -0.0003610
  H       -0.5326520     2.8176750    -0.0001200
  H       -2.5278290    -1.9594320    -0.8825300
units angstrom
no_reorient  #important for SAPT in psi4, default
symmetry c1  #important for SAPT in psi4, default
}

set PROPERTIES_ORIGIN ["COM"]
properties('MP2/aug-cc-pvtz', properties = ['dipole'])
--------------------------------------------------------------------------

    Molecular point group: c1
  Charge       = 0
  Multiplicity = 1
  Basis Set: AUG-CC-PVTZ
    Blend: AUG-CC-PVTZ
  Basis Set: (AUG-CC-PVTZ AUX)
    Blend: AUG-CC-PVTZ-JKFIT

    Orbital Energies [Eh]
    ---------------------

    Doubly Occupied:

       1A    -15.594225     2A    -11.270407     3A    -11.265450
       4A    -11.243486     5A    -11.233917     6A    -11.233448
       7A    -11.226328     8A    -11.223108     9A    -11.222710
      10A    -11.221928    11A     -1.291476    12A     -1.117645
      13A     -1.070548    14A     -0.999198    15A     -0.979111
      16A     -0.929173    17A     -0.846777    18A     -0.798513
      19A     -0.762737    20A     -0.720935    21A     -0.670353
      22A     -0.636320    23A     -0.620609    24A     -0.596184
      25A     -0.591384    26A     -0.563765    27A     -0.550923
      28A     -0.543396    29A     -0.520132    30A     -0.490845
      31A     -0.485553    32A     -0.455457    33A     -0.370712
      34A     -0.303108    35A     -0.268582

  @DF-RHF Final Energy:  -400.61008613731428

   => Energetics <=

    Nuclear Repulsion Energy =            481.5802097511253805
    One-Electron Energy =               -1496.5437031129108618
    Two-Electron Energy =                 614.3534072244711979
    Total Energy =                       -400.6100861373142834
  Basis Set: (AUG-CC-PVTZ AUX)
    Blend: AUG-CC-PVTZ-RI
    Molecular point group: c1

    Geometry (in Angstrom), charge = 0, multiplicity = 1:

       Center              X                  Y                   Z               Mass
    ------------   -----------------  -----------------  -----------------  -----------------
         C           -2.647102759349    -1.352750172565     0.000143527115    12.000000000000
         C           -0.199666759349    -0.425558172565     0.000217527115    12.000000000000
         C           -1.623976759349    -0.261752172565    -0.000035472885    12.000000000000
         C            0.382691240651     0.871953827435    -0.000153472885    12.000000000000
         C           -1.855423759349     1.096278827435    -0.000066472885    12.000000000000
         C            2.022149240651    -1.353469172565     0.000029527115    12.000000000000
         C            2.576724240651    -0.054703172565    -0.000078472885    12.000000000000
         C            0.647742240651    -1.549538172565    -0.000288472885    12.000000000000
         C            1.739504740651     1.219019727435     0.000337927115    12.000000000000
         N           -0.653941759349     1.777113827435    -0.000104472885    14.003074004430
         H            2.688291240651    -2.213087172565    -0.000360472885     1.007825032230
         H            3.657846240651     0.063287827435     0.000266527115     1.007825032230
         H            0.232674240651    -2.555939172565    -0.000068472885     1.007825032230
         H            2.198298240651     2.075208827435     0.000282527115     1.007825032230
         H           -3.658771759349    -0.935950172565    -0.000195472885     1.007825032230
         H           -2.549263759349    -1.993412172565     0.883281527115     1.007825032230
         H           -2.794849759349     1.636484827435    -0.000363472885     1.007825032230
         H           -0.553753759349     2.783103827435    -0.000122472885     1.007825032230
         H           -2.548930759349    -1.994003172565    -0.882532472885     1.007825032230

  Basis Set: AUG-CC-PVTZ
    Blend: AUG-CC-PVTZ
  Basis Set: (AUG-CC-PVTZ AUX)
    Blend: AUG-CC-PVTZ-JKFIT
	 Reference Energy          =    -400.6100861373142834 [Eh]
	 Singles Energy            =      -0.0000000000000000 [Eh]
	 Same-Spin Energy          =      -0.4523007308182558 [Eh]
	 Opposite-Spin Energy      =      -1.4066421464008321 [Eh]
	 Correlation Energy        =      -1.8589428772190879 [Eh]
	 Total Energy              =    -402.4690290145333620 [Eh]

	 ================> DF-SCS-MP2 Energies <==================
	-----------------------------------------------------------
	 SCS Same-Spin Scale       =       0.3333333333333333 [-]
	 SCS Opposite-Spin Scale   =       1.2000000000000000 [-]
	 SCS Same-Spin Energy      =      -0.1507669102727519 [Eh]
	 SCS Opposite-Spin Energy  =      -1.6879705756809984 [Eh]
	 SCS Correlation Energy    =      -1.8387374859537504 [Eh]
	 SCS Total Energy          =    -402.4488236232680265 [Eh]
	-----------------------------------------------------------

  Dipole Moment: [D]
     X:    -1.0134      Y:     1.7853      Z:    -0.0001     Total:     2.0529

*** Psi4 exiting successfully. Buy a developer a beer!
