                               Psi4 1.3.2 release

  ==> Input File <==

--------------------------------------------------------------------------
#psi4
#
memory 32 gb

molecule  {
0 1
  C       -2.6260010    -1.3181790     0.0001460
  C       -0.1785650    -0.3909870     0.0002200
  C       -1.6028750    -0.2271810    -0.0000330
  C        0.4037930     0.9065250    -0.0001510
  C       -1.8343220     1.1308500    -0.0000640
  C        2.0432510    -1.3188980     0.0000320
  C        2.5978260    -0.0201320    -0.0000760
  C        0.6688440    -1.5149670    -0.0002860
  C        1.7894520     1.1098640     0.0002960
  N       -0.6328400     1.8116850    -0.0001020
  H        2.5868858    -2.0204275    -0.0002863
  H        3.6789480     0.0978590     0.0002690
  H        0.2537760    -2.5213680    -0.0000660
  H        2.2194000     2.1097800     0.0002850
  H       -3.6376700    -0.9013790    -0.0001930
  H       -2.5281620    -1.9588410     0.8832840
  H       -2.7737480     1.6710560    -0.0003610
  H       -0.5326520     2.8176750    -0.0001200
  H       -2.5278290    -1.9594320    -0.8825300
units angstrom
no_reorient  #important for SAPT in psi4, default
symmetry c1  #important for SAPT in psi4, default
}

set PROPERTIES_ORIGIN ["COM"]
properties('MP2/aug-cc-pvtz', properties = ['dipole'])
--------------------------------------------------------------------------

    Molecular point group: c1
  Charge       = 0
  Multiplicity = 1
  Basis Set: AUG-CC-PVTZ
    Blend: AUG-CC-PVTZ
  Basis Set: (AUG-CC-PVTZ AUX)
    Blend: AUG-CC-PVTZ-JKFIT

    Orbital Energies [Eh]
    ---------------------

    Doubly Occupied:

       1A    -15.599482     2A    -11.264783     3A    -11.263977
       4A    -11.230708     5A    -11.229390     6A    -11.228043
       7A    -11.222050     8A    -11.221187     9A    -11.220670
      10A    -11.196702    11A     -1.291163    12A     -1.128562
      13A     -1.071661    14A     -1.004770    15A     -0.987017
      16A     -0.930526    17A     -0.848071    18A     -0.810047
      19A     -0.759855    20A     -0.719945    21A     -0.676758
      22A     -0.652889    23A     -0.603040    24A     -0.594433
      25A     -0.591416    26A     -0.569484    27A     -0.550983
      28A     -0.545046    29A     -0.532442    30A     -0.506979
      31A     -0.474948    32A     -0.462093    33A     -0.373765
      34A     -0.298170    35A     -0.277008

  @DF-RHF Final Energy:  -400.60560016867993

   => Energetics <=

    Nuclear Repulsion Energy =            484.4317846661152771
    One-Electron Energy =               -1502.1986496718363924
    Two-Electron Energy =                 617.1612648370412444
    Total Energy =                       -400.6056001686798709
  Basis Set: (AUG-CC-PVTZ AUX)
    Blend: AUG-CC-PVTZ-RI
    Molecular point group: c1

    Geometry (in Angstrom), charge = 0, multiplicity = 1:

       Center              X                  Y                   Z               Mass
    ------------   -----------------  -----------------  -----------------  -----------------
         C           -2.648801654842    -1.340807275939     0.000147040708    12.000000000000
         C           -0.201365654842    -0.413615275939     0.000221040708    12.000000000000
         C           -1.625675654842    -0.249809275939    -0.000031959292    12.000000000000
         C            0.380992345158     0.883896724061    -0.000149959292    12.000000000000
         C           -1.857122654842     1.108221724061    -0.000062959292    12.000000000000
         C            2.020450345158    -1.341526275939     0.000033040708    12.000000000000
         C            2.575025345158    -0.042760275939    -0.000074959292    12.000000000000
         C            0.646043345158    -1.537595275939    -0.000284959292    12.000000000000
         C            1.766651345158     1.087235724061     0.000297040708    12.000000000000
         N           -0.655640654842     1.789056724061    -0.000100959292    14.003074004430
         H            2.564085145158    -2.043055775939    -0.000285259292     1.007825032230
         H            3.656147345158     0.075230724061     0.000270040708     1.007825032230
         H            0.230975345158    -2.543996275939    -0.000064959292     1.007825032230
         H            2.196599345158     2.087151724061     0.000286040708     1.007825032230
         H           -3.660470654842    -0.924007275939    -0.000191959292     1.007825032230
         H           -2.550962654842    -1.981469275939     0.883285040708     1.007825032230
         H           -2.796548654842     1.648427724061    -0.000359959292     1.007825032230
         H           -0.555452654842     2.795046724061    -0.000118959292     1.007825032230
         H           -2.550629654842    -1.982060275939    -0.882528959292     1.007825032230

  Basis Set: AUG-CC-PVTZ
    Blend: AUG-CC-PVTZ
  Basis Set: (AUG-CC-PVTZ AUX)
    Blend: AUG-CC-PVTZ-JKFIT
	 Reference Energy          =    -400.6056001686799277 [Eh]
	 Singles Energy            =      -0.0000000000000000 [Eh]
	 Same-Spin Energy          =      -0.4515204429788832 [Eh]
	 Opposite-Spin Energy      =      -1.4035513827328985 [Eh]
	 Correlation Energy        =      -1.8550718257117818 [Eh]
	 Total Energy              =    -402.4606719943917028 [Eh]

	 ================> DF-SCS-MP2 Energies <==================
	-----------------------------------------------------------
	 SCS Same-Spin Scale       =       0.3333333333333333 [-]
	 SCS Opposite-Spin Scale   =       1.2000000000000000 [-]
	 SCS Same-Spin Energy      =      -0.1505068143262944 [Eh]
	 SCS Opposite-Spin Energy  =      -1.6842616592794781 [Eh]
	 SCS Correlation Energy    =      -1.8347684736057726 [Eh]
	 SCS Total Energy          =    -402.4403686422857049 [Eh]
	-----------------------------------------------------------

  Dipole Moment: [D]
     X:    -0.9169      Y:     1.7562      Z:    -0.0001     Total:     1.9811

*** Psi4 exiting successfully. Buy a developer a beer!
