                               Psi4 1.3.2 release

  ==> Input File <==

--------------------------------------------------------------------------
#psi4
#
memory 32 gb

molecule  {
0 1
  C       -2.6260010    -1.3181790     0.0001460
  C       -0.1785650    -0.3909870     0.0002200
  C       -1.6028750    -0.2271810    -0.0000330
  C        0.4037930     0.9065250    -0.0001510
  C       -1.8343220     1.1308500    -0.0000640
  C        2.0432510    -1.3188980     0.0000320
  C        2.5750749    -0.0106511    -0.0000837
  C        0.6688440    -1.5149670    -0.0002860
  C        1.7894520     1.1098640     0.0002960
  N       -0.6328400     1.8116850    -0.0001020
  H        2.7093930    -2.1785160    -0.0003580
  H        3.6789480     0.0978590     0.0002690
  H        0.2537760    -2.5213680    -0.0000660
  H        2.2194000     2.1097800     0.0002850
  H       -3.6376700    -0.9013790    -0.0001930
  H       -2.5281620    -1.9588410     0.8832840
  H       -2.7737480     1.6710560    -0.0003610
  H       -0.5326520     2.8176750    -0.0001200
  H       -2.5278290    -1.9594320    -0.8825300
units angstrom
no_reorient  #important for SAPT in psi4, default
symmetry c1  #important for SAPT in psi4, default
}

set PROPERTIES_ORIGIN ["COM"]
properties('MP2/aug-cc-pvtz', properties = ['dipole'])
--------------------------------------------------------------------------

    Molecular point group: c1
  Charge       = 0
  Multiplicity = 1
  Basis Set: AUG-CC-PVTZ
    Blend: AUG-CC-PVTZ
  Basis Set: (AUG-CC-PVTZ AUX)
    Blend: AUG-CC-PVTZ-JKFIT

    Orbital Energies [Eh]
    ---------------------

    Doubly Occupied:

       1A    -15.600088     2A    -11.265129     3A    -11.263706
       4A    -11.230813     5A    -11.230118     6A    -11.228693
       7A    -11.222475     8A    -11.221411     9A    -11.221005
      10A    -11.220741    11A     -1.291558    12A     -1.129198
      13A     -1.072658    14A     -0.999041    15A     -0.985250
      16A     -0.930850    17A     -0.838768    18A     -0.803006
      19A     -0.755999    20A     -0.720228    21A     -0.658147
      22A     -0.645009    23A     -0.603612    24A     -0.594146
      25A     -0.591967    26A     -0.569703    27A     -0.551420
      28A     -0.541857    29A     -0.526207    30A     -0.499564
      31A     -0.473919    32A     -0.464585    33A     -0.375697
      34A     -0.298122    35A     -0.278753

  @DF-RHF Final Energy:  -400.63963931067178

   => Energetics <=

    Nuclear Repulsion Energy =            483.7000319839675626
    One-Electron Energy =               -1500.8724596119870967
    Two-Electron Energy =                 616.5327883173476948
    Total Energy =                       -400.6396393106717824
  Basis Set: (AUG-CC-PVTZ AUX)
    Blend: AUG-CC-PVTZ-RI
    Molecular point group: c1

    Geometry (in Angstrom), charge = 0, multiplicity = 1:

       Center              X                  Y                   Z               Mass
    ------------   -----------------  -----------------  -----------------  -----------------
         C           -2.647660711951    -1.340459724773     0.000148296958    12.000000000000
         C           -0.200224711951    -0.413267724773     0.000222296958    12.000000000000
         C           -1.624534711951    -0.249461724773    -0.000030703042    12.000000000000
         C            0.382133288049     0.884244275227    -0.000148703042    12.000000000000
         C           -1.855981711951     1.108569275227    -0.000061703042    12.000000000000
         C            2.021591288049    -1.341178724773     0.000034296958    12.000000000000
         C            2.553415188049    -0.032931824773    -0.000081403042    12.000000000000
         C            0.647184288049    -1.537247724773    -0.000283703042    12.000000000000
         C            1.767792288049     1.087583275227     0.000298296958    12.000000000000
         N           -0.654499711951     1.789404275227    -0.000099703042    14.003074004430
         H            2.687733288049    -2.200796724773    -0.000355703042     1.007825032230
         H            3.657288288049     0.075578275227     0.000271296958     1.007825032230
         H            0.232116288049    -2.543648724773    -0.000063703042     1.007825032230
         H            2.197740288049     2.087499275227     0.000287296958     1.007825032230
         H           -3.659329711951    -0.923659724773    -0.000190703042     1.007825032230
         H           -2.549821711951    -1.981121724773     0.883286296958     1.007825032230
         H           -2.795407711951     1.648775275227    -0.000358703042     1.007825032230
         H           -0.554311711951     2.795394275227    -0.000117703042     1.007825032230
         H           -2.549488711951    -1.981712724773    -0.882527703042     1.007825032230

  Basis Set: AUG-CC-PVTZ
    Blend: AUG-CC-PVTZ
  Basis Set: (AUG-CC-PVTZ AUX)
    Blend: AUG-CC-PVTZ-JKFIT
	 Reference Energy          =    -400.6396393106717824 [Eh]
	 Singles Energy            =      -0.0000000000000000 [Eh]
	 Same-Spin Energy          =      -0.4516470706127476 [Eh]
	 Opposite-Spin Energy      =      -1.4040169272127905 [Eh]
	 Correlation Energy        =      -1.8556639978255380 [Eh]
	 Total Energy              =    -402.4953033084973413 [Eh]

	 ================> DF-SCS-MP2 Energies <==================
	-----------------------------------------------------------
	 SCS Same-Spin Scale       =       0.3333333333333333 [-]
	 SCS Opposite-Spin Scale   =       1.2000000000000000 [-]
	 SCS Same-Spin Energy      =      -0.1505490235375825 [Eh]
	 SCS Opposite-Spin Energy  =      -1.6848203126553485 [Eh]
	 SCS Correlation Energy    =      -1.8353693361929311 [Eh]
	 SCS Total Energy          =    -402.4750086468646941 [Eh]
	-----------------------------------------------------------

  Dipole Moment: [D]
     X:    -0.9478      Y:     1.8037      Z:    -0.0001     Total:     2.0376

*** Psi4 exiting successfully. Buy a developer a beer!
