                               Psi4 1.3.2 release

  ==> Input File <==

--------------------------------------------------------------------------
#psi4
#
memory 32 gb

molecule  {
0 1
  C       -2.6260010    -1.3181790     0.0001460
  C       -0.1588198    -0.3763689     0.0002312
  C       -1.6028750    -0.2271810    -0.0000330
  C        0.4037930     0.9065250    -0.0001510
  C       -1.8343220     1.1308500    -0.0000640
  C        2.0432510    -1.3188980     0.0000320
  C        2.5978260    -0.0201320    -0.0000760
  C        0.6688440    -1.5149670    -0.0002860
  C        1.7894520     1.1098640     0.0002960
  N       -0.6328400     1.8116850    -0.0001020
  H        2.7093930    -2.1785160    -0.0003580
  H        3.6789480     0.0978590     0.0002690
  H        0.2537760    -2.5213680    -0.0000660
  H        2.2194000     2.1097800     0.0002850
  H       -3.6376700    -0.9013790    -0.0001930
  H       -2.5281620    -1.9588410     0.8832840
  H       -2.7737480     1.6710560    -0.0003610
  H       -0.5326520     2.8176750    -0.0001200
  H       -2.5278290    -1.9594320    -0.8825300
units angstrom
no_reorient  #important for SAPT in psi4, default
symmetry c1  #important for SAPT in psi4, default
}

set PROPERTIES_ORIGIN ["COM"]
properties('MP2/aug-cc-pvtz', properties = ['dipole'])
--------------------------------------------------------------------------

    Molecular point group: c1
  Charge       = 0
  Multiplicity = 1
  Basis Set: AUG-CC-PVTZ
    Blend: AUG-CC-PVTZ
  Basis Set: (AUG-CC-PVTZ AUX)
    Blend: AUG-CC-PVTZ-JKFIT

    Orbital Energies [Eh]
    ---------------------

    Doubly Occupied:

       1A    -15.598275     2A    -11.263785     3A    -11.263188
       4A    -11.232115     5A    -11.230847     6A    -11.229533
       7A    -11.223000     8A    -11.221656     9A    -11.221219
      10A    -11.220943    11A     -1.291488    12A     -1.128388
      13A     -1.069473    14A     -0.997771    15A     -0.987338
      16A     -0.930239    17A     -0.839385    18A     -0.802003
      19A     -0.756494    20A     -0.720029    21A     -0.658085
      22A     -0.644323    23A     -0.603702    24A     -0.595155
      25A     -0.591781    26A     -0.568975    27A     -0.551574
      28A     -0.542157    29A     -0.529562    30A     -0.496660
      31A     -0.476582    32A     -0.463595    33A     -0.371926
      34A     -0.300131    35A     -0.278658

  @DF-RHF Final Energy:  -400.64045042695113

   => Energetics <=

    Nuclear Repulsion Energy =            483.4161212880802623
    One-Electron Energy =               -1500.3130737643862176
    Two-Electron Energy =                 616.2565020493548218
    Total Energy =                       -400.6404504269511335
  Basis Set: (AUG-CC-PVTZ AUX)
    Blend: AUG-CC-PVTZ-RI
    Molecular point group: c1

    Geometry (in Angstrom), charge = 0, multiplicity = 1:

       Center              X                  Y                   Z               Mass
    ------------   -----------------  -----------------  -----------------  -----------------
         C           -2.651551319913    -1.340930044100     0.000146566631    12.000000000000
         C           -0.184370119913    -0.399119944100     0.000231766631    12.000000000000
         C           -1.628425319913    -0.249932044100    -0.000032433369    12.000000000000
         C            0.378242680087     0.883773955900    -0.000150433369    12.000000000000
         C           -1.859872319913     1.108098955900    -0.000063433369    12.000000000000
         C            2.017700680087    -1.341649044100     0.000032566631    12.000000000000
         C            2.572275680087    -0.042883044100    -0.000075433369    12.000000000000
         C            0.643293680087    -1.537718044100    -0.000285433369    12.000000000000
         C            1.763901680087     1.087112955900     0.000296566631    12.000000000000
         N           -0.658390319913     1.788933955900    -0.000101433369    14.003074004430
         H            2.683842680087    -2.201267044100    -0.000357433369     1.007825032230
         H            3.653397680087     0.075107955900     0.000269566631     1.007825032230
         H            0.228225680087    -2.544119044100    -0.000065433369     1.007825032230
         H            2.193849680087     2.087028955900     0.000285566631     1.007825032230
         H           -3.663220319913    -0.924130044100    -0.000192433369     1.007825032230
         H           -2.553712319913    -1.981592044100     0.883284566631     1.007825032230
         H           -2.799298319913     1.648304955900    -0.000360433369     1.007825032230
         H           -0.558202319913     2.794923955900    -0.000119433369     1.007825032230
         H           -2.553379319913    -1.982183044100    -0.882529433369     1.007825032230

  Basis Set: AUG-CC-PVTZ
    Blend: AUG-CC-PVTZ
  Basis Set: (AUG-CC-PVTZ AUX)
    Blend: AUG-CC-PVTZ-JKFIT
	 Reference Energy          =    -400.6404504269511335 [Eh]
	 Singles Energy            =      -0.0000000000000000 [Eh]
	 Same-Spin Energy          =      -0.4512728256790542 [Eh]
	 Opposite-Spin Energy      =      -1.4037072599256242 [Eh]
	 Correlation Energy        =      -1.8549800856046783 [Eh]
	 Total Energy              =    -402.4954305125557994 [Eh]

	 ================> DF-SCS-MP2 Energies <==================
	-----------------------------------------------------------
	 SCS Same-Spin Scale       =       0.3333333333333333 [-]
	 SCS Opposite-Spin Scale   =       1.2000000000000000 [-]
	 SCS Same-Spin Energy      =      -0.1504242752263514 [Eh]
	 SCS Opposite-Spin Energy  =      -1.6844487119107490 [Eh]
	 SCS Correlation Energy    =      -1.8348729871371003 [Eh]
	 SCS Total Energy          =    -402.4753234140882228 [Eh]
	-----------------------------------------------------------

  Dipole Moment: [D]
     X:    -0.9243      Y:     1.7591      Z:    -0.0001     Total:     1.9872

*** Psi4 exiting successfully. Buy a developer a beer!
