                               Psi4 1.3.2 release

  ==> Input File <==

--------------------------------------------------------------------------
#psi4
#
memory 32 gb

molecule  {
0 1
  C       -2.6260010    -1.3181790     0.0001460
  C       -0.1785650    -0.3909870     0.0002200
  C       -1.6028750    -0.2271810    -0.0000330
  C        0.3118646     0.9439876    -0.0000952
  C       -1.8343220     1.1308500    -0.0000640
  C        2.0432510    -1.3188980     0.0000320
  C        2.5978260    -0.0201320    -0.0000760
  C        0.6688440    -1.5149670    -0.0002860
  C        1.7894520     1.1098640     0.0002960
  N       -0.6328400     1.8116850    -0.0001020
  H        2.7093930    -2.1785160    -0.0003580
  H        3.6789480     0.0978590     0.0002690
  H        0.2537760    -2.5213680    -0.0000660
  H        2.2194000     2.1097800     0.0002850
  H       -3.6376700    -0.9013790    -0.0001930
  H       -2.5281620    -1.9588410     0.8832840
  H       -2.7737480     1.6710560    -0.0003610
  H       -0.5326520     2.8176750    -0.0001200
  H       -2.5278290    -1.9594320    -0.8825300
units angstrom
no_reorient  #important for SAPT in psi4, default
symmetry c1  #important for SAPT in psi4, default
}

set PROPERTIES_ORIGIN ["COM"]
properties('MP2/aug-cc-pvtz', properties = ['dipole'])
--------------------------------------------------------------------------

    Molecular point group: c1
  Charge       = 0
  Multiplicity = 1
  Basis Set: AUG-CC-PVTZ
    Blend: AUG-CC-PVTZ
  Basis Set: (AUG-CC-PVTZ AUX)
    Blend: AUG-CC-PVTZ-JKFIT

    Orbital Energies [Eh]
    ---------------------

    Doubly Occupied:

       1A    -15.607540     2A    -11.267007     3A    -11.258702
       4A    -11.236401     5A    -11.231742     6A    -11.229890
       7A    -11.225200     8A    -11.221676     9A    -11.217701
      10A    -11.216331    11A     -1.324679    12A     -1.120947
      13A     -1.074065    14A     -0.988047    15A     -0.985426
      16A     -0.937333    17A     -0.846272    18A     -0.798447
      19A     -0.755995    20A     -0.729793    21A     -0.670584
      22A     -0.642986    23A     -0.604236    24A     -0.599379
      25A     -0.590248    26A     -0.566007    27A     -0.556879
      28A     -0.542855    29A     -0.530676    30A     -0.498934
      31A     -0.464080    32A     -0.460341    33A     -0.373799
      34A     -0.286965    35A     -0.284005

  @DF-RHF Final Energy:  -400.62598471435820

   => Energetics <=

    Nuclear Repulsion Energy =            483.6472682014200473
    One-Electron Energy =               -1500.6561673399112351
    Two-Electron Energy =                 616.3829144241329914
    Total Energy =                       -400.6259847143581965
  Basis Set: (AUG-CC-PVTZ AUX)
    Blend: AUG-CC-PVTZ-RI
    Molecular point group: c1

    Geometry (in Angstrom), charge = 0, multiplicity = 1:

       Center              X                  Y                   Z               Mass
    ------------   -----------------  -----------------  -----------------  -----------------
         C           -2.641327413424    -1.343021496617     0.000142483426    12.000000000000
         C           -0.193891413424    -0.415829496617     0.000216483426    12.000000000000
         C           -1.618201413424    -0.252023496617    -0.000036516574    12.000000000000
         C            0.296538186576     0.919145103383    -0.000098716574    12.000000000000
         C           -1.849648413424     1.106007503383    -0.000067516574    12.000000000000
         C            2.027924586576    -1.343740496617     0.000028483426    12.000000000000
         C            2.582499586576    -0.044974496617    -0.000079516574    12.000000000000
         C            0.653517586576    -1.539809496617    -0.000289516574    12.000000000000
         C            1.774125586576     1.085021503383     0.000292483426    12.000000000000
         N           -0.648166413424     1.786842503383    -0.000105516574    14.003074004430
         H            2.694066586576    -2.203358496617    -0.000361516574     1.007825032230
         H            3.663621586576     0.073016503383     0.000265483426     1.007825032230
         H            0.238449586576    -2.546210496617    -0.000069516574     1.007825032230
         H            2.204073586576     2.084937503383     0.000281483426     1.007825032230
         H           -3.652996413424    -0.926221496617    -0.000196516574     1.007825032230
         H           -2.543488413424    -1.983683496617     0.883280483426     1.007825032230
         H           -2.789074413424     1.646213503383    -0.000364516574     1.007825032230
         H           -0.547978413424     2.792832503383    -0.000123516574     1.007825032230
         H           -2.543155413424    -1.984274496617    -0.882533516574     1.007825032230

  Basis Set: AUG-CC-PVTZ
    Blend: AUG-CC-PVTZ
  Basis Set: (AUG-CC-PVTZ AUX)
    Blend: AUG-CC-PVTZ-JKFIT
	 Reference Energy          =    -400.6259847143581965 [Eh]
	 Singles Energy            =      -0.0000000000000000 [Eh]
	 Same-Spin Energy          =      -0.4516543826689919 [Eh]
	 Opposite-Spin Energy      =      -1.4042365073095657 [Eh]
	 Correlation Energy        =      -1.8558908899785576 [Eh]
	 Total Energy              =    -402.4818756043367785 [Eh]

	 ================> DF-SCS-MP2 Energies <==================
	-----------------------------------------------------------
	 SCS Same-Spin Scale       =       0.3333333333333333 [-]
	 SCS Opposite-Spin Scale   =       1.2000000000000000 [-]
	 SCS Same-Spin Energy      =      -0.1505514608896640 [Eh]
	 SCS Opposite-Spin Energy  =      -1.6850838087714788 [Eh]
	 SCS Correlation Energy    =      -1.8356352696611427 [Eh]
	 SCS Total Energy          =    -402.4616199840193644 [Eh]
	-----------------------------------------------------------

  Dipole Moment: [D]
     X:    -1.1134      Y:     1.9973      Z:    -0.0001     Total:     2.2867

*** Psi4 exiting successfully. Buy a developer a beer!
