                               Psi4 1.4a3.dev225

  ==> Input File <==

--------------------------------------------------------------------------
#psi4
#
memory 32 gb

molecule  {
0 1
  C       -2.6260070    -1.3181640     0.0000030
  C       -0.1785920    -0.3910100    -0.0000140
  C       -1.6028860    -0.2271800    -0.0000070
  C        0.4037990     0.9065080    -0.0000120
  C       -1.8343130     1.1308630     0.0000070
  C        2.0432640    -1.3188820     0.0000040
  C        2.5978420    -0.0201300     0.0000040
  C        0.6688530    -1.5149630     0.0000000
  C        1.7894440     1.1098670     0.0000020
  N       -0.6328500     1.8116730     0.0000060
  H        2.7093900    -2.1785170     0.0000140
  H        3.6789570     0.0979150     0.0000120
  H        0.2538510    -2.5213940    -0.0000090
  H        2.2391679     2.1557032    -0.0000221
  H       -3.6376970    -0.9014040    -0.0000240
  H       -2.5280300    -1.9591080     0.8829250
  H       -2.7737400     1.6710680     0.0000050
  H       -0.5326180     2.8176610     0.0000030
  H       -2.5279980    -1.9591520    -0.8828820
units angstrom
no_reorient  #important for SAPT in psi4, default
symmetry c1  #important for SAPT in psi4, default
}

set PROPERTIES_ORIGIN ["COM"]
properties('MP2/aug-cc-pvtz', properties = ['dipole'])
--------------------------------------------------------------------------

    Molecular point group: c1
  Charge       = 0
  Multiplicity = 1
  Basis Set: AUG-CC-PVTZ
    Blend: AUG-CC-PVTZ
  Basis Set: (AUG-CC-PVTZ AUX)
    Blend: AUG-CC-PVTZ-JKFIT

    Orbital Energies [Eh]
    ---------------------

    Doubly Occupied:

       1A    -15.600036     2A    -11.265820     3A    -11.264721
       4A    -11.237537     5A    -11.230847     6A    -11.230053
       7A    -11.222980     8A    -11.222094     9A    -11.221517
      10A    -11.221442    11A     -1.291814    12A     -1.127098
      13A     -1.071947    14A     -0.996319    15A     -0.985920
      16A     -0.931078    17A     -0.837468    18A     -0.804189
      19A     -0.754183    20A     -0.719039    21A     -0.658816
      22A     -0.643534    23A     -0.601549    24A     -0.592118
      25A     -0.588943    26A     -0.569957    27A     -0.551523
      28A     -0.542308    29A     -0.530002    30A     -0.497546
      31A     -0.474131    32A     -0.463358    33A     -0.374779
      34A     -0.298938    35A     -0.277921

  @DF-RHF Final Energy:  -400.63769699479536

   => Energetics <=

    Nuclear Repulsion Energy =            483.0056662062332862
    One-Electron Energy =               -1499.4836739799200132
    Two-Electron Energy =                 615.8403107788913076
    Total Energy =                       -400.6376969947954194
  Basis Set: (AUG-CC-PVTZ AUX)
    Blend: AUG-CC-PVTZ-RI
    Molecular point group: c1

    Geometry (in Angstrom), charge = 0, multiplicity = 1:

       Center              X                  Y                   Z               Mass
    ------------   -----------------  -----------------  -----------------  -----------------
         C           -2.649901085924    -1.339929951235     0.000003380780    12.000000000000
         C           -0.202486085924    -0.412775951235    -0.000013619220    12.000000000000
         C           -1.626780085924    -0.248945951235    -0.000006619220    12.000000000000
         C            0.379904914076     0.884742048765    -0.000011619220    12.000000000000
         C           -1.858207085924     1.109097048765     0.000007380780    12.000000000000
         C            2.019369914076    -1.340647951235     0.000004380780    12.000000000000
         C            2.573947914076    -0.041895951235     0.000004380780    12.000000000000
         C            0.644958914076    -1.536728951235     0.000000380780    12.000000000000
         C            1.765549914076     1.088101048765     0.000002380780    12.000000000000
         N           -0.656744085924     1.789907048765     0.000006380780    14.003074004430
         H            2.685495914076    -2.200282951235     0.000014380780     1.007825032230
         H            3.655062914076     0.076149048765     0.000012380780     1.007825032230
         H            0.229956914076    -2.543159951235    -0.000008619220     1.007825032230
         H            2.215273814076     2.133937248765    -0.000021719220     1.007825032230
         H           -3.661591085924    -0.923169951235    -0.000023619220     1.007825032230
         H           -2.551924085924    -1.980873951235     0.882925380780     1.007825032230
         H           -2.797634085924     1.649302048765     0.000005380780     1.007825032230
         H           -0.556512085924     2.795895048765     0.000003380780     1.007825032230
         H           -2.551892085924    -1.980917951235    -0.882881619220     1.007825032230

  Basis Set: AUG-CC-PVTZ
    Blend: AUG-CC-PVTZ
  Basis Set: (AUG-CC-PVTZ AUX)
    Blend: AUG-CC-PVTZ-JKFIT
	 Reference Energy          =    -400.6376969947953626 [Eh]
	 Singles Energy            =      -0.0000000000000000 [Eh]
	 Same-Spin Energy          =      -0.4518041485620568 [Eh]
	 Opposite-Spin Energy      =      -1.4045571578941671 [Eh]
	 Correlation Energy        =      -1.8563613064562239 [Eh]
	 Total Energy              =    -402.4940583012515845 [Eh]

	 ================> DF-SCS-MP2 Energies <==================
	-----------------------------------------------------------
	 SCS Same-Spin Scale       =       0.3333333333333333 [-]
	 SCS Opposite-Spin Scale   =       1.2000000000000000 [-]
	 SCS Same-Spin Energy      =      -0.1506013828540189 [Eh]
	 SCS Opposite-Spin Energy  =      -1.6854685894730006 [Eh]
	 SCS Correlation Energy    =      -1.8360699723270195 [Eh]
	 SCS Total Energy          =    -402.4737669671224012 [Eh]
	-----------------------------------------------------------

  Dipole Moment: [D]
     X:    -0.9692      Y:     1.7845      Z:    -0.0000     Total:     2.0307

*** Psi4 exiting successfully. Buy a developer a beer!
