                               Psi4 1.4a3.dev225

  ==> Input File <==

--------------------------------------------------------------------------
#psi4
#
memory 32 gb

molecule  {
0 1
  C       -2.6260070    -1.3181640     0.0000030
  C       -0.1785920    -0.3910100    -0.0000140
  C       -1.6028860    -0.2271800    -0.0000070
  C        0.4037990     0.9065080    -0.0000120
  C       -1.8343130     1.1308630     0.0000070
  C        2.0432640    -1.3188820     0.0000040
  C        2.5978420    -0.0201300     0.0000040
  C        0.6688530    -1.5149630     0.0000000
  C        1.7894440     1.1098670     0.0000020
  N       -0.6328500     1.8116730     0.0000060
  H        2.7093900    -2.1785170     0.0000140
  H        3.7286616     0.1033422     0.0000124
  H        0.2538510    -2.5213940    -0.0000090
  H        2.2194160     2.1097700    -0.0000210
  H       -3.6376970    -0.9014040    -0.0000240
  H       -2.5280300    -1.9591080     0.8829250
  H       -2.7737400     1.6710680     0.0000050
  H       -0.5326180     2.8176610     0.0000030
  H       -2.5279980    -1.9591520    -0.8828820
units angstrom
no_reorient  #important for SAPT in psi4, default
symmetry c1  #important for SAPT in psi4, default
}

set PROPERTIES_ORIGIN ["COM"]
properties('MP2/aug-cc-pvtz', properties = ['dipole'])
--------------------------------------------------------------------------

    Molecular point group: c1
  Charge       = 0
  Multiplicity = 1
  Basis Set: AUG-CC-PVTZ
    Blend: AUG-CC-PVTZ
  Basis Set: (AUG-CC-PVTZ AUX)
    Blend: AUG-CC-PVTZ-JKFIT

    Orbital Energies [Eh]
    ---------------------

    Doubly Occupied:

       1A    -15.600174     2A    -11.265640     3A    -11.264721
       4A    -11.235577     5A    -11.232068     6A    -11.231019
       7A    -11.222917     8A    -11.222005     9A    -11.221601
      10A    -11.221508    11A     -1.291910    12A     -1.126997
      13A     -1.072143    14A     -0.997630    15A     -0.984645
      16A     -0.930846    17A     -0.838647    18A     -0.801665
      19A     -0.756038    20A     -0.719439    21A     -0.657554
      22A     -0.642870    23A     -0.603327    24A     -0.592746
      25A     -0.592153    26A     -0.569706    27A     -0.551557
      28A     -0.541947    29A     -0.525482    30A     -0.497564
      31A     -0.474999    32A     -0.463424    33A     -0.374806
      34A     -0.298938    35A     -0.277954

  @DF-RHF Final Energy:  -400.63772843911028

   => Energetics <=

    Nuclear Repulsion Energy =            483.0081030011763232
    One-Electron Energy =               -1499.4872286749102841
    Two-Electron Energy =                 615.8413972346237415
    Total Energy =                       -400.6377284391102194
  Basis Set: (AUG-CC-PVTZ AUX)
    Blend: AUG-CC-PVTZ-RI
    Molecular point group: c1

    Geometry (in Angstrom), charge = 0, multiplicity = 1:

       Center              X                  Y                   Z               Mass
    ------------   -----------------  -----------------  -----------------  -----------------
         C           -2.650131392439    -1.339618500324     0.000003369247    12.000000000000
         C           -0.202716392439    -0.412464500324    -0.000013630753    12.000000000000
         C           -1.627010392439    -0.248634500324    -0.000006630753    12.000000000000
         C            0.379674607561     0.885053499676    -0.000011630753    12.000000000000
         C           -1.858437392439     1.109408499676     0.000007369247    12.000000000000
         C            2.019139607561    -1.340336500324     0.000004369247    12.000000000000
         C            2.573717607561    -0.041584500324     0.000004369247    12.000000000000
         C            0.644728607561    -1.536417500324     0.000000369247    12.000000000000
         C            1.765319607561     1.088412499676     0.000002369247    12.000000000000
         N           -0.656974392439     1.790218499676     0.000006369247    14.003074004430
         H            2.685265607561    -2.199971500324     0.000014369247     1.007825032230
         H            3.704537207561     0.081887699676     0.000012769247     1.007825032230
         H            0.229726607561    -2.542848500324    -0.000008630753     1.007825032230
         H            2.195291607561     2.088315499676    -0.000020630753     1.007825032230
         H           -3.661821392439    -0.922858500324    -0.000023630753     1.007825032230
         H           -2.552154392439    -1.980562500324     0.882925369247     1.007825032230
         H           -2.797864392439     1.649613499676     0.000005369247     1.007825032230
         H           -0.556742392439     2.796206499676     0.000003369247     1.007825032230
         H           -2.552122392439    -1.980606500324    -0.882881630753     1.007825032230

  Basis Set: AUG-CC-PVTZ
    Blend: AUG-CC-PVTZ
  Basis Set: (AUG-CC-PVTZ AUX)
    Blend: AUG-CC-PVTZ-JKFIT
	 Reference Energy          =    -400.6377284391102762 [Eh]
	 Singles Energy            =      -0.0000000000000000 [Eh]
	 Same-Spin Energy          =      -0.4517845219730883 [Eh]
	 Opposite-Spin Energy      =      -1.4045557759542180 [Eh]
	 Correlation Energy        =      -1.8563402979273063 [Eh]
	 Total Energy              =    -402.4940687370375940 [Eh]

	 ================> DF-SCS-MP2 Energies <==================
	-----------------------------------------------------------
	 SCS Same-Spin Scale       =       0.3333333333333333 [-]
	 SCS Opposite-Spin Scale   =       1.2000000000000000 [-]
	 SCS Same-Spin Energy      =      -0.1505948406576961 [Eh]
	 SCS Opposite-Spin Energy  =      -1.6854669311450616 [Eh]
	 SCS Correlation Energy    =      -1.8360617718027576 [Eh]
	 SCS Total Energy          =    -402.4737902109130232 [Eh]
	-----------------------------------------------------------

  Dipole Moment: [D]
     X:    -0.9847      Y:     1.8010      Z:    -0.0000     Total:     2.0526

*** Psi4 exiting successfully. Buy a developer a beer!
