                               Psi4 1.3.2 release

  ==> Input File <==

--------------------------------------------------------------------------
#psi4
#
memory 32 gb

molecule  {
0 1
  C       -2.6260010    -1.3181790     0.0001460
  C       -0.2011210    -0.3806258     0.0002064
  C       -1.6028750    -0.2271810    -0.0000330
  C        0.4037930     0.9065250    -0.0001510
  C       -1.8343220     1.1308500    -0.0000640
  C        2.0432510    -1.3188980     0.0000320
  C        2.5978260    -0.0201320    -0.0000760
  C        0.6688440    -1.5149670    -0.0002860
  C        1.7894520     1.1098640     0.0002960
  N       -0.6328400     1.8116850    -0.0001020
  H        2.7093930    -2.1785160    -0.0003580
  H        3.6789480     0.0978590     0.0002690
  H        0.2537760    -2.5213680    -0.0000660
  H        2.2194000     2.1097800     0.0002850
  H       -3.6376700    -0.9013790    -0.0001930
  H       -2.5281620    -1.9588410     0.8832840
  H       -2.7737480     1.6710560    -0.0003610
  H       -0.5326520     2.8176750    -0.0001200
  H       -2.5278290    -1.9594320    -0.8825300
units angstrom
no_reorient  #important for SAPT in psi4, default
symmetry c1  #important for SAPT in psi4, default
}

set PROPERTIES_ORIGIN ["COM"]
properties('MP2/aug-cc-pvtz', properties = ['dipole'])
--------------------------------------------------------------------------

    Molecular point group: c1
  Charge       = 0
  Multiplicity = 1
  Basis Set: AUG-CC-PVTZ
    Blend: AUG-CC-PVTZ
  Basis Set: (AUG-CC-PVTZ AUX)
    Blend: AUG-CC-PVTZ-JKFIT

    Orbital Energies [Eh]
    ---------------------

    Doubly Occupied:

       1A    -15.600849     2A    -11.264498     3A    -11.264406
       4A    -11.232389     5A    -11.232301     6A    -11.229407
       7A    -11.222127     8A    -11.221913     9A    -11.221295
      10A    -11.220232    11A     -1.293002    12A     -1.124842
      13A     -1.075005    14A     -0.996232    15A     -0.984859
      16A     -0.931871    17A     -0.838307    18A     -0.804386
      19A     -0.756749    20A     -0.719842    21A     -0.660863
      22A     -0.644579    23A     -0.603886    24A     -0.592866
      25A     -0.589820    26A     -0.569265    27A     -0.551575
      28A     -0.543422    29A     -0.529575    30A     -0.496629
      31A     -0.477994    32A     -0.461598    33A     -0.375277
      34A     -0.299840    35A     -0.275783

  @DF-RHF Final Energy:  -400.63865059848143

   => Energetics <=

    Nuclear Repulsion Energy =            483.3104413108555946
    One-Electron Energy =               -1500.0832104584630997
    Two-Electron Energy =                 616.1341185491261285
    Total Energy =                       -400.6386505984813766
  Basis Set: (AUG-CC-PVTZ AUX)
    Blend: AUG-CC-PVTZ-RI
    Molecular point group: c1

    Geometry (in Angstrom), charge = 0, multiplicity = 1:

       Center              X                  Y                   Z               Mass
    ------------   -----------------  -----------------  -----------------  -----------------
         C           -2.647678573685    -1.340540317723     0.000148837113    12.000000000000
         C           -0.222798573685    -0.402987117723     0.000209237113    12.000000000000
         C           -1.624552573685    -0.249542317723    -0.000030162887    12.000000000000
         C            0.382115426315     0.884163682277    -0.000148162887    12.000000000000
         C           -1.855999573685     1.108488682277    -0.000061162887    12.000000000000
         C            2.021573426315    -1.341259317723     0.000034837113    12.000000000000
         C            2.576148426315    -0.042493317723    -0.000073162887    12.000000000000
         C            0.647166426315    -1.537328317723    -0.000283162887    12.000000000000
         C            1.767774426315     1.087502682277     0.000298837113    12.000000000000
         N           -0.654517573685     1.789323682277    -0.000099162887    14.003074004430
         H            2.687715426315    -2.200877317723    -0.000355162887     1.007825032230
         H            3.657270426315     0.075497682277     0.000271837113     1.007825032230
         H            0.232098426315    -2.543729317723    -0.000063162887     1.007825032230
         H            2.197722426315     2.087418682277     0.000287837113     1.007825032230
         H           -3.659347573685    -0.923740317723    -0.000190162887     1.007825032230
         H           -2.549839573685    -1.981202317723     0.883286837113     1.007825032230
         H           -2.795425573685     1.648694682277    -0.000358162887     1.007825032230
         H           -0.554329573685     2.795313682277    -0.000117162887     1.007825032230
         H           -2.549506573685    -1.981793317723    -0.882527162887     1.007825032230

  Basis Set: AUG-CC-PVTZ
    Blend: AUG-CC-PVTZ
  Basis Set: (AUG-CC-PVTZ AUX)
    Blend: AUG-CC-PVTZ-JKFIT
	 Reference Energy          =    -400.6386505984814335 [Eh]
	 Singles Energy            =      -0.0000000000000000 [Eh]
	 Same-Spin Energy          =      -0.4520070031182103 [Eh]
	 Opposite-Spin Energy      =      -1.4045915256330321 [Eh]
	 Correlation Energy        =      -1.8565985287512423 [Eh]
	 Total Energy              =    -402.4952491272326824 [Eh]

	 ================> DF-SCS-MP2 Energies <==================
	-----------------------------------------------------------
	 SCS Same-Spin Scale       =       0.3333333333333333 [-]
	 SCS Opposite-Spin Scale   =       1.2000000000000000 [-]
	 SCS Same-Spin Energy      =      -0.1506690010394034 [Eh]
	 SCS Opposite-Spin Energy  =      -1.6855098307596386 [Eh]
	 SCS Correlation Energy    =      -1.8361788317990420 [Eh]
	 SCS Total Energy          =    -402.4748294302804652 [Eh]
	-----------------------------------------------------------

  Dipole Moment: [D]
     X:    -0.9808      Y:     1.8208      Z:    -0.0001     Total:     2.0682

*** Psi4 exiting successfully. Buy a developer a beer!
