                               Psi4 1.3.2 release

  ==> Input File <==

--------------------------------------------------------------------------
#psi4
#
memory 32 gb

molecule  {
0 1
  C       -2.6260010    -1.3181790     0.0001460
  C       -0.1785650    -0.3909870     0.0002200
  C       -1.6028750    -0.2271810    -0.0000330
  C        0.4037930     0.9065250    -0.0001510
  C       -1.8343220     1.1308500    -0.0000640
  C        2.0432510    -1.3188980     0.0000320
  C        2.5978260    -0.0201320    -0.0000760
  C        0.6688440    -1.5149670    -0.0002860
  C        1.7894520     1.1098640     0.0002960
  N       -0.6328400     1.8116850    -0.0001020
  H        2.7093930    -2.1785160    -0.0003580
  H        3.6789480     0.0978590     0.0002690
  H        0.2537760    -2.5213680    -0.0000660
  H        2.2194000     2.1097800     0.0002850
  H       -3.6376700    -0.9013790    -0.0001930
  H       -2.5281620    -1.9588410     0.8832840
  H       -2.6003696     1.5713568    -0.0003062
  H       -0.5326520     2.8176750    -0.0001200
  H       -2.5278290    -1.9594320    -0.8825300
units angstrom
no_reorient  #important for SAPT in psi4, default
symmetry c1  #important for SAPT in psi4, default
}

set PROPERTIES_ORIGIN ["COM"]
properties('MP2/aug-cc-pvtz', properties = ['dipole'])
--------------------------------------------------------------------------

    Molecular point group: c1
  Charge       = 0
  Multiplicity = 1
  Basis Set: AUG-CC-PVTZ
    Blend: AUG-CC-PVTZ
  Basis Set: (AUG-CC-PVTZ AUX)
    Blend: AUG-CC-PVTZ-JKFIT

    Orbital Energies [Eh]
    ---------------------

    Doubly Occupied:

       1A    -15.598593     2A    -11.264692     3A    -11.241122
       4A    -11.231429     5A    -11.230360     6A    -11.229294
       7A    -11.222128     8A    -11.221555     9A    -11.220773
      10A    -11.220702    11A     -1.291348    12A     -1.127080
      13A     -1.072762    14A     -0.997687    15A     -0.991737
      16A     -0.936273    17A     -0.854825    18A     -0.807653
      19A     -0.762441    20A     -0.724006    21A     -0.673556
      22A     -0.651457    23A     -0.603218    24A     -0.592292
      25A     -0.591345    26A     -0.582074    27A     -0.551245
      28A     -0.542313    29A     -0.530616    30A     -0.497718
      31A     -0.475700    32A     -0.462634    33A     -0.374015
      34A     -0.298196    35A     -0.277549

  @DF-RHF Final Energy:  -400.60463579190457

   => Energetics <=

    Nuclear Repulsion Energy =            484.4729847515658889
    One-Electron Energy =               -1502.2544655378601419
    Two-Electron Energy =                 617.1768449943896258
    Total Energy =                       -400.6046357919045704
  Basis Set: (AUG-CC-PVTZ AUX)
    Blend: AUG-CC-PVTZ-RI
    Molecular point group: c1

    Geometry (in Angstrom), charge = 0, multiplicity = 1:

       Center              X                  Y                   Z               Mass
    ------------   -----------------  -----------------  -----------------  -----------------
         C           -2.651076721243    -1.338825144552     0.000147170652    12.000000000000
         C           -0.203640721243    -0.411633144552     0.000221170652    12.000000000000
         C           -1.627950721243    -0.247827144552    -0.000031829348    12.000000000000
         C            0.378717278757     0.885878855448    -0.000149829348    12.000000000000
         C           -1.859397721243     1.110203855448    -0.000062829348    12.000000000000
         C            2.018175278757    -1.339544144552     0.000033170652    12.000000000000
         C            2.572750278757    -0.040778144552    -0.000074829348    12.000000000000
         C            0.643768278757    -1.535613144552    -0.000284829348    12.000000000000
         C            1.764376278757     1.089217855448     0.000297170652    12.000000000000
         N           -0.657915721243     1.791038855448    -0.000100829348    14.003074004430
         H            2.684317278757    -2.199162144552    -0.000356829348     1.007825032230
         H            3.653872278757     0.077212855448     0.000270170652     1.007825032230
         H            0.228700278757    -2.542014144552    -0.000064829348     1.007825032230
         H            2.194324278757     2.089133855448     0.000286170652     1.007825032230
         H           -3.662745721243    -0.922025144552    -0.000191829348     1.007825032230
         H           -2.553237721243    -1.979487144552     0.883285170652     1.007825032230
         H           -2.625445321243     1.550710655448    -0.000305029348     1.007825032230
         H           -0.557727721243     2.797028855448    -0.000118829348     1.007825032230
         H           -2.552904721243    -1.980078144552    -0.882528829348     1.007825032230

  Basis Set: AUG-CC-PVTZ
    Blend: AUG-CC-PVTZ
  Basis Set: (AUG-CC-PVTZ AUX)
    Blend: AUG-CC-PVTZ-JKFIT
	 Reference Energy          =    -400.6046357919045704 [Eh]
	 Singles Energy            =      -0.0000000000000000 [Eh]
	 Same-Spin Energy          =      -0.4514092721802432 [Eh]
	 Opposite-Spin Energy      =      -1.4033299700870590 [Eh]
	 Correlation Energy        =      -1.8547392422673021 [Eh]
	 Total Energy              =    -402.4593750341718987 [Eh]

	 ================> DF-SCS-MP2 Energies <==================
	-----------------------------------------------------------
	 SCS Same-Spin Scale       =       0.3333333333333333 [-]
	 SCS Opposite-Spin Scale   =       1.2000000000000000 [-]
	 SCS Same-Spin Energy      =      -0.1504697573934144 [Eh]
	 SCS Opposite-Spin Energy  =      -1.6839959641044706 [Eh]
	 SCS Correlation Energy    =      -1.8344657214978850 [Eh]
	 SCS Total Energy          =    -402.4391015134024769 [Eh]
	-----------------------------------------------------------

  Dipole Moment: [D]
     X:    -0.9663      Y:     1.8009      Z:    -0.0001     Total:     2.0438

*** Psi4 exiting successfully. Buy a developer a beer!
