                               Psi4 1.3.2 release

  ==> Input File <==

--------------------------------------------------------------------------
#psi4
#
memory 32 gb

molecule  {
0 1
  C       -2.6260010    -1.3181790     0.0001460
  C       -0.0980959    -0.3346127     0.0002639
  C       -1.6028750    -0.2271810    -0.0000330
  C        0.4037930     0.9065250    -0.0001510
  C       -1.8343220     1.1308500    -0.0000640
  C        2.0432510    -1.3188980     0.0000320
  C        2.5978260    -0.0201320    -0.0000760
  C        0.6688440    -1.5149670    -0.0002860
  C        1.7894520     1.1098640     0.0002960
  N       -0.6328400     1.8116850    -0.0001020
  H        2.7093930    -2.1785160    -0.0003580
  H        3.6789480     0.0978590     0.0002690
  H        0.2537760    -2.5213680    -0.0000660
  H        2.2194000     2.1097800     0.0002850
  H       -3.6376700    -0.9013790    -0.0001930
  H       -2.5281620    -1.9588410     0.8832840
  H       -2.7737480     1.6710560    -0.0003610
  H       -0.5326520     2.8176750    -0.0001200
  H       -2.5278290    -1.9594320    -0.8825300
units angstrom
no_reorient  #important for SAPT in psi4, default
symmetry c1  #important for SAPT in psi4, default
}

set PROPERTIES_ORIGIN ["COM"]
properties('MP2/aug-cc-pvtz', properties = ['dipole'])
--------------------------------------------------------------------------

    Molecular point group: c1
  Charge       = 0
  Multiplicity = 1
  Basis Set: AUG-CC-PVTZ
    Blend: AUG-CC-PVTZ
  Basis Set: (AUG-CC-PVTZ AUX)
    Blend: AUG-CC-PVTZ-JKFIT

    Orbital Energies [Eh]
    ---------------------

    Doubly Occupied:

       1A    -15.593449     2A    -11.261584     3A    -11.256417
       4A    -11.233023     5A    -11.231832     6A    -11.229781
       7A    -11.224163     8A    -11.221990     9A    -11.221928
      10A    -11.218184    11A     -1.290981    12A     -1.133321
      13A     -1.061827    14A     -1.000922    15A     -0.991270
      16A     -0.927955    17A     -0.841084    18A     -0.796582
      19A     -0.759050    20A     -0.719286    21A     -0.652786
      22A     -0.643980    23A     -0.606417    24A     -0.600847
      25A     -0.591604    26A     -0.567158    27A     -0.552211
      28A     -0.541078    29A     -0.529036    30A     -0.500006
      31A     -0.468570    32A     -0.465449    33A     -0.364475
      34A     -0.306145    35A     -0.280406

  @DF-RHF Final Energy:  -400.63254239908622

   => Energetics <=

    Nuclear Repulsion Energy =            483.9095772131486228
    One-Electron Energy =               -1501.3146516288304610
    Two-Electron Energy =                 616.7725320165956191
    Total Energy =                       -400.6325423990862191
  Basis Set: (AUG-CC-PVTZ AUX)
    Blend: AUG-CC-PVTZ-RI
    Molecular point group: c1

    Geometry (in Angstrom), charge = 0, multiplicity = 1:

       Center              X                  Y                   Z               Mass
    ------------   -----------------  -----------------  -----------------  -----------------
         C           -2.657110695408    -1.344752894659     0.000143572891    12.000000000000
         C           -0.129205595408    -0.361186594659     0.000261472891    12.000000000000
         C           -1.633984695408    -0.253754894659    -0.000035427109    12.000000000000
         C            0.372683304592     0.879951105341    -0.000153427109    12.000000000000
         C           -1.865431695408     1.104276105341    -0.000066427109    12.000000000000
         C            2.012141304592    -1.345471894659     0.000029572891    12.000000000000
         C            2.566716304592    -0.046705894659    -0.000078427109    12.000000000000
         C            0.637734304592    -1.541540894659    -0.000288427109    12.000000000000
         C            1.758342304592     1.083290105341     0.000293572891    12.000000000000
         N           -0.663949695408     1.785111105341    -0.000104427109    14.003074004430
         H            2.678283304592    -2.205089894659    -0.000360427109     1.007825032230
         H            3.647838304592     0.071285105341     0.000266572891     1.007825032230
         H            0.222666304592    -2.547941894659    -0.000068427109     1.007825032230
         H            2.188290304592     2.083206105341     0.000282572891     1.007825032230
         H           -3.668779695408    -0.927952894659    -0.000195427109     1.007825032230
         H           -2.559271695408    -1.985414894659     0.883281572891     1.007825032230
         H           -2.804857695408     1.644482105341    -0.000363427109     1.007825032230
         H           -0.563761695408     2.791101105341    -0.000122427109     1.007825032230
         H           -2.558938695408    -1.986005894659    -0.882532427109     1.007825032230

  Basis Set: AUG-CC-PVTZ
    Blend: AUG-CC-PVTZ
  Basis Set: (AUG-CC-PVTZ AUX)
    Blend: AUG-CC-PVTZ-JKFIT
	 Reference Energy          =    -400.6325423990862191 [Eh]
	 Singles Energy            =      -0.0000000000000000 [Eh]
	 Same-Spin Energy          =      -0.4502943592303710 [Eh]
	 Opposite-Spin Energy      =      -1.4029813581941064 [Eh]
	 Correlation Energy        =      -1.8532757174244774 [Eh]
	 Total Energy              =    -402.4858181165106998 [Eh]

	 ================> DF-SCS-MP2 Energies <==================
	-----------------------------------------------------------
	 SCS Same-Spin Scale       =       0.3333333333333333 [-]
	 SCS Opposite-Spin Scale   =       1.2000000000000000 [-]
	 SCS Same-Spin Energy      =      -0.1500981197434570 [Eh]
	 SCS Opposite-Spin Energy  =      -1.6835776298329277 [Eh]
	 SCS Correlation Energy    =      -1.8336757495763847 [Eh]
	 SCS Total Energy          =    -402.4662181486626196 [Eh]
	-----------------------------------------------------------

  Dipole Moment: [D]
     X:    -0.8184      Y:     1.6220      Z:    -0.0001     Total:     1.8168

*** Psi4 exiting successfully. Buy a developer a beer!
