                               Psi4 1.4a3.dev225

  ==> Input File <==

--------------------------------------------------------------------------
#psi4
#
memory 32 gb

molecule  {
0 1
  C       -2.6260070    -1.3181640     0.0000030
  C       -0.1785920    -0.3910100    -0.0000140
  C       -1.6028860    -0.2271800    -0.0000070
  C        0.4037990     0.9065080    -0.0000120
  C       -1.8343130     1.1308630     0.0000070
  C        2.0432640    -1.3188820     0.0000040
  C        2.5978420    -0.0201300     0.0000040
  C        0.6688530    -1.5149630     0.0000000
  C        1.7894440     1.1098670     0.0000020
  N       -0.6328500     1.8116730     0.0000060
  H        2.7093900    -2.1785170     0.0000140
  H        3.6789570     0.0979150     0.0000120
  H        0.2614753    -2.5029043    -0.0000088
  H        2.2194160     2.1097700    -0.0000210
  H       -3.6376970    -0.9014040    -0.0000240
  H       -2.5280300    -1.9591080     0.8829250
  H       -2.7737400     1.6710680     0.0000050
  H       -0.5326180     2.8176610     0.0000030
  H       -2.5279980    -1.9591520    -0.8828820
units angstrom
no_reorient  #important for SAPT in psi4, default
symmetry c1  #important for SAPT in psi4, default
}

set PROPERTIES_ORIGIN ["COM"]
properties('MP2/aug-cc-pvtz', properties = ['dipole'])
--------------------------------------------------------------------------

    Molecular point group: c1
  Charge       = 0
  Multiplicity = 1
  Basis Set: AUG-CC-PVTZ
    Blend: AUG-CC-PVTZ
  Basis Set: (AUG-CC-PVTZ AUX)
    Blend: AUG-CC-PVTZ-JKFIT

    Orbital Energies [Eh]
    ---------------------

    Doubly Occupied:

       1A    -15.599871     2A    -11.265127     3A    -11.264505
       4A    -11.231781     5A    -11.229321     6A    -11.228293
       7A    -11.222631     8A    -11.221704     9A    -11.221319
      10A    -11.220874    11A     -1.291604    12A     -1.127035
      13A     -1.072113    14A     -0.997811    15A     -0.985642
      16A     -0.931054    17A     -0.839640    18A     -0.803838
      19A     -0.756185    20A     -0.721234    21A     -0.660465
      22A     -0.644549    23A     -0.604322    24A     -0.593853
      25A     -0.591893    26A     -0.569774    27A     -0.551375
      28A     -0.542401    29A     -0.529745    30A     -0.497840
      31A     -0.476368    32A     -0.462936    33A     -0.374463
      34A     -0.298532    35A     -0.277657

  @DF-RHF Final Energy:  -400.64034232213237

   => Energetics <=

    Nuclear Repulsion Energy =            483.3601833717017371
    One-Electron Energy =               -1500.1855393711064153
    Two-Electron Energy =                 616.1850136772723090
    Total Energy =                       -400.6403423221323692
  Basis Set: (AUG-CC-PVTZ AUX)
    Blend: AUG-CC-PVTZ-RI
    Molecular point group: c1

    Geometry (in Angstrom), charge = 0, multiplicity = 1:

       Center              X                  Y                   Z               Mass
    ------------   -----------------  -----------------  -----------------  -----------------
         C           -2.649807836724    -1.339718937975     0.000003370784    12.000000000000
         C           -0.202392836724    -0.412564937975    -0.000013629216    12.000000000000
         C           -1.626686836724    -0.248734937975    -0.000006629216    12.000000000000
         C            0.379998163276     0.884953062025    -0.000011629216    12.000000000000
         C           -1.858113836724     1.109308062025     0.000007370784    12.000000000000
         C            2.019463163276    -1.340436937975     0.000004370784    12.000000000000
         C            2.574041163276    -0.041684937975     0.000004370784    12.000000000000
         C            0.645052163276    -1.536517937975     0.000000370784    12.000000000000
         C            1.765643163276     1.088312062025     0.000002370784    12.000000000000
         N           -0.656650836724     1.790118062025     0.000006370784    14.003074004430
         H            2.685589163276    -2.200071937975     0.000014370784     1.007825032230
         H            3.655156163276     0.076360062025     0.000012370784     1.007825032230
         H            0.237674463276    -2.524459237975    -0.000008429216     1.007825032230
         H            2.195615163276     2.088215062025    -0.000020629216     1.007825032230
         H           -3.661497836724    -0.922958937975    -0.000023629216     1.007825032230
         H           -2.551830836724    -1.980662937975     0.882925370784     1.007825032230
         H           -2.797540836724     1.649513062025     0.000005370784     1.007825032230
         H           -0.556418836724     2.796106062025     0.000003370784     1.007825032230
         H           -2.551798836724    -1.980706937975    -0.882881629216     1.007825032230

  Basis Set: AUG-CC-PVTZ
    Blend: AUG-CC-PVTZ
  Basis Set: (AUG-CC-PVTZ AUX)
    Blend: AUG-CC-PVTZ-JKFIT
	 Reference Energy          =    -400.6403423221323692 [Eh]
	 Singles Energy            =      -0.0000000000000000 [Eh]
	 Same-Spin Energy          =      -0.4516446101973916 [Eh]
	 Opposite-Spin Energy      =      -1.4039846372435363 [Eh]
	 Correlation Energy        =      -1.8556292474409279 [Eh]
	 Total Energy              =    -402.4959715695732712 [Eh]

	 ================> DF-SCS-MP2 Energies <==================
	-----------------------------------------------------------
	 SCS Same-Spin Scale       =       0.3333333333333333 [-]
	 SCS Opposite-Spin Scale   =       1.2000000000000000 [-]
	 SCS Same-Spin Energy      =      -0.1505482033991305 [Eh]
	 SCS Opposite-Spin Energy  =      -1.6847815646922435 [Eh]
	 SCS Correlation Energy    =      -1.8353297680913740 [Eh]
	 SCS Total Energy          =    -402.4756720902237248 [Eh]
	-----------------------------------------------------------

  Dipole Moment: [D]
     X:    -0.9592      Y:     1.7973      Z:    -0.0000     Total:     2.0373

*** Psi4 exiting successfully. Buy a developer a beer!
