                               Psi4 1.4a3.dev225

  ==> Input File <==

--------------------------------------------------------------------------
#psi4
#
memory 32 gb

molecule  {
0 1
  C       -2.6260070    -1.3181640     0.0000030
  C       -0.1785920    -0.3910100    -0.0000140
  C       -1.5686832    -0.1907085    -0.0000073
  C        0.4037990     0.9065080    -0.0000120
  C       -1.8343130     1.1308630     0.0000070
  C        2.0432640    -1.3188820     0.0000040
  C        2.5978420    -0.0201300     0.0000040
  C        0.6688530    -1.5149630     0.0000000
  C        1.7894440     1.1098670     0.0000020
  N       -0.6328500     1.8116730     0.0000060
  H        2.7093900    -2.1785170     0.0000140
  H        3.6789570     0.0979150     0.0000120
  H        0.2538510    -2.5213940    -0.0000090
  H        2.2194160     2.1097700    -0.0000210
  H       -3.6376970    -0.9014040    -0.0000240
  H       -2.5280300    -1.9591080     0.8829250
  H       -2.7737400     1.6710680     0.0000050
  H       -0.5326180     2.8176610     0.0000030
  H       -2.5279980    -1.9591520    -0.8828820
units angstrom
no_reorient  #important for SAPT in psi4, default
symmetry c1  #important for SAPT in psi4, default
}

set PROPERTIES_ORIGIN ["COM"]
properties('MP2/aug-cc-pvtz', properties = ['dipole'])
--------------------------------------------------------------------------

    Molecular point group: c1
  Charge       = 0
  Multiplicity = 1
  Basis Set: AUG-CC-PVTZ
    Blend: AUG-CC-PVTZ
  Basis Set: (AUG-CC-PVTZ AUX)
    Blend: AUG-CC-PVTZ-JKFIT

    Orbital Energies [Eh]
    ---------------------

    Doubly Occupied:

       1A    -15.598300     2A    -11.264726     3A    -11.260098
       4A    -11.231841     5A    -11.231747     6A    -11.229833
       7A    -11.222859     8A    -11.221582     9A    -11.219596
      10A    -11.218056    11A     -1.294458    12A     -1.127502
      13A     -1.072584    14A     -0.996707    15A     -0.985112
      16A     -0.929553    17A     -0.840342    18A     -0.806456
      19A     -0.755334    20A     -0.719482    21A     -0.661837
      22A     -0.646460    23A     -0.601970    24A     -0.592869
      25A     -0.592328    26A     -0.571276    27A     -0.548766
      28A     -0.531895    29A     -0.529652    30A     -0.503080
      31A     -0.472806    32A     -0.463390    33A     -0.378877
      34A     -0.299249    35A     -0.280058

  @DF-RHF Final Energy:  -400.63796489077998

   => Energetics <=

    Nuclear Repulsion Energy =            483.9226423123445215
    One-Electron Energy =               -1501.3198572642841100
    Two-Electron Energy =                 616.7592500611596051
    Total Energy =                       -400.6379648907799265
  Basis Set: (AUG-CC-PVTZ AUX)
    Blend: AUG-CC-PVTZ-RI
    Molecular point group: c1

    Geometry (in Angstrom), charge = 0, multiplicity = 1:

       Center              X                  Y                   Z               Mass
    ------------   -----------------  -----------------  -----------------  -----------------
         C           -2.652880537475    -1.342915797903     0.000003399788    12.000000000000
         C           -0.205465537475    -0.415761797903    -0.000013600212    12.000000000000
         C           -1.595556737475    -0.215460297903    -0.000006900212    12.000000000000
         C            0.376925462525     0.881756202097    -0.000011600212    12.000000000000
         C           -1.861186537475     1.106111202097     0.000007399788    12.000000000000
         C            2.016390462525    -1.343633797903     0.000004399788    12.000000000000
         C            2.570968462525    -0.044881797903     0.000004399788    12.000000000000
         C            0.641979462525    -1.539714797903     0.000000399788    12.000000000000
         C            1.762570462525     1.085115202097     0.000002399788    12.000000000000
         N           -0.659723537475     1.786921202097     0.000006399788    14.003074004430
         H            2.682516462525    -2.203268797903     0.000014399788     1.007825032230
         H            3.652083462525     0.073163202097     0.000012399788     1.007825032230
         H            0.226977462525    -2.546145797903    -0.000008600212     1.007825032230
         H            2.192542462525     2.085018202097    -0.000020600212     1.007825032230
         H           -3.664570537475    -0.926155797903    -0.000023600212     1.007825032230
         H           -2.554903537475    -1.983859797903     0.882925399788     1.007825032230
         H           -2.800613537475     1.646316202097     0.000005399788     1.007825032230
         H           -0.559491537475     2.792909202097     0.000003399788     1.007825032230
         H           -2.554871537475    -1.983903797903    -0.882881600212     1.007825032230

  Basis Set: AUG-CC-PVTZ
    Blend: AUG-CC-PVTZ
  Basis Set: (AUG-CC-PVTZ AUX)
    Blend: AUG-CC-PVTZ-JKFIT
	 Reference Energy          =    -400.6379648907799833 [Eh]
	 Singles Energy            =      -0.0000000000000000 [Eh]
	 Same-Spin Energy          =      -0.4514144407094803 [Eh]
	 Opposite-Spin Energy      =      -1.4036196611378500 [Eh]
	 Correlation Energy        =      -1.8550341018473304 [Eh]
	 Total Energy              =    -402.4929989926272924 [Eh]

	 ================> DF-SCS-MP2 Energies <==================
	-----------------------------------------------------------
	 SCS Same-Spin Scale       =       0.3333333333333333 [-]
	 SCS Opposite-Spin Scale   =       1.2000000000000000 [-]
	 SCS Same-Spin Energy      =      -0.1504714802364934 [Eh]
	 SCS Opposite-Spin Energy  =      -1.6843435933654198 [Eh]
	 SCS Correlation Energy    =      -1.8348150736019133 [Eh]
	 SCS Total Energy          =    -402.4727799643819139 [Eh]
	-----------------------------------------------------------

  Dipole Moment: [D]
     X:    -0.9357      Y:     1.8406      Z:    -0.0000     Total:     2.0648

*** Psi4 exiting successfully. Buy a developer a beer!
