                               Psi4 1.3.2 release

  ==> Input File <==

--------------------------------------------------------------------------
#psi4
#
memory 32 gb

molecule  {
0 1
  C       -2.6260010    -1.3181790     0.0001460
  C       -0.1785650    -0.3909870     0.0002200
  C       -1.6028750    -0.2271810    -0.0000330
  C        0.4037930     0.9065250    -0.0001510
  C       -1.8343220     1.1308500    -0.0000640
  C        2.0432510    -1.3188980     0.0000320
  C        2.5978260    -0.0201320    -0.0000760
  C        0.6688440    -1.5149670    -0.0002860
  C        1.7894520     1.1098640     0.0002960
  N       -0.6328400     1.8116850    -0.0001020
  H        2.7093930    -2.1785160    -0.0003580
  H        3.6789480     0.0978590     0.0002690
  H        0.2537760    -2.5213680    -0.0000660
  H        2.2194000     2.1097800     0.0002850
  H       -3.6376700    -0.9013790    -0.0001930
  H       -2.5281620    -1.9588410     0.8832840
  H       -2.7737480     1.6710560    -0.0003610
  H       -0.5326520     2.8176750    -0.0001200
  H       -2.5278290    -1.9594320    -0.8825300
units angstrom
no_reorient  #important for SAPT in psi4, default
symmetry c1  #important for SAPT in psi4, default
}

set PROPERTIES_ORIGIN ["COM"]
properties('MP2/aug-cc-pvtz', properties = ['dipole'])
--------------------------------------------------------------------------

    Molecular point group: c1
  Charge       = 0
  Multiplicity = 1
  Basis Set: AUG-CC-PVTZ
    Blend: AUG-CC-PVTZ
  Basis Set: (AUG-CC-PVTZ AUX)
    Blend: AUG-CC-PVTZ-JKFIT

    Orbital Energies [Eh]
    ---------------------

    Doubly Occupied:

       1A    -15.599941     2A    -11.265275     3A    -11.264543
       4A    -11.231855     5A    -11.230642     6A    -11.229452
       7A    -11.222724     8A    -11.221809     9A    -11.221357
      10A    -11.221058    11A     -1.291679    12A     -1.126993
      13A     -1.072121    14A     -0.997314    15A     -0.985702
      16A     -0.930942    17A     -0.838989    18A     -0.803932
      19A     -0.755803    20A     -0.720050    21A     -0.659959
      22A     -0.644612    23A     -0.603505    24A     -0.592702
      25A     -0.591941    26A     -0.569710    27A     -0.551380
      28A     -0.542301    29A     -0.529701    30A     -0.497640
      31A     -0.475755    32A     -0.463055    33A     -0.374538
      34A     -0.298637    35A     -0.277731

  @DF-RHF Final Energy:  -400.64019333212627

   => Energetics <=

    Nuclear Repulsion Energy =            483.2580905372436746
    One-Electron Energy =               -1499.9858708372064484
    Two-Electron Energy =                 616.0875869678365007
    Total Energy =                       -400.6401933321262732
  Basis Set: (AUG-CC-PVTZ AUX)
    Blend: AUG-CC-PVTZ-RI
    Molecular point group: c1

    Geometry (in Angstrom), charge = 0, multiplicity = 1:

       Center              X                  Y                   Z               Mass
    ------------   -----------------  -----------------  -----------------  -----------------
         C           -2.649743613540    -1.339591732382     0.000147592010    12.000000000000
         C           -0.202307613540    -0.412399732382     0.000221592010    12.000000000000
         C           -1.626617613540    -0.248593732382    -0.000031407990    12.000000000000
         C            0.380050386460     0.885112267618    -0.000149407990    12.000000000000
         C           -1.858064613540     1.109437267618    -0.000062407990    12.000000000000
         C            2.019508386460    -1.340310732382     0.000033592010    12.000000000000
         C            2.574083386460    -0.041544732382    -0.000074407990    12.000000000000
         C            0.645101386460    -1.536379732382    -0.000284407990    12.000000000000
         C            1.765709386460     1.088451267618     0.000297592010    12.000000000000
         N           -0.656582613540     1.790272267618    -0.000100407990    14.003074004430
         H            2.685650386460    -2.199928732382    -0.000356407990     1.007825032230
         H            3.655205386460     0.076446267618     0.000270592010     1.007825032230
         H            0.230033386460    -2.542780732382    -0.000064407990     1.007825032230
         H            2.195657386460     2.088367267618     0.000286592010     1.007825032230
         H           -3.661412613540    -0.922791732382    -0.000191407990     1.007825032230
         H           -2.551904613540    -1.980253732382     0.883285592010     1.007825032230
         H           -2.797490613540     1.649643267618    -0.000359407990     1.007825032230
         H           -0.556394613540     2.796262267618    -0.000118407990     1.007825032230
         H           -2.551571613540    -1.980844732382    -0.882528407990     1.007825032230

  Basis Set: AUG-CC-PVTZ
    Blend: AUG-CC-PVTZ
  Basis Set: (AUG-CC-PVTZ AUX)
    Blend: AUG-CC-PVTZ-JKFIT
	 Reference Energy          =    -400.6401933321262732 [Eh]
	 Singles Energy            =      -0.0000000000000000 [Eh]
	 Same-Spin Energy          =      -0.4516883251371900 [Eh]
	 Opposite-Spin Energy      =      -1.4041253067786876 [Eh]
	 Correlation Energy        =      -1.8558136319158776 [Eh]
	 Total Energy              =    -402.4960069640421239 [Eh]

	 ================> DF-SCS-MP2 Energies <==================
	-----------------------------------------------------------
	 SCS Same-Spin Scale       =       0.3333333333333333 [-]
	 SCS Opposite-Spin Scale   =       1.2000000000000000 [-]
	 SCS Same-Spin Energy      =      -0.1505627750457300 [Eh]
	 SCS Opposite-Spin Energy  =      -1.6849503681344251 [Eh]
	 SCS Correlation Energy    =      -1.8355131431801550 [Eh]
	 SCS Total Energy          =    -402.4757064753064242 [Eh]
	-----------------------------------------------------------

  Dipole Moment: [D]
     X:    -0.9576      Y:     1.8048      Z:    -0.0001     Total:     2.0431

*** Psi4 exiting successfully. Buy a developer a beer!
