                               Psi4 1.3.2 release

  ==> Input File <==

--------------------------------------------------------------------------
#psi4
#
memory 32 gb

molecule  {
0 1
  C       -2.6260010    -1.3181790     0.0001460
  C       -0.1785650    -0.3909870     0.0002200
  C       -1.6028750    -0.2271810    -0.0000330
  C        0.4037930     0.9065250    -0.0001510
  C       -1.8343220     1.1308500    -0.0000640
  C        2.1820470    -1.3697521    -0.0000217
  C        2.5978260    -0.0201320    -0.0000760
  C        0.6688440    -1.5149670    -0.0002860
  C        1.7894520     1.1098640     0.0002960
  N       -0.6328400     1.8116850    -0.0001020
  H        2.7093930    -2.1785160    -0.0003580
  H        3.6789480     0.0978590     0.0002690
  H        0.2537760    -2.5213680    -0.0000660
  H        2.2194000     2.1097800     0.0002850
  H       -3.6376700    -0.9013790    -0.0001930
  H       -2.5281620    -1.9588410     0.8832840
  H       -2.7737480     1.6710560    -0.0003610
  H       -0.5326520     2.8176750    -0.0001200
  H       -2.5278290    -1.9594320    -0.8825300
units angstrom
no_reorient  #important for SAPT in psi4, default
symmetry c1  #important for SAPT in psi4, default
}

set PROPERTIES_ORIGIN ["COM"]
properties('MP2/aug-cc-pvtz', properties = ['dipole'])
--------------------------------------------------------------------------

    Molecular point group: c1
  Charge       = 0
  Multiplicity = 1
  Basis Set: AUG-CC-PVTZ
    Blend: AUG-CC-PVTZ
  Basis Set: (AUG-CC-PVTZ AUX)
    Blend: AUG-CC-PVTZ-JKFIT

    Orbital Energies [Eh]
    ---------------------

    Doubly Occupied:

       1A    -15.600343     2A    -11.270580     3A    -11.267143
       4A    -11.245459     5A    -11.232634     6A    -11.229517
       7A    -11.225555     8A    -11.224401     9A    -11.224136
      10A    -11.222312    11A     -1.293768    12A     -1.116832
      13A     -1.073476    14A     -0.991724    15A     -0.985008
      16A     -0.930645    17A     -0.847636    18A     -0.803710
      19A     -0.758821    20A     -0.718905    21A     -0.676886
      22A     -0.645324    23A     -0.601987    24A     -0.592691
      25A     -0.592428    26A     -0.567185    27A     -0.552069
      28A     -0.552037    29A     -0.519434    30A     -0.515585
      31A     -0.461540    32A     -0.454625    33A     -0.374878
      34A     -0.297599    35A     -0.274020

  @DF-RHF Final Energy:  -400.61008442347566

   => Energetics <=

    Nuclear Repulsion Energy =            480.7708802754584667
    One-Electron Energy =               -1494.8801399096810201
    Two-Electron Energy =                 613.4991752107468983
    Total Energy =                       -400.6100844234756551
  Basis Set: (AUG-CC-PVTZ AUX)
    Blend: AUG-CC-PVTZ-RI
    Molecular point group: c1

    Geometry (in Angstrom), charge = 0, multiplicity = 1:

       Center              X                  Y                   Z               Mass
    ------------   -----------------  -----------------  -----------------  -----------------
         C           -2.662450621509    -1.334935953729     0.000152508335    12.000000000000
         C           -0.215014621509    -0.407743953729     0.000226508335    12.000000000000
         C           -1.639324621509    -0.243937953729    -0.000026491665    12.000000000000
         C            0.367343378491     0.889768046271    -0.000144491665    12.000000000000
         C           -1.870771621509     1.114093046271    -0.000057491665    12.000000000000
         C            2.145597378491    -1.386509053729    -0.000015191665    12.000000000000
         C            2.561376378491    -0.036888953729    -0.000069491665    12.000000000000
         C            0.632394378491    -1.531723953729    -0.000279491665    12.000000000000
         C            1.753002378491     1.093107046271     0.000302508335    12.000000000000
         N           -0.669289621509     1.794928046271    -0.000095491665    14.003074004430
         H            2.672943378491    -2.195272953729    -0.000351491665     1.007825032230
         H            3.642498378491     0.081102046271     0.000275508335     1.007825032230
         H            0.217326378491    -2.538124953729    -0.000059491665     1.007825032230
         H            2.182950378491     2.093023046271     0.000291508335     1.007825032230
         H           -3.674119621509    -0.918135953729    -0.000186491665     1.007825032230
         H           -2.564611621509    -1.975597953729     0.883290508335     1.007825032230
         H           -2.810197621509     1.654299046271    -0.000354491665     1.007825032230
         H           -0.569101621509     2.800918046271    -0.000113491665     1.007825032230
         H           -2.564278621509    -1.976188953729    -0.882523491665     1.007825032230

  Basis Set: AUG-CC-PVTZ
    Blend: AUG-CC-PVTZ
  Basis Set: (AUG-CC-PVTZ AUX)
    Blend: AUG-CC-PVTZ-JKFIT
	 Reference Energy          =    -400.6100844234756551 [Eh]
	 Singles Energy            =      -0.0000000000000000 [Eh]
	 Same-Spin Energy          =      -0.4518040867453944 [Eh]
	 Opposite-Spin Energy      =      -1.4061113241000851 [Eh]
	 Correlation Energy        =      -1.8579154108454796 [Eh]
	 Total Energy              =    -402.4679998343211196 [Eh]

	 ================> DF-SCS-MP2 Energies <==================
	-----------------------------------------------------------
	 SCS Same-Spin Scale       =       0.3333333333333333 [-]
	 SCS Opposite-Spin Scale   =       1.2000000000000000 [-]
	 SCS Same-Spin Energy      =      -0.1506013622484648 [Eh]
	 SCS Opposite-Spin Energy  =      -1.6873335889201020 [Eh]
	 SCS Correlation Energy    =      -1.8379349511685668 [Eh]
	 SCS Total Energy          =    -402.4480193746442183 [Eh]
	-----------------------------------------------------------

  Dipole Moment: [D]
     X:    -1.0472      Y:     1.8383      Z:    -0.0000     Total:     2.1157

*** Psi4 exiting successfully. Buy a developer a beer!
