                               Psi4 1.3.2 release

  ==> Input File <==

--------------------------------------------------------------------------
#psi4
#
memory 32 gb

molecule  {
0 1
  C       -2.6260010    -1.3181790     0.0001460
  C       -0.1785650    -0.3909870     0.0002200
  C       -1.5879789    -0.1282252     0.0000340
  C        0.4037930     0.9065250    -0.0001510
  C       -1.8343220     1.1308500    -0.0000640
  C        2.0432510    -1.3188980     0.0000320
  C        2.5978260    -0.0201320    -0.0000760
  C        0.6688440    -1.5149670    -0.0002860
  C        1.7894520     1.1098640     0.0002960
  N       -0.6328400     1.8116850    -0.0001020
  H        2.7093930    -2.1785160    -0.0003580
  H        3.6789480     0.0978590     0.0002690
  H        0.2537760    -2.5213680    -0.0000660
  H        2.2194000     2.1097800     0.0002850
  H       -3.6376700    -0.9013790    -0.0001930
  H       -2.5281620    -1.9588410     0.8832840
  H       -2.7737480     1.6710560    -0.0003610
  H       -0.5326520     2.8176750    -0.0001200
  H       -2.5278290    -1.9594320    -0.8825300
units angstrom
no_reorient  #important for SAPT in psi4, default
symmetry c1  #important for SAPT in psi4, default
}

set PROPERTIES_ORIGIN ["COM"]
properties('MP2/aug-cc-pvtz', properties = ['dipole'])
--------------------------------------------------------------------------

    Molecular point group: c1
  Charge       = 0
  Multiplicity = 1
  Basis Set: AUG-CC-PVTZ
    Blend: AUG-CC-PVTZ
  Basis Set: (AUG-CC-PVTZ AUX)
    Blend: AUG-CC-PVTZ-JKFIT

    Orbital Energies [Eh]
    ---------------------

    Doubly Occupied:

       1A    -15.592905     2A    -11.264843     3A    -11.251388
       4A    -11.233789     5A    -11.231565     6A    -11.230204
       7A    -11.224216     8A    -11.221517     9A    -11.220833
      10A    -11.214460    11A     -1.296113    12A     -1.126768
      13A     -1.073027    14A     -0.996144    15A     -0.987385
      16A     -0.930740    17A     -0.840713    18A     -0.805734
      19A     -0.752579    20A     -0.718657    21A     -0.663875
      22A     -0.647857    23A     -0.600277    24A     -0.593174
      25A     -0.591870    26A     -0.573631    27A     -0.547418
      28A     -0.536279    29A     -0.522151    30A     -0.505337
      31A     -0.464378    32A     -0.463188    33A     -0.380480
      34A     -0.297728    35A     -0.290272

  @DF-RHF Final Energy:  -400.62984165348803

   => Energetics <=

    Nuclear Repulsion Energy =            484.1497301754862406
    One-Electron Energy =               -1501.7761532263712070
    Two-Electron Energy =                 616.9965813973969944
    Total Energy =                       -400.6298416534880289
  Basis Set: (AUG-CC-PVTZ AUX)
    Blend: AUG-CC-PVTZ-RI
    Molecular point group: c1

    Geometry (in Angstrom), charge = 0, multiplicity = 1:

       Center              X                  Y                   Z               Mass
    ------------   -----------------  -----------------  -----------------  -----------------
         C           -2.651107376627    -1.348651302825     0.000141458047    12.000000000000
         C           -0.203671376627    -0.421459302825     0.000215458047    12.000000000000
         C           -1.613085276627    -0.158697502825     0.000029458047    12.000000000000
         C            0.378686623373     0.876052697175    -0.000155541953    12.000000000000
         C           -1.859428376627     1.100377697175    -0.000068541953    12.000000000000
         C            2.018144623373    -1.349370302825     0.000027458047    12.000000000000
         C            2.572719623373    -0.050604302825    -0.000080541953    12.000000000000
         C            0.643737623373    -1.545439302825    -0.000290541953    12.000000000000
         C            1.764345623373     1.079391697175     0.000291458047    12.000000000000
         N           -0.657946376627     1.781212697175    -0.000106541953    14.003074004430
         H            2.684286623373    -2.208988302825    -0.000362541953     1.007825032230
         H            3.653841623373     0.067386697175     0.000264458047     1.007825032230
         H            0.228669623373    -2.551840302825    -0.000070541953     1.007825032230
         H            2.194293623373     2.079307697175     0.000280458047     1.007825032230
         H           -3.662776376627    -0.931851302825    -0.000197541953     1.007825032230
         H           -2.553268376627    -1.989313302825     0.883279458047     1.007825032230
         H           -2.798854376627     1.640583697175    -0.000365541953     1.007825032230
         H           -0.557758376627     2.787202697175    -0.000124541953     1.007825032230
         H           -2.552935376627    -1.989904302825    -0.882534541953     1.007825032230

  Basis Set: AUG-CC-PVTZ
    Blend: AUG-CC-PVTZ
  Basis Set: (AUG-CC-PVTZ AUX)
    Blend: AUG-CC-PVTZ-JKFIT
	 Reference Energy          =    -400.6298416534880289 [Eh]
	 Singles Energy            =      -0.0000000000000000 [Eh]
	 Same-Spin Energy          =      -0.4501055116975526 [Eh]
	 Opposite-Spin Energy      =      -1.4017149701315286 [Eh]
	 Correlation Energy        =      -1.8518204818290811 [Eh]
	 Total Energy              =    -402.4816621353170945 [Eh]

	 ================> DF-SCS-MP2 Energies <==================
	-----------------------------------------------------------
	 SCS Same-Spin Scale       =       0.3333333333333333 [-]
	 SCS Opposite-Spin Scale   =       1.2000000000000000 [-]
	 SCS Same-Spin Energy      =      -0.1500351705658509 [Eh]
	 SCS Opposite-Spin Energy  =      -1.6820579641578342 [Eh]
	 SCS Correlation Energy    =      -1.8320931347236851 [Eh]
	 SCS Total Energy          =    -402.4619347882116926 [Eh]
	-----------------------------------------------------------

  Dipole Moment: [D]
     X:    -0.9118      Y:     1.7866      Z:    -0.0001     Total:     2.0058

*** Psi4 exiting successfully. Buy a developer a beer!
