                               Psi4 1.3.2 release

  ==> Input File <==

--------------------------------------------------------------------------
#psi4
#
memory 32 gb

molecule  {
0 1
  C       -2.6260010    -1.3181790     0.0001460
  C       -0.1785650    -0.3909870     0.0002200
  C       -1.6266112    -0.2310135    -0.0000325
  C        0.4037930     0.9065250    -0.0001510
  C       -1.8343220     1.1308500    -0.0000640
  C        2.0432510    -1.3188980     0.0000320
  C        2.5978260    -0.0201320    -0.0000760
  C        0.6688440    -1.5149670    -0.0002860
  C        1.7894520     1.1098640     0.0002960
  N       -0.6328400     1.8116850    -0.0001020
  H        2.7093930    -2.1785160    -0.0003580
  H        3.6789480     0.0978590     0.0002690
  H        0.2537760    -2.5213680    -0.0000660
  H        2.2194000     2.1097800     0.0002850
  H       -3.6376700    -0.9013790    -0.0001930
  H       -2.5281620    -1.9588410     0.8832840
  H       -2.7737480     1.6710560    -0.0003610
  H       -0.5326520     2.8176750    -0.0001200
  H       -2.5278290    -1.9594320    -0.8825300
units angstrom
no_reorient  #important for SAPT in psi4, default
symmetry c1  #important for SAPT in psi4, default
}

set PROPERTIES_ORIGIN ["COM"]
properties('MP2/aug-cc-pvtz', properties = ['dipole'])
--------------------------------------------------------------------------

    Molecular point group: c1
  Charge       = 0
  Multiplicity = 1
  Basis Set: AUG-CC-PVTZ
    Blend: AUG-CC-PVTZ
  Basis Set: (AUG-CC-PVTZ AUX)
    Blend: AUG-CC-PVTZ-JKFIT

    Orbital Energies [Eh]
    ---------------------

    Doubly Occupied:

       1A    -15.599522     2A    -11.265643     3A    -11.265091
       4A    -11.231697     5A    -11.230584     6A    -11.229514
       7A    -11.224066     8A    -11.223195     9A    -11.221024
      10A    -11.220813    11A     -1.290592    12A     -1.126565
      13A     -1.072189    14A     -0.997871    15A     -0.985957
      16A     -0.932108    17A     -0.838402    18A     -0.802396
      19A     -0.755444    20A     -0.720235    21A     -0.659459
      22A     -0.644010    23A     -0.603877    24A     -0.592459
      25A     -0.592019    26A     -0.569732    27A     -0.552368
      28A     -0.547894    29A     -0.528940    30A     -0.496014
      31A     -0.473983    32A     -0.463076    33A     -0.372490
      34A     -0.297952    35A     -0.278988

  @DF-RHF Final Energy:  -400.63968361503038

   => Energetics <=

    Nuclear Repulsion Energy =            482.9548741773254505
    One-Electron Energy =               -1499.3767746905432432
    Two-Electron Energy =                 615.7822168981874711
    Total Energy =                       -400.6396836150303216
  Basis Set: (AUG-CC-PVTZ AUX)
    Blend: AUG-CC-PVTZ-RI
    Molecular point group: c1

    Geometry (in Angstrom), charge = 0, multiplicity = 1:

       Center              X                  Y                   Z               Mass
    ------------   -----------------  -----------------  -----------------  -----------------
         C           -2.647570524384    -1.339240860541     0.000147546234    12.000000000000
         C           -0.200134524384    -0.412048860541     0.000221546234    12.000000000000
         C           -1.648180724384    -0.252075360541    -0.000030953766    12.000000000000
         C            0.382223475616     0.885463139459    -0.000149453766    12.000000000000
         C           -1.855891524384     1.109788139459    -0.000062453766    12.000000000000
         C            2.021681475616    -1.339959860541     0.000033546234    12.000000000000
         C            2.576256475616    -0.041193860541    -0.000074453766    12.000000000000
         C            0.647274475616    -1.536028860541    -0.000284453766    12.000000000000
         C            1.767882475616     1.088802139459     0.000297546234    12.000000000000
         N           -0.654409524384     1.790623139459    -0.000100453766    14.003074004430
         H            2.687823475616    -2.199577860541    -0.000356453766     1.007825032230
         H            3.657378475616     0.076797139459     0.000270546234     1.007825032230
         H            0.232206475616    -2.542429860541    -0.000064453766     1.007825032230
         H            2.197830475616     2.088718139459     0.000286546234     1.007825032230
         H           -3.659239524384    -0.922440860541    -0.000191453766     1.007825032230
         H           -2.549731524384    -1.979902860541     0.883285546234     1.007825032230
         H           -2.795317524384     1.649994139459    -0.000359453766     1.007825032230
         H           -0.554221524384     2.796613139459    -0.000118453766     1.007825032230
         H           -2.549398524384    -1.980493860541    -0.882528453766     1.007825032230

  Basis Set: AUG-CC-PVTZ
    Blend: AUG-CC-PVTZ
  Basis Set: (AUG-CC-PVTZ AUX)
    Blend: AUG-CC-PVTZ-JKFIT
	 Reference Energy          =    -400.6396836150303784 [Eh]
	 Singles Energy            =      -0.0000000000000000 [Eh]
	 Same-Spin Energy          =      -0.4515388317027133 [Eh]
	 Opposite-Spin Energy      =      -1.4039639064625853 [Eh]
	 Correlation Energy        =      -1.8555027381652986 [Eh]
	 Total Energy              =    -402.4951863531956633 [Eh]

	 ================> DF-SCS-MP2 Energies <==================
	-----------------------------------------------------------
	 SCS Same-Spin Scale       =       0.3333333333333333 [-]
	 SCS Opposite-Spin Scale   =       1.2000000000000000 [-]
	 SCS Same-Spin Energy      =      -0.1505129439009044 [Eh]
	 SCS Opposite-Spin Energy  =      -1.6847566877551023 [Eh]
	 SCS Correlation Energy    =      -1.8352696316560069 [Eh]
	 SCS Total Energy          =    -402.4749532466863684 [Eh]
	-----------------------------------------------------------

  Dipole Moment: [D]
     X:    -0.9599      Y:     1.7755      Z:    -0.0001     Total:     2.0184

*** Psi4 exiting successfully. Buy a developer a beer!
