                               Psi4 1.3.2 release

  ==> Input File <==

--------------------------------------------------------------------------
#psi4
#
memory 32 gb

molecule  {
0 1
  C       -2.6260010    -1.3181790     0.0001460
  C       -0.1785650    -0.3909870     0.0002200
  C       -1.6028750    -0.2271810    -0.0000330
  C        0.4037930     0.9065250    -0.0001510
  C       -1.8343220     1.1308500    -0.0000640
  C        2.0432510    -1.3188980     0.0000320
  C        2.5978260    -0.0201320    -0.0000760
  C        0.6688440    -1.5149670    -0.0002860
  C        1.7894520     1.1098640     0.0002960
  N       -0.6328400     1.8116850    -0.0001020
  H        2.7093930    -2.1785160    -0.0003580
  H        3.6789480     0.0978590     0.0002690
  H        0.2537760    -2.5213680    -0.0000660
  H        2.2194000     2.1097800     0.0002850
  H       -3.6376700    -0.9013790    -0.0001930
  H       -2.5281620    -1.9588410     0.8832840
  H       -2.8604372     1.7209056    -0.0003884
  H       -0.5326520     2.8176750    -0.0001200
  H       -2.5278290    -1.9594320    -0.8825300
units angstrom
no_reorient  #important for SAPT in psi4, default
symmetry c1  #important for SAPT in psi4, default
}

set PROPERTIES_ORIGIN ["COM"]
properties('MP2/aug-cc-pvtz', properties = ['dipole'])
--------------------------------------------------------------------------

    Molecular point group: c1
  Charge       = 0
  Multiplicity = 1
  Basis Set: AUG-CC-PVTZ
    Blend: AUG-CC-PVTZ
  Basis Set: (AUG-CC-PVTZ AUX)
    Blend: AUG-CC-PVTZ-JKFIT

    Orbital Energies [Eh]
    ---------------------

    Doubly Occupied:

       1A    -15.600907     2A    -11.275479     3A    -11.265792
       4A    -11.232224     5A    -11.230969     6A    -11.229697
       7A    -11.223441     8A    -11.222423     9A    -11.221443
      10A    -11.221367    11A     -1.292245    12A     -1.127234
      13A     -1.072297    14A     -0.997560    15A     -0.984370
      16A     -0.929802    17A     -0.835072    18A     -0.802575
      19A     -0.753834    20A     -0.718604    21A     -0.657822
      22A     -0.637446    23A     -0.603793    24A     -0.593068
      25A     -0.592442    26A     -0.560592    27A     -0.551553
      28A     -0.542082    29A     -0.528455    30A     -0.497528
      31A     -0.475838    32A     -0.463448    33A     -0.374996
      34A     -0.299035    35A     -0.278090

  @DF-RHF Final Energy:  -400.63253538885522

   => Energetics <=

    Nuclear Repulsion Energy =            482.7539164938336285
    One-Electron Energy =               -1498.9858571687661879
    Two-Electron Energy =                 615.5994052860772854
    Total Energy =                       -400.6325353888552172
  Basis Set: (AUG-CC-PVTZ AUX)
    Blend: AUG-CC-PVTZ-RI
    Molecular point group: c1

    Geometry (in Angstrom), charge = 0, multiplicity = 1:

       Center              X                  Y                   Z               Mass
    ------------   -----------------  -----------------  -----------------  -----------------
         C           -2.649077059688    -1.339975026297     0.000147802689    12.000000000000
         C           -0.201641059688    -0.412783026297     0.000221802689    12.000000000000
         C           -1.625951059688    -0.248977026297    -0.000031197311    12.000000000000
         C            0.380716940312     0.884728973703    -0.000149197311    12.000000000000
         C           -1.857398059688     1.109053973703    -0.000062197311    12.000000000000
         C            2.020174940312    -1.340694026297     0.000033802689    12.000000000000
         C            2.574749940312    -0.041928026297    -0.000074197311    12.000000000000
         C            0.645767940312    -1.536763026297    -0.000284197311    12.000000000000
         C            1.766375940312     1.088067973703     0.000297802689    12.000000000000
         N           -0.655916059688     1.789888973703    -0.000100197311    14.003074004430
         H            2.686316940312    -2.200312026297    -0.000356197311     1.007825032230
         H            3.655871940312     0.076062973703     0.000270802689     1.007825032230
         H            0.230699940312    -2.543164026297    -0.000064197311     1.007825032230
         H            2.196323940312     2.087983973703     0.000286802689     1.007825032230
         H           -3.660746059688    -0.923175026297    -0.000191197311     1.007825032230
         H           -2.551238059688    -1.980637026297     0.883285802689     1.007825032230
         H           -2.883513259688     1.699109573703    -0.000386597311     1.007825032230
         H           -0.555728059688     2.795878973703    -0.000118197311     1.007825032230
         H           -2.550905059688    -1.981228026297    -0.882528197311     1.007825032230

  Basis Set: AUG-CC-PVTZ
    Blend: AUG-CC-PVTZ
  Basis Set: (AUG-CC-PVTZ AUX)
    Blend: AUG-CC-PVTZ-JKFIT
	 Reference Energy          =    -400.6325353888552172 [Eh]
	 Singles Energy            =      -0.0000000000000000 [Eh]
	 Same-Spin Energy          =      -0.4519658209486078 [Eh]
	 Opposite-Spin Energy      =      -1.4051587720552015 [Eh]
	 Correlation Energy        =      -1.8571245930038094 [Eh]
	 Total Energy              =    -402.4896599818590062 [Eh]

	 ================> DF-SCS-MP2 Energies <==================
	-----------------------------------------------------------
	 SCS Same-Spin Scale       =       0.3333333333333333 [-]
	 SCS Opposite-Spin Scale   =       1.2000000000000000 [-]
	 SCS Same-Spin Energy      =      -0.1506552736495359 [Eh]
	 SCS Opposite-Spin Energy  =      -1.6861905264662418 [Eh]
	 SCS Correlation Energy    =      -1.8368458001157777 [Eh]
	 SCS Total Energy          =    -402.4693811889709991 [Eh]
	-----------------------------------------------------------

  Dipole Moment: [D]
     X:    -0.9357      Y:     1.7967      Z:    -0.0001     Total:     2.0257

*** Psi4 exiting successfully. Buy a developer a beer!
