                               Psi4 1.3.2 release

  ==> Input File <==

--------------------------------------------------------------------------
#psi4
#
memory 32 gb

molecule  {
0 1
  C       -2.6260010    -1.3181790     0.0001460
  C       -0.1980521    -0.4059475     0.0002086
  C       -1.6028750    -0.2271810    -0.0000330
  C        0.4037930     0.9065250    -0.0001510
  C       -1.8343220     1.1308500    -0.0000640
  C        2.0432510    -1.3188980     0.0000320
  C        2.5978260    -0.0201320    -0.0000760
  C        0.6688440    -1.5149670    -0.0002860
  C        1.7894520     1.1098640     0.0002960
  N       -0.6328400     1.8116850    -0.0001020
  H        2.7093930    -2.1785160    -0.0003580
  H        3.6789480     0.0978590     0.0002690
  H        0.2537760    -2.5213680    -0.0000660
  H        2.2194000     2.1097800     0.0002850
  H       -3.6376700    -0.9013790    -0.0001930
  H       -2.5281620    -1.9588410     0.8832840
  H       -2.7737480     1.6710560    -0.0003610
  H       -0.5326520     2.8176750    -0.0001200
  H       -2.5278290    -1.9594320    -0.8825300
units angstrom
no_reorient  #important for SAPT in psi4, default
symmetry c1  #important for SAPT in psi4, default
}

set PROPERTIES_ORIGIN ["COM"]
properties('MP2/aug-cc-pvtz', properties = ['dipole'])
--------------------------------------------------------------------------

    Molecular point group: c1
  Charge       = 0
  Multiplicity = 1
  Basis Set: AUG-CC-PVTZ
    Blend: AUG-CC-PVTZ
  Basis Set: (AUG-CC-PVTZ AUX)
    Blend: AUG-CC-PVTZ-JKFIT

    Orbital Energies [Eh]
    ---------------------

    Doubly Occupied:

       1A    -15.601624     2A    -11.267251     3A    -11.265310
       4A    -11.231613     5A    -11.230506     6A    -11.229373
       7A    -11.223222     8A    -11.221781     9A    -11.221112
      10A    -11.220950    11A     -1.291877    12A     -1.125726
      13A     -1.074799    14A     -0.997019    15A     -0.984042
      16A     -0.931609    17A     -0.838697    18A     -0.805905
      19A     -0.755222    20A     -0.719934    21A     -0.661865
      22A     -0.644964    23A     -0.603334    24A     -0.592143
      25A     -0.590361    26A     -0.570524    27A     -0.551198
      28A     -0.542324    29A     -0.529812    30A     -0.499549
      31A     -0.473281    32A     -0.462554    33A     -0.377196
      34A     -0.297412    35A     -0.276630

  @DF-RHF Final Energy:  -400.63855459484546

   => Energetics <=

    Nuclear Repulsion Energy =            483.1029647000191858
    One-Electron Energy =               -1499.6616027715233486
    Two-Electron Energy =                 615.9200834766587604
    Total Energy =                       -400.6385545948454592
  Basis Set: (AUG-CC-PVTZ AUX)
    Blend: AUG-CC-PVTZ-RI
    Molecular point group: c1

    Geometry (in Angstrom), charge = 0, multiplicity = 1:

       Center              X                  Y                   Z               Mass
    ------------   -----------------  -----------------  -----------------  -----------------
         C           -2.647959536657    -1.338222073367     0.000148635699    12.000000000000
         C           -0.220010636657    -0.425990573367     0.000211235699    12.000000000000
         C           -1.624833536657    -0.247224073367    -0.000030364301    12.000000000000
         C            0.381834463343     0.886481926633    -0.000148364301    12.000000000000
         C           -1.856280536657     1.110806926633    -0.000061364301    12.000000000000
         C            2.021292463343    -1.338941073367     0.000034635699    12.000000000000
         C            2.575867463343    -0.040175073367    -0.000073364301    12.000000000000
         C            0.646885463343    -1.535010073367    -0.000283364301    12.000000000000
         C            1.767493463343     1.089820926633     0.000298635699    12.000000000000
         N           -0.654798536657     1.791641926633    -0.000099364301    14.003074004430
         H            2.687434463343    -2.198559073367    -0.000355364301     1.007825032230
         H            3.656989463343     0.077815926633     0.000271635699     1.007825032230
         H            0.231817463343    -2.541411073367    -0.000063364301     1.007825032230
         H            2.197441463343     2.089736926633     0.000287635699     1.007825032230
         H           -3.659628536657    -0.921422073367    -0.000190364301     1.007825032230
         H           -2.550120536657    -1.978884073367     0.883286635699     1.007825032230
         H           -2.795706536657     1.651012926633    -0.000358364301     1.007825032230
         H           -0.554610536657     2.797631926633    -0.000117364301     1.007825032230
         H           -2.549787536657    -1.979475073367    -0.882527364301     1.007825032230

  Basis Set: AUG-CC-PVTZ
    Blend: AUG-CC-PVTZ
  Basis Set: (AUG-CC-PVTZ AUX)
    Blend: AUG-CC-PVTZ-JKFIT
	 Reference Energy          =    -400.6385545948454592 [Eh]
	 Singles Energy            =      -0.0000000000000000 [Eh]
	 Same-Spin Energy          =      -0.4521465543196028 [Eh]
	 Opposite-Spin Energy      =      -1.4046305100845369 [Eh]
	 Correlation Energy        =      -1.8567770644041397 [Eh]
	 Total Energy              =    -402.4953316592495867 [Eh]

	 ================> DF-SCS-MP2 Energies <==================
	-----------------------------------------------------------
	 SCS Same-Spin Scale       =       0.3333333333333333 [-]
	 SCS Opposite-Spin Scale   =       1.2000000000000000 [-]
	 SCS Same-Spin Energy      =      -0.1507155181065342 [Eh]
	 SCS Opposite-Spin Energy  =      -1.6855566121014443 [Eh]
	 SCS Correlation Energy    =      -1.8362721302079785 [Eh]
	 SCS Total Energy          =    -402.4748267250534468 [Eh]
	-----------------------------------------------------------

  Dipole Moment: [D]
     X:    -0.9897      Y:     1.8501      Z:    -0.0001     Total:     2.0982

*** Psi4 exiting successfully. Buy a developer a beer!
