                               Psi4 1.3.2 release

  ==> Input File <==

--------------------------------------------------------------------------
#psi4
#
memory 32 gb

molecule  {
0 1
  C       -2.6260010    -1.3181790     0.0001460
  C       -0.2549056    -0.4528372     0.0001736
  C       -1.6028750    -0.2271810    -0.0000330
  C        0.4037930     0.9065250    -0.0001510
  C       -1.8343220     1.1308500    -0.0000640
  C        2.0432510    -1.3188980     0.0000320
  C        2.5978260    -0.0201320    -0.0000760
  C        0.6688440    -1.5149670    -0.0002860
  C        1.7894520     1.1098640     0.0002960
  N       -0.6328400     1.8116850    -0.0001020
  H        2.7093930    -2.1785160    -0.0003580
  H        3.6789480     0.0978590     0.0002690
  H        0.2537760    -2.5213680    -0.0000660
  H        2.2194000     2.1097800     0.0002850
  H       -3.6376700    -0.9013790    -0.0001930
  H       -2.5281620    -1.9588410     0.8832840
  H       -2.7737480     1.6710560    -0.0003610
  H       -0.5326520     2.8176750    -0.0001200
  H       -2.5278290    -1.9594320    -0.8825300
units angstrom
no_reorient  #important for SAPT in psi4, default
symmetry c1  #important for SAPT in psi4, default
}

set PROPERTIES_ORIGIN ["COM"]
properties('MP2/aug-cc-pvtz', properties = ['dipole'])
--------------------------------------------------------------------------

    Molecular point group: c1
  Charge       = 0
  Multiplicity = 1
  Basis Set: AUG-CC-PVTZ
    Blend: AUG-CC-PVTZ
  Basis Set: (AUG-CC-PVTZ AUX)
    Blend: AUG-CC-PVTZ-JKFIT

    Orbital Energies [Eh]
    ---------------------

    Doubly Occupied:

       1A    -15.606718     2A    -11.272386     3A    -11.267610
       4A    -11.230967     5A    -11.230545     6A    -11.229166
       7A    -11.226111     8A    -11.220872     9A    -11.220815
      10A    -11.219667    11A     -1.292470    12A     -1.122738
      13A     -1.082846    14A     -0.996682    15A     -0.979359
      16A     -0.933361    17A     -0.838539    18A     -0.811938
      19A     -0.754260    20A     -0.718707    21A     -0.667647
      22A     -0.646322    23A     -0.602704    24A     -0.592954
      25A     -0.584472    26A     -0.573428    27A     -0.550721
      28A     -0.541749    29A     -0.529886    30A     -0.506689
      31A     -0.461295    32A     -0.460237    33A     -0.385331
      34A     -0.295147    35A     -0.272519

  @DF-RHF Final Energy:  -400.62582848458612

   => Energetics <=

    Nuclear Repulsion Energy =            482.6518570280523477
    One-Electron Energy =               -1498.7016581469217726
    Two-Electron Energy =                 615.4239726342833592
    Total Energy =                       -400.6258284845861226
  Basis Set: (AUG-CC-PVTZ AUX)
    Blend: AUG-CC-PVTZ-RI
    Molecular point group: c1

    Geometry (in Angstrom), charge = 0, multiplicity = 1:

       Center              X                  Y                   Z               Mass
    ------------   -----------------  -----------------  -----------------  -----------------
         C           -2.642754502813    -1.333929242222     0.000151840008    12.000000000000
         C           -0.271659102813    -0.468587442222     0.000179440008    12.000000000000
         C           -1.619628502813    -0.242931242222    -0.000027159992    12.000000000000
         C            0.387039497187     0.890774757778    -0.000145159992    12.000000000000
         C           -1.851075502813     1.115099757778    -0.000058159992    12.000000000000
         C            2.026497497187    -1.334648242222     0.000037840008    12.000000000000
         C            2.581072497187    -0.035882242222    -0.000070159992    12.000000000000
         C            0.652090497187    -1.530717242222    -0.000280159992    12.000000000000
         C            1.772698497187     1.094113757778     0.000301840008    12.000000000000
         N           -0.649593502813     1.795934757778    -0.000096159992    14.003074004430
         H            2.692639497187    -2.194266242222    -0.000352159992     1.007825032230
         H            3.662194497187     0.082108757778     0.000274840008     1.007825032230
         H            0.237022497187    -2.537118242222    -0.000060159992     1.007825032230
         H            2.202646497187     2.094029757778     0.000290840008     1.007825032230
         H           -3.654423502813    -0.917129242222    -0.000187159992     1.007825032230
         H           -2.544915502813    -1.974591242222     0.883289840008     1.007825032230
         H           -2.790501502813     1.655305757778    -0.000355159992     1.007825032230
         H           -0.549405502813     2.801924757778    -0.000114159992     1.007825032230
         H           -2.544582502813    -1.975182242222    -0.882524159992     1.007825032230

  Basis Set: AUG-CC-PVTZ
    Blend: AUG-CC-PVTZ
  Basis Set: (AUG-CC-PVTZ AUX)
    Blend: AUG-CC-PVTZ-JKFIT
	 Reference Energy          =    -400.6258284845861226 [Eh]
	 Singles Energy            =      -0.0000000000000000 [Eh]
	 Same-Spin Energy          =      -0.4537666111261919 [Eh]
	 Opposite-Spin Energy      =      -1.4066659736567910 [Eh]
	 Correlation Energy        =      -1.8604325847829828 [Eh]
	 Total Energy              =    -402.4862610693691067 [Eh]

	 ================> DF-SCS-MP2 Energies <==================
	-----------------------------------------------------------
	 SCS Same-Spin Scale       =       0.3333333333333333 [-]
	 SCS Opposite-Spin Scale   =       1.2000000000000000 [-]
	 SCS Same-Spin Energy      =      -0.1512555370420640 [Eh]
	 SCS Opposite-Spin Energy  =      -1.6879991683881492 [Eh]
	 SCS Correlation Energy    =      -1.8392547054302133 [Eh]
	 SCS Total Energy          =    -402.4650831900163439 [Eh]
	-----------------------------------------------------------

  Dipole Moment: [D]
     X:    -1.0778      Y:     1.9823      Z:    -0.0001     Total:     2.2564

*** Psi4 exiting successfully. Buy a developer a beer!
