                               Psi4 1.4a3.dev225

  ==> Input File <==

--------------------------------------------------------------------------
#psi4
#
memory 32 gb

molecule  {
0 1
  C       -2.6260070    -1.3181640     0.0000030
  C       -0.1785920    -0.3910100    -0.0000140
  C       -1.6028860    -0.2271800    -0.0000070
  C        0.4037990     0.9065080    -0.0000120
  C       -1.8343130     1.1308630     0.0000070
  C        2.0432640    -1.3188820     0.0000040
  C        2.5978420    -0.0201300     0.0000040
  C        0.6688530    -1.5149630     0.0000000
  C        1.7894440     1.1098670     0.0000020
  N       -0.6328500     1.8116730     0.0000060
  H        2.7093900    -2.1785170     0.0000140
  H        3.6789570     0.0979150     0.0000120
  H        0.2538510    -2.5213940    -0.0000090
  H        2.2194160     2.1097700    -0.0000210
  H       -3.6376970    -0.9014040    -0.0000240
  H       -2.5280300    -1.9591080     0.8829250
  H       -2.7737400     1.6710680     0.0000050
  H       -0.5276608     2.8674147     0.0000029
  H       -2.5279980    -1.9591520    -0.8828820
units angstrom
no_reorient  #important for SAPT in psi4, default
symmetry c1  #important for SAPT in psi4, default
}

set PROPERTIES_ORIGIN ["COM"]
properties('MP2/aug-cc-pvtz', properties = ['dipole'])
--------------------------------------------------------------------------

    Molecular point group: c1
  Charge       = 0
  Multiplicity = 1
  Basis Set: AUG-CC-PVTZ
    Blend: AUG-CC-PVTZ
  Basis Set: (AUG-CC-PVTZ AUX)
    Blend: AUG-CC-PVTZ-JKFIT

    Orbital Energies [Eh]
    ---------------------

    Doubly Occupied:

       1A    -15.604322     2A    -11.265142     3A    -11.264436
       4A    -11.231613     5A    -11.230463     6A    -11.229223
       7A    -11.222458     8A    -11.221608     9A    -11.221135
      10A    -11.220808    11A     -1.288480    12A     -1.125874
      13A     -1.070333    14A     -0.996385    15A     -0.985114
      16A     -0.928282    17A     -0.838086    18A     -0.800567
      19A     -0.754516    20A     -0.713495    21A     -0.659587
      22A     -0.644260    23A     -0.602335    24A     -0.591509
      25A     -0.590850    26A     -0.569360    27A     -0.551005
      28A     -0.541664    29A     -0.529375    30A     -0.497381
      31A     -0.475337    32A     -0.462648    33A     -0.374228
      34A     -0.298211    35A     -0.277364

  @DF-RHF Final Energy:  -400.63621234005120

   => Energetics <=

    Nuclear Repulsion Energy =            482.9556376859164288
    One-Electron Energy =               -1499.4287881993614064
    Two-Electron Energy =                 615.8369381733938326
    Total Energy =                       -400.6362123400512019
  Basis Set: (AUG-CC-PVTZ AUX)
    Blend: AUG-CC-PVTZ-RI
    Molecular point group: c1

    Geometry (in Angstrom), charge = 0, multiplicity = 1:

       Center              X                  Y                   Z               Mass
    ------------   -----------------  -----------------  -----------------  -----------------
         C           -2.649787329374    -1.339959327085     0.000003373091    12.000000000000
         C           -0.202372329374    -0.412805327085    -0.000013626909    12.000000000000
         C           -1.626666329374    -0.248975327085    -0.000006626909    12.000000000000
         C            0.380018670626     0.884712672915    -0.000011626909    12.000000000000
         C           -1.858093329374     1.109067672915     0.000007373091    12.000000000000
         C            2.019483670626    -1.340677327085     0.000004373091    12.000000000000
         C            2.574061670626    -0.041925327085     0.000004373091    12.000000000000
         C            0.645072670626    -1.536758327085     0.000000373091    12.000000000000
         C            1.765663670626     1.088071672915     0.000002373091    12.000000000000
         N           -0.656630329374     1.789877672915     0.000006373091    14.003074004430
         H            2.685609670626    -2.200312327085     0.000014373091     1.007825032230
         H            3.655176670626     0.076119672915     0.000012373091     1.007825032230
         H            0.230070670626    -2.543189327085    -0.000008626909     1.007825032230
         H            2.195635670626     2.087974672915    -0.000020626909     1.007825032230
         H           -3.661477329374    -0.923199327085    -0.000023626909     1.007825032230
         H           -2.551810329374    -1.980903327085     0.882925373091     1.007825032230
         H           -2.797520329374     1.649272672915     0.000005373091     1.007825032230
         H           -0.551441129374     2.845619372915     0.000003273091     1.007825032230
         H           -2.551778329374    -1.980947327085    -0.882881626909     1.007825032230

  Basis Set: AUG-CC-PVTZ
    Blend: AUG-CC-PVTZ
  Basis Set: (AUG-CC-PVTZ AUX)
    Blend: AUG-CC-PVTZ-JKFIT
	 Reference Energy          =    -400.6362123400512019 [Eh]
	 Singles Energy            =      -0.0000000000000000 [Eh]
	 Same-Spin Energy          =      -0.4521252442536044 [Eh]
	 Opposite-Spin Energy      =      -1.4051492024300456 [Eh]
	 Correlation Energy        =      -1.8572744466836499 [Eh]
	 Total Energy              =    -402.4934867867348771 [Eh]

	 ================> DF-SCS-MP2 Energies <==================
	-----------------------------------------------------------
	 SCS Same-Spin Scale       =       0.3333333333333333 [-]
	 SCS Opposite-Spin Scale   =       1.2000000000000000 [-]
	 SCS Same-Spin Energy      =      -0.1507084147512014 [Eh]
	 SCS Opposite-Spin Energy  =      -1.6861790429160546 [Eh]
	 SCS Correlation Energy    =      -1.8368874576672560 [Eh]
	 SCS Total Energy          =    -402.4730997977184757 [Eh]
	-----------------------------------------------------------

  Dipole Moment: [D]
     X:    -0.9589      Y:     1.8657      Z:    -0.0000     Total:     2.0977

*** Psi4 exiting successfully. Buy a developer a beer!
