                               Psi4 1.3.2 release

  ==> Input File <==

--------------------------------------------------------------------------
#psi4
#
memory 32 gb

molecule  {
0 1
  C       -2.6260010    -1.3181790     0.0001460
  C       -0.0866365    -0.4284495     0.0002731
  C       -1.6028750    -0.2271810    -0.0000330
  C        0.4037930     0.9065250    -0.0001510
  C       -1.8343220     1.1308500    -0.0000640
  C        2.0432510    -1.3188980     0.0000320
  C        2.5978260    -0.0201320    -0.0000760
  C        0.6688440    -1.5149670    -0.0002860
  C        1.7894520     1.1098640     0.0002960
  N       -0.6328400     1.8116850    -0.0001020
  H        2.7093930    -2.1785160    -0.0003580
  H        3.6789480     0.0978590     0.0002690
  H        0.2537760    -2.5213680    -0.0000660
  H        2.2194000     2.1097800     0.0002850
  H       -3.6376700    -0.9013790    -0.0001930
  H       -2.5281620    -1.9588410     0.8832840
  H       -2.7737480     1.6710560    -0.0003610
  H       -0.5326520     2.8176750    -0.0001200
  H       -2.5278290    -1.9594320    -0.8825300
units angstrom
no_reorient  #important for SAPT in psi4, default
symmetry c1  #important for SAPT in psi4, default
}

set PROPERTIES_ORIGIN ["COM"]
properties('MP2/aug-cc-pvtz', properties = ['dipole'])
--------------------------------------------------------------------------

    Molecular point group: c1
  Charge       = 0
  Multiplicity = 1
  Basis Set: AUG-CC-PVTZ
    Blend: AUG-CC-PVTZ
  Basis Set: (AUG-CC-PVTZ AUX)
    Blend: AUG-CC-PVTZ-JKFIT

    Orbital Energies [Eh]
    ---------------------

    Doubly Occupied:

       1A    -15.596945     2A    -11.268729     3A    -11.264885
       4A    -11.230297     5A    -11.228991     6A    -11.228203
       7A    -11.223282     8A    -11.221613     9A    -11.220299
      10A    -11.220072    11A     -1.287372    12A     -1.137420
      13A     -1.063126    14A     -1.003651    15A     -0.986898
      16A     -0.927461    17A     -0.842391    18A     -0.802059
      19A     -0.752995    20A     -0.720117    21A     -0.656799
      22A     -0.644489    23A     -0.607392    24A     -0.601129
      25A     -0.589115    26A     -0.569631    27A     -0.550885
      28A     -0.538651    29A     -0.530141    30A     -0.503966
      31A     -0.469908    32A     -0.457023    33A     -0.373600
      34A     -0.296550    35A     -0.282430

  @DF-RHF Final Energy:  -400.62917822483632

   => Energetics <=

    Nuclear Repulsion Energy =            483.2085110326963218
    One-Electron Energy =               -1499.8783506631677938
    Two-Electron Energy =                 616.0406614056350918
    Total Energy =                       -400.6291782248363234
  Basis Set: (AUG-CC-PVTZ AUX)
    Blend: AUG-CC-PVTZ-RI
    Molecular point group: c1

    Geometry (in Angstrom), charge = 0, multiplicity = 1:

       Center              X                  Y                   Z               Mass
    ------------   -----------------  -----------------  -----------------  -----------------
         C           -2.658159822811    -1.336161977303     0.000142730615    12.000000000000
         C           -0.118795322811    -0.446432477303     0.000269830615    12.000000000000
         C           -1.635033822811    -0.245163977303    -0.000036269385    12.000000000000
         C            0.371634177189     0.888542022697    -0.000154269385    12.000000000000
         C           -1.866480822811     1.112867022697    -0.000067269385    12.000000000000
         C            2.011092177189    -1.336880977303     0.000028730615    12.000000000000
         C            2.565667177189    -0.038114977303    -0.000079269385    12.000000000000
         C            0.636685177189    -1.532949977303    -0.000289269385    12.000000000000
         C            1.757293177189     1.091881022697     0.000292730615    12.000000000000
         N           -0.664998822811     1.793702022697    -0.000105269385    14.003074004430
         H            2.677234177189    -2.196498977303    -0.000361269385     1.007825032230
         H            3.646789177189     0.079876022697     0.000265730615     1.007825032230
         H            0.221617177189    -2.539350977303    -0.000069269385     1.007825032230
         H            2.187241177189     2.091797022697     0.000281730615     1.007825032230
         H           -3.669828822811    -0.919361977303    -0.000196269385     1.007825032230
         H           -2.560320822811    -1.976823977303     0.883280730615     1.007825032230
         H           -2.805906822811     1.653073022697    -0.000364269385     1.007825032230
         H           -0.564810822811     2.799692022697    -0.000123269385     1.007825032230
         H           -2.559987822811    -1.977414977303    -0.882533269385     1.007825032230

  Basis Set: AUG-CC-PVTZ
    Blend: AUG-CC-PVTZ
  Basis Set: (AUG-CC-PVTZ AUX)
    Blend: AUG-CC-PVTZ-JKFIT
	 Reference Energy          =    -400.6291782248363234 [Eh]
	 Singles Energy            =      -0.0000000000000000 [Eh]
	 Same-Spin Energy          =      -0.4507335990245593 [Eh]
	 Opposite-Spin Energy      =      -1.4031519561237578 [Eh]
	 Correlation Energy        =      -1.8538855551483171 [Eh]
	 Total Energy              =    -402.4830637799846613 [Eh]

	 ================> DF-SCS-MP2 Energies <==================
	-----------------------------------------------------------
	 SCS Same-Spin Scale       =       0.3333333333333333 [-]
	 SCS Opposite-Spin Scale   =       1.2000000000000000 [-]
	 SCS Same-Spin Energy      =      -0.1502445330081864 [Eh]
	 SCS Opposite-Spin Energy  =      -1.6837823473485092 [Eh]
	 SCS Correlation Energy    =      -1.8340268803566957 [Eh]
	 SCS Total Energy          =    -402.4632051051930262 [Eh]
	-----------------------------------------------------------

  Dipole Moment: [D]
     X:    -0.8800      Y:     1.7312      Z:    -0.0001     Total:     1.9420

*** Psi4 exiting successfully. Buy a developer a beer!
