                               Psi4 1.3.2 release

  ==> Input File <==

--------------------------------------------------------------------------
#psi4
#
memory 32 gb

molecule  {
0 1
  C       -2.6260010    -1.3181790     0.0001460
  C       -0.1785650    -0.3909870     0.0002200
  C       -1.6055169    -0.2520636    -0.0000496
  C        0.4037930     0.9065250    -0.0001510
  C       -1.8343220     1.1308500    -0.0000640
  C        2.0432510    -1.3188980     0.0000320
  C        2.5978260    -0.0201320    -0.0000760
  C        0.6688440    -1.5149670    -0.0002860
  C        1.7894520     1.1098640     0.0002960
  N       -0.6328400     1.8116850    -0.0001020
  H        2.7093930    -2.1785160    -0.0003580
  H        3.6789480     0.0978590     0.0002690
  H        0.2537760    -2.5213680    -0.0000660
  H        2.2194000     2.1097800     0.0002850
  H       -3.6376700    -0.9013790    -0.0001930
  H       -2.5281620    -1.9588410     0.8832840
  H       -2.7737480     1.6710560    -0.0003610
  H       -0.5326520     2.8176750    -0.0001200
  H       -2.5278290    -1.9594320    -0.8825300
units angstrom
no_reorient  #important for SAPT in psi4, default
symmetry c1  #important for SAPT in psi4, default
}

set PROPERTIES_ORIGIN ["COM"]
properties('MP2/aug-cc-pvtz', properties = ['dipole'])
--------------------------------------------------------------------------

    Molecular point group: c1
  Charge       = 0
  Multiplicity = 1
  Basis Set: AUG-CC-PVTZ
    Blend: AUG-CC-PVTZ
  Basis Set: (AUG-CC-PVTZ AUX)
    Blend: AUG-CC-PVTZ-JKFIT

    Orbital Energies [Eh]
    ---------------------

    Doubly Occupied:

       1A    -15.601724     2A    -11.267503     3A    -11.265394
       4A    -11.232093     5A    -11.229885     6A    -11.229099
       7A    -11.224389     8A    -11.222397     9A    -11.220942
      10A    -11.220792    11A     -1.290964    12A     -1.127126
      13A     -1.072550    14A     -0.997804    15A     -0.986015
      16A     -0.930203    17A     -0.838711    18A     -0.803673
      19A     -0.756310    20A     -0.720356    21A     -0.659117
      22A     -0.644044    23A     -0.604594    24A     -0.592879
      25A     -0.592074    26A     -0.569314    27A     -0.552419
      28A     -0.546722    29A     -0.528683    30A     -0.494760
      31A     -0.477660    32A     -0.462834    33A     -0.373299
      34A     -0.298939    35A     -0.274419

  @DF-RHF Final Energy:  -400.63795536535440

   => Energetics <=

    Nuclear Repulsion Energy =            483.0716819151986670
    One-Electron Energy =               -1499.5999031126980299
    Two-Electron Energy =                 615.8902658321449053
    Total Energy =                       -400.6379553653544008
  Basis Set: (AUG-CC-PVTZ AUX)
    Blend: AUG-CC-PVTZ-RI
    Molecular point group: c1

    Geometry (in Angstrom), charge = 0, multiplicity = 1:

       Center              X                  Y                   Z               Mass
    ------------   -----------------  -----------------  -----------------  -----------------
         C           -2.649501743138    -1.337313688372     0.000149111768    12.000000000000
         C           -0.202065743138    -0.410121688372     0.000223111768    12.000000000000
         C           -1.629017643138    -0.271198288372    -0.000046488232    12.000000000000
         C            0.380292256862     0.887390311628    -0.000147888232    12.000000000000
         C           -1.857822743138     1.111715311628    -0.000060888232    12.000000000000
         C            2.019750256862    -1.338032688372     0.000035111768    12.000000000000
         C            2.574325256862    -0.039266688372    -0.000072888232    12.000000000000
         C            0.645343256862    -1.534101688372    -0.000282888232    12.000000000000
         C            1.765951256862     1.090729311628     0.000299111768    12.000000000000
         N           -0.656340743138     1.792550311628    -0.000098888232    14.003074004430
         H            2.685892256862    -2.197650688372    -0.000354888232     1.007825032230
         H            3.655447256862     0.078724311628     0.000272111768     1.007825032230
         H            0.230275256862    -2.540502688372    -0.000062888232     1.007825032230
         H            2.195899256862     2.090645311628     0.000288111768     1.007825032230
         H           -3.661170743138    -0.920513688372    -0.000189888232     1.007825032230
         H           -2.551662743138    -1.977975688372     0.883287111768     1.007825032230
         H           -2.797248743138     1.651921311628    -0.000357888232     1.007825032230
         H           -0.556152743138     2.798540311628    -0.000116888232     1.007825032230
         H           -2.551329743138    -1.978566688372    -0.882526888232     1.007825032230

  Basis Set: AUG-CC-PVTZ
    Blend: AUG-CC-PVTZ
  Basis Set: (AUG-CC-PVTZ AUX)
    Blend: AUG-CC-PVTZ-JKFIT
	 Reference Energy          =    -400.6379553653544008 [Eh]
	 Singles Energy            =      -0.0000000000000000 [Eh]
	 Same-Spin Energy          =      -0.4522286970936311 [Eh]
	 Opposite-Spin Energy      =      -1.4049742554683951 [Eh]
	 Correlation Energy        =      -1.8572029525620262 [Eh]
	 Total Energy              =    -402.4951583179164345 [Eh]

	 ================> DF-SCS-MP2 Energies <==================
	-----------------------------------------------------------
	 SCS Same-Spin Scale       =       0.3333333333333333 [-]
	 SCS Opposite-Spin Scale   =       1.2000000000000000 [-]
	 SCS Same-Spin Energy      =      -0.1507428990312104 [Eh]
	 SCS Opposite-Spin Energy  =      -1.6859691065620741 [Eh]
	 SCS Correlation Energy    =      -1.8367120055932844 [Eh]
	 SCS Total Energy          =    -402.4746673709477136 [Eh]
	-----------------------------------------------------------

  Dipole Moment: [D]
     X:    -0.9693      Y:     1.8056      Z:    -0.0001     Total:     2.0493

*** Psi4 exiting successfully. Buy a developer a beer!
