                               Psi4 1.3.2 release

  ==> Input File <==

--------------------------------------------------------------------------
#psi4
#
memory 32 gb

molecule  {
0 1
  C       -2.6260010    -1.3181790     0.0001460
  C       -0.2172751    -0.4212458     0.0001971
  C       -1.6028750    -0.2271810    -0.0000330
  C        0.4037930     0.9065250    -0.0001510
  C       -1.8343220     1.1308500    -0.0000640
  C        2.0432510    -1.3188980     0.0000320
  C        2.5978260    -0.0201320    -0.0000760
  C        0.6688440    -1.5149670    -0.0002860
  C        1.7894520     1.1098640     0.0002960
  N       -0.6328400     1.8116850    -0.0001020
  H        2.7093930    -2.1785160    -0.0003580
  H        3.6789480     0.0978590     0.0002690
  H        0.2537760    -2.5213680    -0.0000660
  H        2.2194000     2.1097800     0.0002850
  H       -3.6376700    -0.9013790    -0.0001930
  H       -2.5281620    -1.9588410     0.8832840
  H       -2.7737480     1.6710560    -0.0003610
  H       -0.5326520     2.8176750    -0.0001200
  H       -2.5278290    -1.9594320    -0.8825300
units angstrom
no_reorient  #important for SAPT in psi4, default
symmetry c1  #important for SAPT in psi4, default
}

set PROPERTIES_ORIGIN ["COM"]
properties('MP2/aug-cc-pvtz', properties = ['dipole'])
--------------------------------------------------------------------------

    Molecular point group: c1
  Charge       = 0
  Multiplicity = 1
  Basis Set: AUG-CC-PVTZ
    Blend: AUG-CC-PVTZ
  Basis Set: (AUG-CC-PVTZ AUX)
    Blend: AUG-CC-PVTZ-JKFIT

    Orbital Energies [Eh]
    ---------------------

    Doubly Occupied:

       1A    -15.603320     2A    -11.269102     3A    -11.266080
       4A    -11.231386     5A    -11.230441     6A    -11.229298
       7A    -11.224130     8A    -11.221434     9A    -11.220883
      10A    -11.220731    11A     -1.292078    12A     -1.124590
      13A     -1.077492    14A     -0.996835    15A     -0.982412
      16A     -0.932237    17A     -0.838518    18A     -0.807908
      19A     -0.754766    20A     -0.719674    21A     -0.663790
      22A     -0.645372    23A     -0.603151    24A     -0.592382
      25A     -0.588193    26A     -0.571419    27A     -0.551027
      28A     -0.542229    29A     -0.529886    30A     -0.501886
      31A     -0.469666    32A     -0.462093    33A     -0.379889
      34A     -0.296441    35A     -0.275372

  @DF-RHF Final Energy:  -400.63557992267806

   => Energetics <=

    Nuclear Repulsion Energy =            482.9504572433652356
    One-Electron Energy =               -1499.3398517602026914
    Two-Electron Energy =                 615.7538145941593939
    Total Energy =                       -400.6355799226780618
  Basis Set: (AUG-CC-PVTZ AUX)
    Blend: AUG-CC-PVTZ-RI
    Molecular point group: c1

    Geometry (in Angstrom), charge = 0, multiplicity = 1:

       Center              X                  Y                   Z               Mass
    ------------   -----------------  -----------------  -----------------  -----------------
         C           -2.646199638576    -1.336821488191     0.000149688543    12.000000000000
         C           -0.237473738576    -0.439888288191     0.000200788543    12.000000000000
         C           -1.623073638576    -0.245823488191    -0.000029311457    12.000000000000
         C            0.383594361424     0.887882511809    -0.000147311457    12.000000000000
         C           -1.854520638576     1.112207511809    -0.000060311457    12.000000000000
         C            2.023052361424    -1.337540488191     0.000035688543    12.000000000000
         C            2.577627361424    -0.038774488191    -0.000072311457    12.000000000000
         C            0.648645361424    -1.533609488191    -0.000282311457    12.000000000000
         C            1.769253361424     1.091221511809     0.000299688543    12.000000000000
         N           -0.653038638576     1.793042511809    -0.000098311457    14.003074004430
         H            2.689194361424    -2.197158488191    -0.000354311457     1.007825032230
         H            3.658749361424     0.079216511809     0.000272688543     1.007825032230
         H            0.233577361424    -2.540010488191    -0.000062311457     1.007825032230
         H            2.199201361424     2.091137511809     0.000288688543     1.007825032230
         H           -3.657868638576    -0.920021488191    -0.000189311457     1.007825032230
         H           -2.548360638576    -1.977483488191     0.883287688543     1.007825032230
         H           -2.793946638576     1.652413511809    -0.000357311457     1.007825032230
         H           -0.552850638576     2.799032511809    -0.000116311457     1.007825032230
         H           -2.548027638576    -1.978074488191    -0.882526311457     1.007825032230

  Basis Set: AUG-CC-PVTZ
    Blend: AUG-CC-PVTZ
  Basis Set: (AUG-CC-PVTZ AUX)
    Blend: AUG-CC-PVTZ-JKFIT
	 Reference Energy          =    -400.6355799226780618 [Eh]
	 Singles Energy            =      -0.0000000000000000 [Eh]
	 Same-Spin Energy          =      -0.4526464247657190 [Eh]
	 Opposite-Spin Energy      =      -1.4052225899437514 [Eh]
	 Correlation Energy        =      -1.8578690147094703 [Eh]
	 Total Energy              =    -402.4934489373875408 [Eh]

	 ================> DF-SCS-MP2 Energies <==================
	-----------------------------------------------------------
	 SCS Same-Spin Scale       =       0.3333333333333333 [-]
	 SCS Opposite-Spin Scale   =       1.2000000000000000 [-]
	 SCS Same-Spin Energy      =      -0.1508821415885730 [Eh]
	 SCS Opposite-Spin Energy  =      -1.6862671079325016 [Eh]
	 SCS Correlation Energy    =      -1.8371492495210746 [Eh]
	 SCS Total Energy          =    -402.4727291721991378 [Eh]
	-----------------------------------------------------------

  Dipole Moment: [D]
     X:    -1.0205      Y:     1.8949      Z:    -0.0001     Total:     2.1522

*** Psi4 exiting successfully. Buy a developer a beer!
