                               Psi4 1.4a3.dev225

  ==> Input File <==

--------------------------------------------------------------------------
#psi4
#
memory 32 gb

molecule  {
0 1
  C       -2.6260070    -1.3181640     0.0000030
  C       -0.1785920    -0.3910100    -0.0000140
  C       -1.6028860    -0.2271800    -0.0000070
  C        0.4037990     0.9065080    -0.0000120
  C       -1.8343130     1.1308630     0.0000070
  C        2.0432640    -1.3188820     0.0000040
  C        2.5978420    -0.0201300     0.0000040
  C        0.6688530    -1.5149630     0.0000000
  C        1.7894440     1.1098670     0.0000020
  N       -0.6328500     1.8116730     0.0000060
  H        2.7093900    -2.1785170     0.0000140
  H        3.6789570     0.0979150     0.0000120
  H        0.2538510    -2.5213940    -0.0000090
  H        2.2194160     2.1097700    -0.0000210
  H       -3.6376970    -0.9014040    -0.0000240
  H       -2.5280300    -1.9591080     0.8829250
  H       -2.7737400     1.6710680     0.0000050
  H       -0.5346009     2.7977595     0.0000031
  H       -2.5279980    -1.9591520    -0.8828820
units angstrom
no_reorient  #important for SAPT in psi4, default
symmetry c1  #important for SAPT in psi4, default
}

set PROPERTIES_ORIGIN ["COM"]
properties('MP2/aug-cc-pvtz', properties = ['dipole'])
--------------------------------------------------------------------------

    Molecular point group: c1
  Charge       = 0
  Multiplicity = 1
  Basis Set: AUG-CC-PVTZ
    Blend: AUG-CC-PVTZ
  Basis Set: (AUG-CC-PVTZ AUX)
    Blend: AUG-CC-PVTZ-JKFIT

    Orbital Energies [Eh]
    ---------------------

    Doubly Occupied:

       1A    -15.598074     2A    -11.265337     3A    -11.264597
       4A    -11.231954     5A    -11.230717     6A    -11.229544
       7A    -11.222838     8A    -11.221897     9A    -11.221446
      10A    -11.221160    11A     -1.293140    12A     -1.127503
      13A     -1.072915    14A     -0.997741    15A     -0.985947
      16A     -0.932109    17A     -0.839408    18A     -0.805428
      19A     -0.756386    20A     -0.722498    21A     -0.660113
      22A     -0.644747    23A     -0.604016    24A     -0.593315
      25A     -0.592125    26A     -0.569843    27A     -0.551534
      28A     -0.542547    29A     -0.529821    30A     -0.497745
      31A     -0.475919    32A     -0.463225    33A     -0.374666
      34A     -0.298817    35A     -0.277875

  @DF-RHF Final Energy:  -400.64067106103329

   => Energetics <=

    Nuclear Repulsion Energy =            483.3846068153774809
    One-Electron Energy =               -1500.2166591534091822
    Two-Electron Energy =                 616.1913812769982997
    Total Energy =                       -400.6406710610333448
  Basis Set: (AUG-CC-PVTZ AUX)
    Blend: AUG-CC-PVTZ-RI
    Molecular point group: c1

    Geometry (in Angstrom), charge = 0, multiplicity = 1:

       Center              X                  Y                   Z               Mass
    ------------   -----------------  -----------------  -----------------  -----------------
         C           -2.649733966898    -1.339423747776     0.000003371553    12.000000000000
         C           -0.202318966898    -0.412269747776    -0.000013628447    12.000000000000
         C           -1.626612966898    -0.248439747776    -0.000006628447    12.000000000000
         C            0.380072033102     0.885248252224    -0.000011628447    12.000000000000
         C           -1.858039966898     1.109603252224     0.000007371553    12.000000000000
         C            2.019537033102    -1.340141747776     0.000004371553    12.000000000000
         C            2.574115033102    -0.041389747776     0.000004371553    12.000000000000
         C            0.645126033102    -1.536222747776     0.000000371553    12.000000000000
         C            1.765717033102     1.088607252224     0.000002371553    12.000000000000
         N           -0.656576966898     1.790413252224     0.000006371553    14.003074004430
         H            2.685663033102    -2.199776747776     0.000014371553     1.007825032230
         H            3.655230033102     0.076655252224     0.000012371553     1.007825032230
         H            0.230124033102    -2.542653747776    -0.000008628447     1.007825032230
         H            2.195689033102     2.088510252224    -0.000020628447     1.007825032230
         H           -3.661423966898    -0.922663747776    -0.000023628447     1.007825032230
         H           -2.551756966898    -1.980367747776     0.882925371553     1.007825032230
         H           -2.797466966898     1.649808252224     0.000005371553     1.007825032230
         H           -0.558327866898     2.776499752224     0.000003471553     1.007825032230
         H           -2.551724966898    -1.980411747776    -0.882881628447     1.007825032230

  Basis Set: AUG-CC-PVTZ
    Blend: AUG-CC-PVTZ
  Basis Set: (AUG-CC-PVTZ AUX)
    Blend: AUG-CC-PVTZ-JKFIT
	 Reference Energy          =    -400.6406710610332880 [Eh]
	 Singles Energy            =      -0.0000000000000000 [Eh]
	 Same-Spin Energy          =      -0.4515193191247727 [Eh]
	 Opposite-Spin Energy      =      -1.4037427756009018 [Eh]
	 Correlation Energy        =      -1.8552620947256744 [Eh]
	 Total Energy              =    -402.4959331557589621 [Eh]

	 ================> DF-SCS-MP2 Energies <==================
	-----------------------------------------------------------
	 SCS Same-Spin Scale       =       0.3333333333333333 [-]
	 SCS Opposite-Spin Scale   =       1.2000000000000000 [-]
	 SCS Same-Spin Energy      =      -0.1505064397082576 [Eh]
	 SCS Opposite-Spin Energy  =      -1.6844913307210820 [Eh]
	 SCS Correlation Energy    =      -1.8349977704293396 [Eh]
	 SCS Total Energy          =    -402.4756688314626558 [Eh]
	-----------------------------------------------------------

  Dipole Moment: [D]
     X:    -0.9570      Y:     1.7803      Z:    -0.0000     Total:     2.0212

*** Psi4 exiting successfully. Buy a developer a beer!
