                               Psi4 1.3.2 release

  ==> Input File <==

--------------------------------------------------------------------------
#psi4
#
memory 32 gb

molecule  {
0 1
  C       -2.6260010    -1.3181790     0.0001460
  C       -0.1785650    -0.3909870     0.0002200
  C       -1.6028750    -0.2271810    -0.0000330
  C        0.4037930     0.9065250    -0.0001510
  C       -1.8343220     1.1308500    -0.0000640
  C        2.0432510    -1.3188980     0.0000320
  C        2.5978260    -0.0201320    -0.0000760
  C        0.6688440    -1.5149670    -0.0002860
  C        1.7894520     1.1098640     0.0002960
  N       -0.6328400     1.8116850    -0.0001020
  H        2.7093930    -2.1785160    -0.0003580
  H        3.6789480     0.0978590     0.0002690
  H        0.2537760    -2.5213680    -0.0000660
  H        2.1403969     1.9260451     0.0002870
  H       -3.6376700    -0.9013790    -0.0001930
  H       -2.5281620    -1.9588410     0.8832840
  H       -2.7737480     1.6710560    -0.0003610
  H       -0.5326520     2.8176750    -0.0001200
  H       -2.5278290    -1.9594320    -0.8825300
units angstrom
no_reorient  #important for SAPT in psi4, default
symmetry c1  #important for SAPT in psi4, default
}

set PROPERTIES_ORIGIN ["COM"]
properties('MP2/aug-cc-pvtz', properties = ['dipole'])
--------------------------------------------------------------------------

    Molecular point group: c1
  Charge       = 0
  Multiplicity = 1
  Basis Set: AUG-CC-PVTZ
    Blend: AUG-CC-PVTZ
  Basis Set: (AUG-CC-PVTZ AUX)
    Blend: AUG-CC-PVTZ-JKFIT

    Orbital Energies [Eh]
    ---------------------

    Doubly Occupied:

       1A    -15.599760     2A    -11.264058     3A    -11.263845
       4A    -11.230291     5A    -11.228466     6A    -11.222159
       7A    -11.221169     8A    -11.220628     9A    -11.219945
      10A    -11.207431    11A     -1.291451    12A     -1.127852
      13A     -1.074183    14A     -1.004954    15A     -0.985117
      16A     -0.930629    17A     -0.850548    18A     -0.803375
      19A     -0.766763    20A     -0.725286    21A     -0.670092
      22A     -0.648228    23A     -0.615532    24A     -0.596436
      25A     -0.591495    26A     -0.569045    27A     -0.551027
      28A     -0.542265    29A     -0.528855    30A     -0.498231
      31A     -0.479975    32A     -0.462280    33A     -0.374045
      34A     -0.297883    35A     -0.277287

  @DF-RHF Final Energy:  -400.60594117025778

   => Energetics <=

    Nuclear Repulsion Energy =            484.4380203034621104
    One-Electron Energy =               -1502.2067526023427035
    Two-Electron Energy =                 617.1627911286228709
    Total Energy =                       -400.6059411702577790
  Basis Set: (AUG-CC-PVTZ AUX)
    Blend: AUG-CC-PVTZ-RI
    Molecular point group: c1

    Geometry (in Angstrom), charge = 0, multiplicity = 1:

       Center              X                  Y                   Z               Mass
    ------------   -----------------  -----------------  -----------------  -----------------
         C           -2.649136158164    -1.338178993480     0.000147576632    12.000000000000
         C           -0.201700158164    -0.410986993480     0.000221576632    12.000000000000
         C           -1.626010158164    -0.247180993480    -0.000031423368    12.000000000000
         C            0.380657841836     0.886525006520    -0.000149423368    12.000000000000
         C           -1.857457158164     1.110850006520    -0.000062423368    12.000000000000
         C            2.020115841836    -1.338897993480     0.000033576632    12.000000000000
         C            2.574690841836    -0.040131993480    -0.000074423368    12.000000000000
         C            0.645708841836    -1.534966993480    -0.000284423368    12.000000000000
         C            1.766316841836     1.089864006520     0.000297576632    12.000000000000
         N           -0.655975158164     1.791685006520    -0.000100423368    14.003074004430
         H            2.686257841836    -2.198515993480    -0.000356423368     1.007825032230
         H            3.655812841836     0.077859006520     0.000270576632     1.007825032230
         H            0.230640841836    -2.541367993480    -0.000064423368     1.007825032230
         H            2.117261741836     1.906045106520     0.000288576632     1.007825032230
         H           -3.660805158164    -0.921378993480    -0.000191423368     1.007825032230
         H           -2.551297158164    -1.978840993480     0.883285576632     1.007825032230
         H           -2.796883158164     1.651056006520    -0.000359423368     1.007825032230
         H           -0.555787158164     2.797675006520    -0.000118423368     1.007825032230
         H           -2.550964158164    -1.979431993480    -0.882528423368     1.007825032230

  Basis Set: AUG-CC-PVTZ
    Blend: AUG-CC-PVTZ
  Basis Set: (AUG-CC-PVTZ AUX)
    Blend: AUG-CC-PVTZ-JKFIT
	 Reference Energy          =    -400.6059411702577790 [Eh]
	 Singles Energy            =      -0.0000000000000000 [Eh]
	 Same-Spin Energy          =      -0.4514529284074471 [Eh]
	 Opposite-Spin Energy      =      -1.4034836226087650 [Eh]
	 Correlation Energy        =      -1.8549365510162121 [Eh]
	 Total Energy              =    -402.4608777212740165 [Eh]

	 ================> DF-SCS-MP2 Energies <==================
	-----------------------------------------------------------
	 SCS Same-Spin Scale       =       0.3333333333333333 [-]
	 SCS Opposite-Spin Scale   =       1.2000000000000000 [-]
	 SCS Same-Spin Energy      =      -0.1504843094691490 [Eh]
	 SCS Opposite-Spin Energy  =      -1.6841803471305179 [Eh]
	 SCS Correlation Energy    =      -1.8346646565996669 [Eh]
	 SCS Total Energy          =    -402.4406058268574498 [Eh]
	-----------------------------------------------------------

  Dipole Moment: [D]
     X:    -0.9331      Y:     1.8485      Z:    -0.0001     Total:     2.0706

*** Psi4 exiting successfully. Buy a developer a beer!
