                               Psi4 1.3.2 release

  ==> Input File <==

--------------------------------------------------------------------------
#psi4
#
memory 32 gb

molecule  {
0 1
  C       -2.6260010    -1.3181790     0.0001460
  C       -0.1785650    -0.3909870     0.0002200
  C       -1.6028750    -0.2271810    -0.0000330
  C        0.4037930     0.9065250    -0.0001510
  C       -1.8343220     1.1308500    -0.0000640
  C        2.0432510    -1.3188980     0.0000320
  C        2.5521619    -0.0015688    -0.0000914
  C        0.6688440    -1.5149670    -0.0002860
  C        1.7894520     1.1098640     0.0002960
  N       -0.6328400     1.8116850    -0.0001020
  H        2.7093930    -2.1785160    -0.0003580
  H        3.6789480     0.0978590     0.0002690
  H        0.2537760    -2.5213680    -0.0000660
  H        2.2194000     2.1097800     0.0002850
  H       -3.6376700    -0.9013790    -0.0001930
  H       -2.5281620    -1.9588410     0.8832840
  H       -2.7737480     1.6710560    -0.0003610
  H       -0.5326520     2.8176750    -0.0001200
  H       -2.5278290    -1.9594320    -0.8825300
units angstrom
no_reorient  #important for SAPT in psi4, default
symmetry c1  #important for SAPT in psi4, default
}

set PROPERTIES_ORIGIN ["COM"]
properties('MP2/aug-cc-pvtz', properties = ['dipole'])
--------------------------------------------------------------------------

    Molecular point group: c1
  Charge       = 0
  Multiplicity = 1
  Basis Set: AUG-CC-PVTZ
    Blend: AUG-CC-PVTZ
  Basis Set: (AUG-CC-PVTZ AUX)
    Blend: AUG-CC-PVTZ-JKFIT

    Orbital Energies [Eh]
    ---------------------

    Doubly Occupied:

       1A    -15.600253     2A    -11.265020     3A    -11.262903
       4A    -11.231008     5A    -11.229227     6A    -11.227110
       7A    -11.222332     8A    -11.221252     9A    -11.220539
      10A    -11.220375    11A     -1.291472    12A     -1.131623
      13A     -1.073239    14A     -1.000952    15A     -0.984732
      16A     -0.930785    17A     -0.838668    18A     -0.802080
      19A     -0.756254    20A     -0.720512    21A     -0.656788
      22A     -0.645116    23A     -0.603824    24A     -0.595868
      25A     -0.592033    26A     -0.569585    27A     -0.551494
      28A     -0.541968    29A     -0.522198    30A     -0.501339
      31A     -0.471429    32A     -0.466253    33A     -0.376919
      34A     -0.297709    35A     -0.279727

  @DF-RHF Final Energy:  -400.63742358142434

   => Energetics <=

    Nuclear Repulsion Energy =            484.1514813838862210
    One-Electron Energy =               -1501.7726381809247869
    Two-Electron Energy =                 616.9837332156141656
    Total Energy =                       -400.6374235814244003
  Basis Set: (AUG-CC-PVTZ AUX)
    Blend: AUG-CC-PVTZ-RI
    Molecular point group: c1

    Geometry (in Angstrom), charge = 0, multiplicity = 1:

       Center              X                  Y                   Z               Mass
    ------------   -----------------  -----------------  -----------------  -----------------
         C           -2.645562988143    -1.341291224661     0.000149001906    12.000000000000
         C           -0.198126988143    -0.414099224661     0.000223001906    12.000000000000
         C           -1.622436988143    -0.250293224661    -0.000029998094    12.000000000000
         C            0.384231011857     0.883412775339    -0.000147998094    12.000000000000
         C           -1.853883988143     1.107737775339    -0.000060998094    12.000000000000
         C            2.023689011857    -1.342010224661     0.000035001906    12.000000000000
         C            2.532599911857    -0.024681024661    -0.000088398094    12.000000000000
         C            0.649282011857    -1.538079224661    -0.000282998094    12.000000000000
         C            1.769890011857     1.086751775339     0.000299001906    12.000000000000
         N           -0.652401988143     1.788572775339    -0.000098998094    14.003074004430
         H            2.689831011857    -2.201628224661    -0.000354998094     1.007825032230
         H            3.659386011857     0.074746775339     0.000272001906     1.007825032230
         H            0.234214011857    -2.544480224661    -0.000062998094     1.007825032230
         H            2.199838011857     2.086667775339     0.000288001906     1.007825032230
         H           -3.657231988143    -0.924491224661    -0.000189998094     1.007825032230
         H           -2.547723988143    -1.981953224661     0.883287001906     1.007825032230
         H           -2.793309988143     1.647943775339    -0.000357998094     1.007825032230
         H           -0.552213988143     2.794562775339    -0.000116998094     1.007825032230
         H           -2.547390988143    -1.982544224661    -0.882526998094     1.007825032230

  Basis Set: AUG-CC-PVTZ
    Blend: AUG-CC-PVTZ
  Basis Set: (AUG-CC-PVTZ AUX)
    Blend: AUG-CC-PVTZ-JKFIT
	 Reference Energy          =    -400.6374235814243434 [Eh]
	 Singles Energy            =      -0.0000000000000000 [Eh]
	 Same-Spin Energy          =      -0.4516248404101055 [Eh]
	 Opposite-Spin Energy      =      -1.4039887920276222 [Eh]
	 Correlation Energy        =      -1.8556136324377277 [Eh]
	 Total Energy              =    -402.4930372138620669 [Eh]

	 ================> DF-SCS-MP2 Energies <==================
	-----------------------------------------------------------
	 SCS Same-Spin Scale       =       0.3333333333333333 [-]
	 SCS Opposite-Spin Scale   =       1.2000000000000000 [-]
	 SCS Same-Spin Energy      =      -0.1505416134700352 [Eh]
	 SCS Opposite-Spin Energy  =      -1.6847865504331465 [Eh]
	 SCS Correlation Energy    =      -1.8353281639031818 [Eh]
	 SCS Total Energy          =    -402.4727517453275141 [Eh]
	-----------------------------------------------------------

  Dipole Moment: [D]
     X:    -0.9411      Y:     1.8020      Z:    -0.0001     Total:     2.0330

*** Psi4 exiting successfully. Buy a developer a beer!
