                               Psi4 1.3.2 release

  ==> Input File <==

--------------------------------------------------------------------------
#psi4
#
memory 32 gb

molecule  {
0 1
  C       -2.6260010    -1.3181790     0.0001460
  C       -0.1785650    -0.3909870     0.0002200
  C       -1.6028750    -0.2271810    -0.0000330
  C        0.5362297     0.8385441    -0.0002313
  C       -1.8343220     1.1308500    -0.0000640
  C        2.0432510    -1.3188980     0.0000320
  C        2.5978260    -0.0201320    -0.0000760
  C        0.6688440    -1.5149670    -0.0002860
  C        1.7894520     1.1098640     0.0002960
  N       -0.6328400     1.8116850    -0.0001020
  H        2.7093930    -2.1785160    -0.0003580
  H        3.6789480     0.0978590     0.0002690
  H        0.2537760    -2.5213680    -0.0000660
  H        2.2194000     2.1097800     0.0002850
  H       -3.6376700    -0.9013790    -0.0001930
  H       -2.5281620    -1.9588410     0.8832840
  H       -2.7737480     1.6710560    -0.0003610
  H       -0.5326520     2.8176750    -0.0001200
  H       -2.5278290    -1.9594320    -0.8825300
units angstrom
no_reorient  #important for SAPT in psi4, default
symmetry c1  #important for SAPT in psi4, default
}

set PROPERTIES_ORIGIN ["COM"]
properties('MP2/aug-cc-pvtz', properties = ['dipole'])
--------------------------------------------------------------------------

    Molecular point group: c1
  Charge       = 0
  Multiplicity = 1
  Basis Set: AUG-CC-PVTZ
    Blend: AUG-CC-PVTZ
  Basis Set: (AUG-CC-PVTZ AUX)
    Blend: AUG-CC-PVTZ-JKFIT

    Orbital Energies [Eh]
    ---------------------

    Doubly Occupied:

       1A    -15.586273     2A    -11.271150     3A    -11.264258
       4A    -11.231024     5A    -11.230154     6A    -11.229254
       7A    -11.225007     8A    -11.223446     9A    -11.221200
      10A    -11.218357    11A     -1.256599    12A     -1.142617
      13A     -1.071705    14A     -1.011485    15A     -0.985229
      16A     -0.922882    17A     -0.835847    18A     -0.806951
      19A     -0.759249    20A     -0.708083    21A     -0.650001
      22A     -0.642411    23A     -0.625502    24A     -0.588766
      25A     -0.583196    26A     -0.562690    27A     -0.544573
      28A     -0.541210    29A     -0.524841    30A     -0.498136
      31A     -0.475927    32A     -0.467718    33A     -0.379073
      34A     -0.314475    35A     -0.268619

  @DF-RHF Final Energy:  -400.60932869739020

   => Energetics <=

    Nuclear Repulsion Energy =            483.2163896336241464
    One-Electron Energy =               -1499.9156223058998876
    Two-Electron Energy =                 616.0899039748854875
    Total Energy =                       -400.6093286973901968
  Basis Set: (AUG-CC-PVTZ AUX)
    Blend: AUG-CC-PVTZ-RI
    Molecular point group: c1

    Geometry (in Angstrom), charge = 0, multiplicity = 1:

       Center              X                  Y                   Z               Mass
    ------------   -----------------  -----------------  -----------------  -----------------
         C           -2.661868416864    -1.333367966294     0.000154943610    12.000000000000
         C           -0.214432416864    -0.406175966294     0.000228943610    12.000000000000
         C           -1.638742416864    -0.242369966294    -0.000024056390    12.000000000000
         C            0.500362283136     0.823355133706    -0.000222356390    12.000000000000
         C           -1.870189416864     1.115661033706    -0.000055056390    12.000000000000
         C            2.007383583136    -1.334086966294     0.000040943610    12.000000000000
         C            2.561958583136    -0.035320966294    -0.000067056390    12.000000000000
         C            0.632976583136    -1.530155966294    -0.000277056390    12.000000000000
         C            1.753584583136     1.094675033706     0.000304943610    12.000000000000
         N           -0.668707416864     1.796496033706    -0.000093056390    14.003074004430
         H            2.673525583136    -2.193704966294    -0.000349056390     1.007825032230
         H            3.643080583136     0.082670033706     0.000277943610     1.007825032230
         H            0.217908583136    -2.536556966294    -0.000057056390     1.007825032230
         H            2.183532583136     2.094591033706     0.000293943610     1.007825032230
         H           -3.673537416864    -0.916567966294    -0.000184056390     1.007825032230
         H           -2.564029416864    -1.974029966294     0.883292943610     1.007825032230
         H           -2.809615416864     1.655867033706    -0.000352056390     1.007825032230
         H           -0.568519416864     2.802486033706    -0.000111056390     1.007825032230
         H           -2.563696416864    -1.974620966294    -0.882521056390     1.007825032230

  Basis Set: AUG-CC-PVTZ
    Blend: AUG-CC-PVTZ
  Basis Set: (AUG-CC-PVTZ AUX)
    Blend: AUG-CC-PVTZ-JKFIT
	 Reference Energy          =    -400.6093286973901968 [Eh]
	 Singles Energy            =      -0.0000000000000000 [Eh]
	 Same-Spin Energy          =      -0.4520392891215817 [Eh]
	 Opposite-Spin Energy      =      -1.4054786432944824 [Eh]
	 Correlation Energy        =      -1.8575179324160640 [Eh]
	 Total Energy              =    -402.4668466298062413 [Eh]

	 ================> DF-SCS-MP2 Energies <==================
	-----------------------------------------------------------
	 SCS Same-Spin Scale       =       0.3333333333333333 [-]
	 SCS Opposite-Spin Scale   =       1.2000000000000000 [-]
	 SCS Same-Spin Energy      =      -0.1506797630405272 [Eh]
	 SCS Opposite-Spin Energy  =      -1.6865743719533788 [Eh]
	 SCS Correlation Energy    =      -1.8372541349939060 [Eh]
	 SCS Total Energy          =    -402.4465828323840810 [Eh]
	-----------------------------------------------------------

  Dipole Moment: [D]
     X:    -0.6445      Y:     1.5469      Z:    -0.0000     Total:     1.6758

*** Psi4 exiting successfully. Buy a developer a beer!
