                               Psi4 1.3.2 release

  ==> Input File <==

--------------------------------------------------------------------------
#psi4
#
memory 32 gb

molecule  {
0 1
  C       -2.6260010    -1.3181790     0.0001460
  C       -0.1785650    -0.3909870     0.0002200
  C       -1.6028750    -0.2271810    -0.0000330
  C        0.4037930     0.9065250    -0.0001510
  C       -1.8343220     1.1308500    -0.0000640
  C        2.0432510    -1.3188980     0.0000320
  C        2.5978260    -0.0201320    -0.0000760
  C        0.6688440    -1.5149670    -0.0002860
  C        1.7927897     1.0856499     0.0002881
  N       -0.6328400     1.8116850    -0.0001020
  H        2.7093930    -2.1785160    -0.0003580
  H        3.6789480     0.0978590     0.0002690
  H        0.2537760    -2.5213680    -0.0000660
  H        2.2194000     2.1097800     0.0002850
  H       -3.6376700    -0.9013790    -0.0001930
  H       -2.5281620    -1.9588410     0.8832840
  H       -2.7737480     1.6710560    -0.0003610
  H       -0.5326520     2.8176750    -0.0001200
  H       -2.5278290    -1.9594320    -0.8825300
units angstrom
no_reorient  #important for SAPT in psi4, default
symmetry c1  #important for SAPT in psi4, default
}

set PROPERTIES_ORIGIN ["COM"]
properties('MP2/aug-cc-pvtz', properties = ['dipole'])
--------------------------------------------------------------------------

    Molecular point group: c1
  Charge       = 0
  Multiplicity = 1
  Basis Set: AUG-CC-PVTZ
    Blend: AUG-CC-PVTZ
  Basis Set: (AUG-CC-PVTZ AUX)
    Blend: AUG-CC-PVTZ-JKFIT

    Orbital Energies [Eh]
    ---------------------

    Doubly Occupied:

       1A    -15.600928     2A    -11.264760     3A    -11.264456
       4A    -11.231489     5A    -11.230250     6A    -11.226967
       7A    -11.222580     8A    -11.221501     9A    -11.221147
      10A    -11.220800    11A     -1.291802    12A     -1.129249
      13A     -1.072490    14A     -0.997363    15A     -0.986882
      16A     -0.931228    17A     -0.838145    18A     -0.805027
      19A     -0.754736    20A     -0.720508    21A     -0.659173
      22A     -0.646120    23A     -0.601740    24A     -0.592133
      25A     -0.590244    26A     -0.571005    27A     -0.551532
      28A     -0.542078    29A     -0.531563    30A     -0.498135
      31A     -0.472229    32A     -0.464798    33A     -0.375375
      34A     -0.298024    35A     -0.279303

  @DF-RHF Final Energy:  -400.63968110119725

   => Energetics <=

    Nuclear Repulsion Energy =            483.5757319558940708
    One-Electron Energy =               -1500.6193069832420406
    Two-Electron Energy =                 616.4038939261506584
    Total Energy =                       -400.6396811011973114
  Basis Set: (AUG-CC-PVTZ AUX)
    Blend: AUG-CC-PVTZ-RI
    Molecular point group: c1

    Geometry (in Angstrom), charge = 0, multiplicity = 1:

       Center              X                  Y                   Z               Mass
    ------------   -----------------  -----------------  -----------------  -----------------
         C           -2.650049185606    -1.337374890674     0.000148315268    12.000000000000
         C           -0.202613185606    -0.410182890674     0.000222315268    12.000000000000
         C           -1.626923185606    -0.246376890674    -0.000030684732    12.000000000000
         C            0.379744814394     0.887329109326    -0.000148684732    12.000000000000
         C           -1.858370185606     1.111654109326    -0.000061684732    12.000000000000
         C            2.019202814394    -1.338093890674     0.000034315268    12.000000000000
         C            2.573777814394    -0.039327890674    -0.000073684732    12.000000000000
         C            0.644795814394    -1.534162890674    -0.000283684732    12.000000000000
         C            1.768741514394     1.066454009326     0.000290415268    12.000000000000
         N           -0.656888185606     1.792489109326    -0.000099684732    14.003074004430
         H            2.685344814394    -2.197711890674    -0.000355684732     1.007825032230
         H            3.654899814394     0.078663109326     0.000271315268     1.007825032230
         H            0.229727814394    -2.540563890674    -0.000063684732     1.007825032230
         H            2.195351814394     2.090584109326     0.000287315268     1.007825032230
         H           -3.661718185606    -0.920574890674    -0.000190684732     1.007825032230
         H           -2.552210185606    -1.978036890674     0.883286315268     1.007825032230
         H           -2.797796185606     1.651860109326    -0.000358684732     1.007825032230
         H           -0.556700185606     2.798479109326    -0.000117684732     1.007825032230
         H           -2.551877185606    -1.978627890674    -0.882527684732     1.007825032230

  Basis Set: AUG-CC-PVTZ
    Blend: AUG-CC-PVTZ
  Basis Set: (AUG-CC-PVTZ AUX)
    Blend: AUG-CC-PVTZ-JKFIT
	 Reference Energy          =    -400.6396811011972545 [Eh]
	 Singles Energy            =      -0.0000000000000000 [Eh]
	 Same-Spin Energy          =      -0.4516646012625050 [Eh]
	 Opposite-Spin Energy      =      -1.4040002210722649 [Eh]
	 Correlation Energy        =      -1.8556648223347698 [Eh]
	 Total Energy              =    -402.4953459235319997 [Eh]

	 ================> DF-SCS-MP2 Energies <==================
	-----------------------------------------------------------
	 SCS Same-Spin Scale       =       0.3333333333333333 [-]
	 SCS Opposite-Spin Scale   =       1.2000000000000000 [-]
	 SCS Same-Spin Energy      =      -0.1505548670875017 [Eh]
	 SCS Opposite-Spin Energy  =      -1.6848002652867178 [Eh]
	 SCS Correlation Energy    =      -1.8353551323742194 [Eh]
	 SCS Total Energy          =    -402.4750362335714726 [Eh]
	-----------------------------------------------------------

  Dipole Moment: [D]
     X:    -0.9534      Y:     1.7986      Z:    -0.0001     Total:     2.0356

*** Psi4 exiting successfully. Buy a developer a beer!
