                               Psi4 1.4a3.dev225

  ==> Input File <==

--------------------------------------------------------------------------
#psi4
#
memory 32 gb

molecule  {
0 1
  C       -2.6260070    -1.3181640     0.0000030
  C       -0.1785920    -0.3910100    -0.0000140
  C       -1.6028860    -0.2271800    -0.0000070
  C        0.4037990     0.9065080    -0.0000120
  C       -1.8343130     1.1308630     0.0000070
  C        2.0432640    -1.3188820     0.0000040
  C        2.5978420    -0.0201300     0.0000040
  C        0.6688530    -1.5149630     0.0000000
  C        1.7894440     1.1098670     0.0000020
  N       -0.6328500     1.8116730     0.0000060
  H        2.7093900    -2.1785170     0.0000140
  H        3.6789570     0.0979150     0.0000120
  H        0.2538510    -2.5213940    -0.0000090
  H        2.2194160     2.1097700    -0.0000210
  H       -3.6376970    -0.9014040    -0.0000240
  H       -2.5280300    -1.9591080     0.8829250
  H       -2.7910779     1.6810379     0.0000050
  H       -0.5326180     2.8176610     0.0000030
  H       -2.5279980    -1.9591520    -0.8828820
units angstrom
no_reorient  #important for SAPT in psi4, default
symmetry c1  #important for SAPT in psi4, default
}

set PROPERTIES_ORIGIN ["COM"]
properties('MP2/aug-cc-pvtz', properties = ['dipole'])
--------------------------------------------------------------------------

    Molecular point group: c1
  Charge       = 0
  Multiplicity = 1
  Basis Set: AUG-CC-PVTZ
    Blend: AUG-CC-PVTZ
  Basis Set: (AUG-CC-PVTZ AUX)
    Blend: AUG-CC-PVTZ-JKFIT

    Orbital Energies [Eh]
    ---------------------

    Doubly Occupied:

       1A    -15.600122     2A    -11.266808     3A    -11.265367
       4A    -11.231921     5A    -11.230698     6A    -11.229491
       7A    -11.222848     8A    -11.221903     9A    -11.221386
      10A    -11.221112    11A     -1.291778    12A     -1.127028
      13A     -1.072137    14A     -0.997351    15A     -0.985370
      16A     -0.930653    17A     -0.838033    18A     -0.803624
      19A     -0.755335    20A     -0.719725    21A     -0.659305
      22A     -0.643250    23A     -0.603559    24A     -0.592764
      25A     -0.592032    26A     -0.568006    27A     -0.551407
      28A     -0.542291    29A     -0.529524    30A     -0.497628
      31A     -0.475772    32A     -0.463125    33A     -0.374619
      34A     -0.298710    35A     -0.277784

  @DF-RHF Final Energy:  -400.63951586648858

   => Energetics <=

    Nuclear Repulsion Energy =            483.1525453287555365
    One-Electron Energy =               -1499.7791930997022973
    Two-Electron Energy =                 615.9871319044582378
    Total Energy =                       -400.6395158664885230
  Basis Set: (AUG-CC-PVTZ AUX)
    Blend: AUG-CC-PVTZ-RI
    Molecular point group: c1

    Geometry (in Angstrom), charge = 0, multiplicity = 1:

       Center              X                  Y                   Z               Mass
    ------------   -----------------  -----------------  -----------------  -----------------
         C           -2.649615902198    -1.339653429175     0.000003372322    12.000000000000
         C           -0.202200902198    -0.412499429175    -0.000013627678    12.000000000000
         C           -1.626494902198    -0.248669429175    -0.000006627678    12.000000000000
         C            0.380190097802     0.885018570825    -0.000011627678    12.000000000000
         C           -1.857921902198     1.109373570825     0.000007372322    12.000000000000
         C            2.019655097802    -1.340371429175     0.000004372322    12.000000000000
         C            2.574233097802    -0.041619429175     0.000004372322    12.000000000000
         C            0.645244097802    -1.536452429175     0.000000372322    12.000000000000
         C            1.765835097802     1.088377570825     0.000002372322    12.000000000000
         N           -0.656458902198     1.790183570825     0.000006372322    14.003074004430
         H            2.685781097802    -2.200006429175     0.000014372322     1.007825032230
         H            3.655348097802     0.076425570825     0.000012372322     1.007825032230
         H            0.230242097802    -2.542883429175    -0.000008627678     1.007825032230
         H            2.195807097802     2.088280570825    -0.000020627678     1.007825032230
         H           -3.661305902198    -0.922893429175    -0.000023627678     1.007825032230
         H           -2.551638902198    -1.980597429175     0.882925372322     1.007825032230
         H           -2.814686802198     1.659548470825     0.000005372322     1.007825032230
         H           -0.556226902198     2.796171570825     0.000003372322     1.007825032230
         H           -2.551606902198    -1.980641429175    -0.882881627678     1.007825032230

  Basis Set: AUG-CC-PVTZ
    Blend: AUG-CC-PVTZ
  Basis Set: (AUG-CC-PVTZ AUX)
    Blend: AUG-CC-PVTZ-JKFIT
	 Reference Energy          =    -400.6395158664885798 [Eh]
	 Singles Energy            =      -0.0000000000000000 [Eh]
	 Same-Spin Energy          =      -0.4517393711091895 [Eh]
	 Opposite-Spin Energy      =      -1.4043045491127488 [Eh]
	 Correlation Energy        =      -1.8560439202219383 [Eh]
	 Total Energy              =    -402.4955597867105439 [Eh]

	 ================> DF-SCS-MP2 Energies <==================
	-----------------------------------------------------------
	 SCS Same-Spin Scale       =       0.3333333333333333 [-]
	 SCS Opposite-Spin Scale   =       1.2000000000000000 [-]
	 SCS Same-Spin Energy      =      -0.1505797903697298 [Eh]
	 SCS Opposite-Spin Energy  =      -1.6851654589352985 [Eh]
	 SCS Correlation Energy    =      -1.8357452493050284 [Eh]
	 SCS Total Energy          =    -402.4752611157936144 [Eh]
	-----------------------------------------------------------

  Dipole Moment: [D]
     X:    -0.9541      Y:     1.8038      Z:    -0.0000     Total:     2.0406

*** Psi4 exiting successfully. Buy a developer a beer!
