                               Psi4 1.3.2 release

  ==> Input File <==

--------------------------------------------------------------------------
#psi4
#
memory 32 gb

molecule  {
0 1
  C       -2.6260010    -1.3181790     0.0001460
  C       -0.1785650    -0.3909870     0.0002200
  C       -1.6028750    -0.2271810    -0.0000330
  C        0.4037930     0.9065250    -0.0001510
  C       -1.8343220     1.1308500    -0.0000640
  C        2.0432510    -1.3188980     0.0000320
  C        2.5978260    -0.0201320    -0.0000760
  C        0.6688440    -1.5149670    -0.0002860
  C        1.7894520     1.1098640     0.0002960
  N       -0.6328400     1.8116850    -0.0001020
  H        2.7093930    -2.1785160    -0.0003580
  H        3.6789480     0.0978590     0.0002690
  H        0.2156486    -2.6138142    -0.0000458
  H        2.2194000     2.1097800     0.0002850
  H       -3.6376700    -0.9013790    -0.0001930
  H       -2.5281620    -1.9588410     0.8832840
  H       -2.7737480     1.6710560    -0.0003610
  H       -0.5326520     2.8176750    -0.0001200
  H       -2.5278290    -1.9594320    -0.8825300
units angstrom
no_reorient  #important for SAPT in psi4, default
symmetry c1  #important for SAPT in psi4, default
}

set PROPERTIES_ORIGIN ["COM"]
properties('MP2/aug-cc-pvtz', properties = ['dipole'])
--------------------------------------------------------------------------

    Molecular point group: c1
  Charge       = 0
  Multiplicity = 1
  Basis Set: AUG-CC-PVTZ
    Blend: AUG-CC-PVTZ
  Basis Set: (AUG-CC-PVTZ AUX)
    Blend: AUG-CC-PVTZ-JKFIT

    Orbital Energies [Eh]
    ---------------------

    Doubly Occupied:

       1A    -15.600364     2A    -11.266127     3A    -11.264807
       4A    -11.241953     5A    -11.232347     6A    -11.230214
       7A    -11.223515     8A    -11.222407     9A    -11.222102
      10A    -11.221301    11A     -1.292152    12A     -1.127085
      13A     -1.072260    14A     -0.995602    15A     -0.986057
      16A     -0.930521    17A     -0.836611    18A     -0.804503
      19A     -0.754568    20A     -0.715130    21A     -0.657971
      22A     -0.644988    23A     -0.601626    24A     -0.592239
      25A     -0.585112    26A     -0.569027    27A     -0.551398
      28A     -0.541709    29A     -0.529407    30A     -0.496698
      31A     -0.471629    32A     -0.463774    33A     -0.375008
      34A     -0.299267    35A     -0.278167

  @DF-RHF Final Energy:  -400.63276140118069

   => Energetics <=

    Nuclear Repulsion Energy =            482.7798783596826411
    One-Electron Energy =               -1499.0299903707716567
    Two-Electron Energy =                 615.6173506099082715
    Total Energy =                       -400.6327614011806872
  Basis Set: (AUG-CC-PVTZ AUX)
    Blend: AUG-CC-PVTZ-RI
    Molecular point group: c1

    Geometry (in Angstrom), charge = 0, multiplicity = 1:

       Center              X                  Y                   Z               Mass
    ------------   -----------------  -----------------  -----------------  -----------------
         C           -2.649450451701    -1.338880912918     0.000147436692    12.000000000000
         C           -0.202014451701    -0.411688912918     0.000221436692    12.000000000000
         C           -1.626324451701    -0.247882912918    -0.000031563308    12.000000000000
         C            0.380343548299     0.885823087082    -0.000149563308    12.000000000000
         C           -1.857771451701     1.110148087082    -0.000062563308    12.000000000000
         C            2.019801548299    -1.339599912918     0.000033436692    12.000000000000
         C            2.574376548299    -0.040833912918    -0.000074563308    12.000000000000
         C            0.645394548299    -1.535668912918    -0.000284563308    12.000000000000
         C            1.766002548299     1.089162087082     0.000297436692    12.000000000000
         N           -0.656289451701     1.790983087082    -0.000100563308    14.003074004430
         H            2.685943548299    -2.199217912918    -0.000356563308     1.007825032230
         H            3.655498548299     0.077157087082     0.000270436692     1.007825032230
         H            0.192199148299    -2.634516112918    -0.000044363308     1.007825032230
         H            2.195950548299     2.089078087082     0.000286436692     1.007825032230
         H           -3.661119451701    -0.922080912918    -0.000191563308     1.007825032230
         H           -2.551611451701    -1.979542912918     0.883285436692     1.007825032230
         H           -2.797197451701     1.650354087082    -0.000359563308     1.007825032230
         H           -0.556101451701     2.796973087082    -0.000118563308     1.007825032230
         H           -2.551278451701    -1.980133912918    -0.882528563308     1.007825032230

  Basis Set: AUG-CC-PVTZ
    Blend: AUG-CC-PVTZ
  Basis Set: (AUG-CC-PVTZ AUX)
    Blend: AUG-CC-PVTZ-JKFIT
	 Reference Energy          =    -400.6327614011806872 [Eh]
	 Singles Energy            =      -0.0000000000000000 [Eh]
	 Same-Spin Energy          =      -0.4519550032795689 [Eh]
	 Opposite-Spin Energy      =      -1.4050811866293920 [Eh]
	 Correlation Energy        =      -1.8570361899089609 [Eh]
	 Total Energy              =    -402.4897975910896548 [Eh]

	 ================> DF-SCS-MP2 Energies <==================
	-----------------------------------------------------------
	 SCS Same-Spin Scale       =       0.3333333333333333 [-]
	 SCS Opposite-Spin Scale   =       1.2000000000000000 [-]
	 SCS Same-Spin Energy      =      -0.1506516677598563 [Eh]
	 SCS Opposite-Spin Energy  =      -1.6860974239552704 [Eh]
	 SCS Correlation Energy    =      -1.8367490917151268 [Eh]
	 SCS Total Energy          =    -402.4695104928958358 [Eh]
	-----------------------------------------------------------

  Dipole Moment: [D]
     X:    -0.9464      Y:     1.8521      Z:    -0.0001     Total:     2.0799

*** Psi4 exiting successfully. Buy a developer a beer!
