                               Psi4 1.3.2 release

  ==> Input File <==

--------------------------------------------------------------------------
#psi4
#
memory 32 gb

molecule  {
0 1
  C       -2.6260010    -1.3181790     0.0001460
  C       -0.1785650    -0.3909870     0.0002200
  C       -1.6028750    -0.2271810    -0.0000330
  C        0.4037930     0.9065250    -0.0001510
  C       -1.8343220     1.1308500    -0.0000640
  C        2.0432510    -1.3188980     0.0000320
  C        2.5058778     0.0153895    -0.0001067
  C        0.6688440    -1.5149670    -0.0002860
  C        1.7894520     1.1098640     0.0002960
  N       -0.6328400     1.8116850    -0.0001020
  H        2.7093930    -2.1785160    -0.0003580
  H        3.6789480     0.0978590     0.0002690
  H        0.2537760    -2.5213680    -0.0000660
  H        2.2194000     2.1097800     0.0002850
  H       -3.6376700    -0.9013790    -0.0001930
  H       -2.5281620    -1.9588410     0.8832840
  H       -2.7737480     1.6710560    -0.0003610
  H       -0.5326520     2.8176750    -0.0001200
  H       -2.5278290    -1.9594320    -0.8825300
units angstrom
no_reorient  #important for SAPT in psi4, default
symmetry c1  #important for SAPT in psi4, default
}

set PROPERTIES_ORIGIN ["COM"]
properties('MP2/aug-cc-pvtz', properties = ['dipole'])
--------------------------------------------------------------------------

    Molecular point group: c1
  Charge       = 0
  Multiplicity = 1
  Basis Set: AUG-CC-PVTZ
    Blend: AUG-CC-PVTZ
  Basis Set: (AUG-CC-PVTZ AUX)
    Blend: AUG-CC-PVTZ-JKFIT

    Orbital Energies [Eh]
    ---------------------

    Doubly Occupied:

       1A    -15.600639     2A    -11.264942     3A    -11.261416
       4A    -11.231480     5A    -11.228518     6A    -11.223051
       7A    -11.222196     8A    -11.221094     9A    -11.220398
      10A    -11.219117    11A     -1.291421    12A     -1.137174
      13A     -1.074538    14A     -1.005156    15A     -0.983632
      16A     -0.930732    17A     -0.838804    18A     -0.800215
      19A     -0.756949    20A     -0.721341    21A     -0.655719
      22A     -0.644296    23A     -0.604637    24A     -0.599743
      25A     -0.592307    26A     -0.569108    27A     -0.551765
      28A     -0.542886    29A     -0.514374    30A     -0.504327
      31A     -0.470027    32A     -0.464186    33A     -0.379542
      34A     -0.297240    35A     -0.281481

  @DF-RHF Final Energy:  -400.62798198036336

   => Energetics <=

    Nuclear Repulsion Energy =            485.0819494767587230
    One-Electron Energy =               -1503.6109594621739234
    Two-Electron Energy =                 617.9010280050517849
    Total Energy =                       -400.6279819803634155
  Basis Set: (AUG-CC-PVTZ AUX)
    Blend: AUG-CC-PVTZ-RI
    Molecular point group: c1

    Geometry (in Angstrom), charge = 0, multiplicity = 1:

       Center              X                  Y                   Z               Mass
    ------------   -----------------  -----------------  -----------------  -----------------
         C           -2.641325600700    -1.342843785637     0.000150402647    12.000000000000
         C           -0.193889600700    -0.415651785637     0.000224402647    12.000000000000
         C           -1.618199600700    -0.251845785637    -0.000028597353    12.000000000000
         C            0.388468399300     0.881860214363    -0.000146597353    12.000000000000
         C           -1.849646600700     1.106185214363    -0.000059597353    12.000000000000
         C            2.027926399300    -1.343562785637     0.000036402647    12.000000000000
         C            2.490553199300    -0.009275285637    -0.000102297353    12.000000000000
         C            0.653519399300    -1.539631785637    -0.000281597353    12.000000000000
         C            1.774127399300     1.085199214363     0.000300402647    12.000000000000
         N           -0.648164600700     1.787020214363    -0.000097597353    14.003074004430
         H            2.694068399300    -2.203180785637    -0.000353597353     1.007825032230
         H            3.663623399300     0.073194214363     0.000273402647     1.007825032230
         H            0.238451399300    -2.546032785637    -0.000061597353     1.007825032230
         H            2.204075399300     2.085115214363     0.000289402647     1.007825032230
         H           -3.652994600700    -0.926043785637    -0.000188597353     1.007825032230
         H           -2.543486600700    -1.983505785637     0.883288402647     1.007825032230
         H           -2.789072600700     1.646391214363    -0.000356597353     1.007825032230
         H           -0.547976600700     2.793010214363    -0.000115597353     1.007825032230
         H           -2.543153600700    -1.984096785637    -0.882525597353     1.007825032230

  Basis Set: AUG-CC-PVTZ
    Blend: AUG-CC-PVTZ
  Basis Set: (AUG-CC-PVTZ AUX)
    Blend: AUG-CC-PVTZ-JKFIT
	 Reference Energy          =    -400.6279819803633586 [Eh]
	 Singles Energy            =      -0.0000000000000000 [Eh]
	 Same-Spin Energy          =      -0.4516426127801424 [Eh]
	 Opposite-Spin Energy      =      -1.4041612043424296 [Eh]
	 Correlation Energy        =      -1.8558038171225721 [Eh]
	 Total Energy              =    -402.4837857974859503 [Eh]

	 ================> DF-SCS-MP2 Energies <==================
	-----------------------------------------------------------
	 SCS Same-Spin Scale       =       0.3333333333333333 [-]
	 SCS Opposite-Spin Scale   =       1.2000000000000000 [-]
	 SCS Same-Spin Energy      =      -0.1505475375933808 [Eh]
	 SCS Opposite-Spin Energy  =      -1.6849934452109154 [Eh]
	 SCS Correlation Energy    =      -1.8355409828042961 [Eh]
	 SCS Total Energy          =    -402.4635229631676339 [Eh]
	-----------------------------------------------------------

  Dipole Moment: [D]
     X:    -0.9387      Y:     1.7969      Z:    -0.0001     Total:     2.0273

*** Psi4 exiting successfully. Buy a developer a beer!
