                               Psi4 1.3.2 release

  ==> Input File <==

--------------------------------------------------------------------------
#psi4
#
memory 32 gb

molecule  {
0 1
  C       -2.6260010    -1.3181790     0.0001460
  C       -0.1785650    -0.3909870     0.0002200
  C       -1.6028750    -0.2271810    -0.0000330
  C        0.4037930     0.9065250    -0.0001510
  C       -1.8343220     1.1308500    -0.0000640
  C        2.0432510    -1.3188980     0.0000320
  C        2.5978260    -0.0201320    -0.0000760
  C        0.6688440    -1.5149670    -0.0002860
  C        1.7894520     1.1098640     0.0002960
  N       -0.6328400     1.8116850    -0.0001020
  H        2.7093930    -2.1785160    -0.0003580
  H        3.6789480     0.0978590     0.0002690
  H        0.2537760    -2.5213680    -0.0000660
  H        2.2194000     2.1097800     0.0002850
  H       -3.6376700    -0.9013790    -0.0001930
  H       -2.5281620    -1.9588410     0.8832840
  H       -2.9471264     1.7707552    -0.0004158
  H       -0.5326520     2.8176750    -0.0001200
  H       -2.5278290    -1.9594320    -0.8825300
units angstrom
no_reorient  #important for SAPT in psi4, default
symmetry c1  #important for SAPT in psi4, default
}

set PROPERTIES_ORIGIN ["COM"]
properties('MP2/aug-cc-pvtz', properties = ['dipole'])
--------------------------------------------------------------------------

    Molecular point group: c1
  Charge       = 0
  Multiplicity = 1
  Basis Set: AUG-CC-PVTZ
    Blend: AUG-CC-PVTZ
  Basis Set: (AUG-CC-PVTZ AUX)
    Blend: AUG-CC-PVTZ-JKFIT

    Orbital Energies [Eh]
    ---------------------

    Doubly Occupied:

       1A    -15.602032     2A    -11.285391     3A    -11.266456
       4A    -11.232695     5A    -11.231418     6A    -11.230057
       7A    -11.224391     8A    -11.223280     9A    -11.221774
      10A    -11.221488    11A     -1.293024    12A     -1.127631
      13A     -1.072705    14A     -0.997945    15A     -0.983691
      16A     -0.929281    17A     -0.832825    18A     -0.801715
      19A     -0.752733    20A     -0.717644    21A     -0.657335
      22A     -0.631062    23A     -0.604175    24A     -0.593540
      25A     -0.593076    26A     -0.551955    27A     -0.551801
      28A     -0.541016    29A     -0.525305    30A     -0.497091
      31A     -0.475862    32A     -0.463960    33A     -0.375580
      34A     -0.299552    35A     -0.278623

  @DF-RHF Final Energy:  -400.61718870486135

   => Energetics <=

    Nuclear Repulsion Energy =            482.3001966865070358
    One-Electron Energy =               -1498.0585497882254913
    Two-Electron Energy =                 615.1411643968571070
    Total Energy =                       -400.6171887048614053
  Basis Set: (AUG-CC-PVTZ AUX)
    Blend: AUG-CC-PVTZ-RI
    Molecular point group: c1

    Geometry (in Angstrom), charge = 0, multiplicity = 1:

       Center              X                  Y                   Z               Mass
    ------------   -----------------  -----------------  -----------------  -----------------
         C           -2.648410505837    -1.340358320213     0.000148013367    12.000000000000
         C           -0.200974505837    -0.413166320213     0.000222013367    12.000000000000
         C           -1.625284505837    -0.249360320213    -0.000030986633    12.000000000000
         C            0.381383494163     0.884345679787    -0.000148986633    12.000000000000
         C           -1.856731505837     1.108670679787    -0.000061986633    12.000000000000
         C            2.020841494163    -1.341077320213     0.000034013367    12.000000000000
         C            2.575416494163    -0.042311320213    -0.000073986633    12.000000000000
         C            0.646434494163    -1.537146320213    -0.000283986633    12.000000000000
         C            1.767042494163     1.087684679787     0.000298013367    12.000000000000
         N           -0.655249505837     1.789505679787    -0.000099986633    14.003074004430
         H            2.686983494163    -2.200695320213    -0.000355986633     1.007825032230
         H            3.656538494163     0.075679679787     0.000271013367     1.007825032230
         H            0.231366494163    -2.543547320213    -0.000063986633     1.007825032230
         H            2.196990494163     2.087600679787     0.000287013367     1.007825032230
         H           -3.660079505837    -0.923558320213    -0.000190986633     1.007825032230
         H           -2.550571505837    -1.981020320213     0.883286013367     1.007825032230
         H           -2.969535905837     1.748575879787    -0.000413786633     1.007825032230
         H           -0.555061505837     2.795495679787    -0.000117986633     1.007825032230
         H           -2.550238505837    -1.981611320213    -0.882527986633     1.007825032230

  Basis Set: AUG-CC-PVTZ
    Blend: AUG-CC-PVTZ
  Basis Set: (AUG-CC-PVTZ AUX)
    Blend: AUG-CC-PVTZ-JKFIT
	 Reference Energy          =    -400.6171887048613485 [Eh]
	 Singles Energy            =      -0.0000000000000000 [Eh]
	 Same-Spin Energy          =      -0.4522952272386987 [Eh]
	 Opposite-Spin Energy      =      -1.4064900295220060 [Eh]
	 Correlation Energy        =      -1.8587852567607046 [Eh]
	 Total Energy              =    -402.4759739616220600 [Eh]

	 ================> DF-SCS-MP2 Energies <==================
	-----------------------------------------------------------
	 SCS Same-Spin Scale       =       0.3333333333333333 [-]
	 SCS Opposite-Spin Scale   =       1.2000000000000000 [-]
	 SCS Same-Spin Energy      =      -0.1507650757462329 [Eh]
	 SCS Opposite-Spin Energy  =      -1.6877880354264072 [Eh]
	 SCS Correlation Energy    =      -1.8385531111726401 [Eh]
	 SCS Total Energy          =    -402.4557418160339921 [Eh]
	-----------------------------------------------------------

  Dipole Moment: [D]
     X:    -0.9023      Y:     1.7820      Z:    -0.0001     Total:     1.9974

*** Psi4 exiting successfully. Buy a developer a beer!
