                               Psi4 1.3.2 release

  ==> Input File <==

--------------------------------------------------------------------------
#psi4
#
memory 32 gb

molecule  {
0 1
  C       -2.6260010    -1.3181790     0.0001460
  C       -0.1785650    -0.3909870     0.0002200
  C       -1.6077241    -0.2769885    -0.0000661
  C        0.4037930     0.9065250    -0.0001510
  C       -1.8343220     1.1308500    -0.0000640
  C        2.0432510    -1.3188980     0.0000320
  C        2.5978260    -0.0201320    -0.0000760
  C        0.6688440    -1.5149670    -0.0002860
  C        1.7894520     1.1098640     0.0002960
  N       -0.6328400     1.8116850    -0.0001020
  H        2.7093930    -2.1785160    -0.0003580
  H        3.6789480     0.0978590     0.0002690
  H        0.2537760    -2.5213680    -0.0000660
  H        2.2194000     2.1097800     0.0002850
  H       -3.6376700    -0.9013790    -0.0001930
  H       -2.5281620    -1.9588410     0.8832840
  H       -2.7737480     1.6710560    -0.0003610
  H       -0.5326520     2.8176750    -0.0001200
  H       -2.5278290    -1.9594320    -0.8825300
units angstrom
no_reorient  #important for SAPT in psi4, default
symmetry c1  #important for SAPT in psi4, default
}

set PROPERTIES_ORIGIN ["COM"]
properties('MP2/aug-cc-pvtz', properties = ['dipole'])
--------------------------------------------------------------------------

    Molecular point group: c1
  Charge       = 0
  Multiplicity = 1
  Basis Set: AUG-CC-PVTZ
    Blend: AUG-CC-PVTZ
  Basis Set: (AUG-CC-PVTZ AUX)
    Blend: AUG-CC-PVTZ-JKFIT

    Orbital Energies [Eh]
    ---------------------

    Doubly Occupied:

       1A    -15.603500     2A    -11.270296     3A    -11.265510
       4A    -11.232342     5A    -11.229141     6A    -11.228723
       7A    -11.226267     8A    -11.222982     9A    -11.220819
      10A    -11.220074    11A     -1.290372    12A     -1.127281
      13A     -1.073268    14A     -0.998405    15A     -0.986529
      16A     -0.929204    17A     -0.838480    18A     -0.803513
      19A     -0.756678    20A     -0.720643    21A     -0.658323
      22A     -0.643598    23A     -0.605790    24A     -0.593030
      25A     -0.592378    26A     -0.569152    27A     -0.553472
      28A     -0.551319    29A     -0.527411    30A     -0.491627
      31A     -0.479008    32A     -0.462643    33A     -0.372153
      34A     -0.299246    35A     -0.271076

  @DF-RHF Final Energy:  -400.63399424649708

   => Energetics <=

    Nuclear Repulsion Energy =            482.8988240245382713
    One-Electron Energy =               -1499.2371340014879024
    Two-Electron Energy =                 615.7043157304525494
    Total Energy =                       -400.6339942464970818
  Basis Set: (AUG-CC-PVTZ AUX)
    Blend: AUG-CC-PVTZ-RI
    Molecular point group: c1

    Geometry (in Angstrom), charge = 0, multiplicity = 1:

       Center              X                  Y                   Z               Mass
    ------------   -----------------  -----------------  -----------------  -----------------
         C           -2.649299670254    -1.335031771725     0.000150622371    12.000000000000
         C           -0.201863670254    -0.407839771725     0.000224622371    12.000000000000
         C           -1.631022770254    -0.293841271725    -0.000061477629    12.000000000000
         C            0.380494329746     0.889672228275    -0.000146377629    12.000000000000
         C           -1.857620670254     1.113997228275    -0.000059377629    12.000000000000
         C            2.019952329746    -1.335750771725     0.000036622371    12.000000000000
         C            2.574527329746    -0.036984771725    -0.000071377629    12.000000000000
         C            0.645545329746    -1.531819771725    -0.000281377629    12.000000000000
         C            1.766153329746     1.093011228275     0.000300622371    12.000000000000
         N           -0.656138670254     1.794832228275    -0.000097377629    14.003074004430
         H            2.686094329746    -2.195368771725    -0.000353377629     1.007825032230
         H            3.655649329746     0.081006228275     0.000273622371     1.007825032230
         H            0.230477329746    -2.538220771725    -0.000061377629     1.007825032230
         H            2.196101329746     2.092927228275     0.000289622371     1.007825032230
         H           -3.660968670254    -0.918231771725    -0.000188377629     1.007825032230
         H           -2.551460670254    -1.975693771725     0.883288622371     1.007825032230
         H           -2.797046670254     1.654203228275    -0.000356377629     1.007825032230
         H           -0.555950670254     2.800822228275    -0.000115377629     1.007825032230
         H           -2.551127670254    -1.976284771725    -0.882525377629     1.007825032230

  Basis Set: AUG-CC-PVTZ
    Blend: AUG-CC-PVTZ
  Basis Set: (AUG-CC-PVTZ AUX)
    Blend: AUG-CC-PVTZ-JKFIT
	 Reference Energy          =    -400.6339942464970818 [Eh]
	 Singles Energy            =      -0.0000000000000000 [Eh]
	 Same-Spin Energy          =      -0.4528227521794552 [Eh]
	 Opposite-Spin Energy      =      -1.4059197421529936 [Eh]
	 Correlation Energy        =      -1.8587424943324489 [Eh]
	 Total Energy              =    -402.4927367408295140 [Eh]

	 ================> DF-SCS-MP2 Energies <==================
	-----------------------------------------------------------
	 SCS Same-Spin Scale       =       0.3333333333333333 [-]
	 SCS Opposite-Spin Scale   =       1.2000000000000000 [-]
	 SCS Same-Spin Energy      =      -0.1509409173931517 [Eh]
	 SCS Opposite-Spin Energy  =      -1.6871036905835923 [Eh]
	 SCS Correlation Energy    =      -1.8380446079767441 [Eh]
	 SCS Total Energy          =    -402.4720388544738512 [Eh]
	-----------------------------------------------------------

  Dipole Moment: [D]
     X:    -0.9813      Y:     1.8041      Z:    -0.0000     Total:     2.0537

*** Psi4 exiting successfully. Buy a developer a beer!
