                               Psi4 1.3.2 release

  ==> Input File <==

--------------------------------------------------------------------------
#psi4
#
memory 32 gb

molecule  {
0 1
  C       -2.6260010    -1.3181790     0.0001460
  C       -0.1785650    -0.3909870     0.0002200
  C       -1.4660643    -0.0812946    -0.0000569
  C        0.4037930     0.9065250    -0.0001510
  C       -1.8343220     1.1308500    -0.0000640
  C        2.0432510    -1.3188980     0.0000320
  C        2.5978260    -0.0201320    -0.0000760
  C        0.6688440    -1.5149670    -0.0002860
  C        1.7894520     1.1098640     0.0002960
  N       -0.6328400     1.8116850    -0.0001020
  H        2.7093930    -2.1785160    -0.0003580
  H        3.6789480     0.0978590     0.0002690
  H        0.2537760    -2.5213680    -0.0000660
  H        2.2194000     2.1097800     0.0002850
  H       -3.6376700    -0.9013790    -0.0001930
  H       -2.5281620    -1.9588410     0.8832840
  H       -2.7737480     1.6710560    -0.0003610
  H       -0.5326520     2.8176750    -0.0001200
  H       -2.5278290    -1.9594320    -0.8825300
units angstrom
no_reorient  #important for SAPT in psi4, default
symmetry c1  #important for SAPT in psi4, default
}

set PROPERTIES_ORIGIN ["COM"]
properties('MP2/aug-cc-pvtz', properties = ['dipole'])
--------------------------------------------------------------------------

    Molecular point group: c1
  Charge       = 0
  Multiplicity = 1
  Basis Set: AUG-CC-PVTZ
    Blend: AUG-CC-PVTZ
  Basis Set: (AUG-CC-PVTZ AUX)
    Blend: AUG-CC-PVTZ-JKFIT

    Orbital Energies [Eh]
    ---------------------

    Doubly Occupied:

       1A    -15.594253     2A    -11.264435     3A    -11.248206
       4A    -11.235923     5A    -11.232830     6A    -11.231556
       7A    -11.223904     8A    -11.222517     9A    -11.212766
      10A    -11.209219    11A     -1.307568    12A     -1.130265
      13A     -1.078286    14A     -0.999358    15A     -0.987420
      16A     -0.919805    17A     -0.847384    18A     -0.814398
      19A     -0.752902    20A     -0.718941    21A     -0.669706
      22A     -0.654261    23A     -0.599669    24A     -0.598601
      25A     -0.595266    26A     -0.581889    27A     -0.540325
      28A     -0.532476    29A     -0.514116    30A     -0.505302
      31A     -0.465340    32A     -0.440958    33A     -0.391702
      34A     -0.302046    35A     -0.286086

  @DF-RHF Final Energy:  -400.58971121714393

   => Energetics <=

    Nuclear Repulsion Energy =            486.1575826658709616
    One-Electron Energy =               -1505.6752284898091148
    Two-Electron Energy =                 618.9279346067943379
    Total Energy =                       -400.5897112171438721
  Basis Set: (AUG-CC-PVTZ AUX)
    Blend: AUG-CC-PVTZ-RI
    Molecular point group: c1

    Geometry (in Angstrom), charge = 0, multiplicity = 1:

       Center              X                  Y                   Z               Mass
    ------------   -----------------  -----------------  -----------------  -----------------
         C           -2.662268863944    -1.352947878433     0.000149780095    12.000000000000
         C           -0.214832863944    -0.425755878433     0.000223780095    12.000000000000
         C           -1.502332163944    -0.116063478433    -0.000053119905    12.000000000000
         C            0.367525136056     0.871756121567    -0.000147219905    12.000000000000
         C           -1.870589863944     1.096081121567    -0.000060219905    12.000000000000
         C            2.006983136056    -1.353666878433     0.000035780095    12.000000000000
         C            2.561558136056    -0.054900878433    -0.000072219905    12.000000000000
         C            0.632576136056    -1.549735878433    -0.000282219905    12.000000000000
         C            1.753184136056     1.075095121567     0.000299780095    12.000000000000
         N           -0.669107863944     1.776916121567    -0.000098219905    14.003074004430
         H            2.673125136056    -2.213284878433    -0.000354219905     1.007825032230
         H            3.642680136056     0.063090121567     0.000272780095     1.007825032230
         H            0.217508136056    -2.556136878433    -0.000062219905     1.007825032230
         H            2.183132136056     2.075011121567     0.000288780095     1.007825032230
         H           -3.673937863944    -0.936147878433    -0.000189219905     1.007825032230
         H           -2.564429863944    -1.993609878433     0.883287780095     1.007825032230
         H           -2.810015863944     1.636287121567    -0.000357219905     1.007825032230
         H           -0.568919863944     2.782906121567    -0.000116219905     1.007825032230
         H           -2.564096863944    -1.994200878433    -0.882526219905     1.007825032230

  Basis Set: AUG-CC-PVTZ
    Blend: AUG-CC-PVTZ
  Basis Set: (AUG-CC-PVTZ AUX)
    Blend: AUG-CC-PVTZ-JKFIT
	 Reference Energy          =    -400.5897112171439289 [Eh]
	 Singles Energy            =      -0.0000000000000000 [Eh]
	 Same-Spin Energy          =      -0.4522441393829602 [Eh]
	 Opposite-Spin Energy      =      -1.4047525059075925 [Eh]
	 Correlation Energy        =      -1.8569966452905526 [Eh]
	 Total Energy              =    -402.4467078624344936 [Eh]

	 ================> DF-SCS-MP2 Energies <==================
	-----------------------------------------------------------
	 SCS Same-Spin Scale       =       0.3333333333333333 [-]
	 SCS Opposite-Spin Scale   =       1.2000000000000000 [-]
	 SCS Same-Spin Energy      =      -0.1507480464609867 [Eh]
	 SCS Opposite-Spin Energy  =      -1.6857030070891110 [Eh]
	 SCS Correlation Energy    =      -1.8364510535500977 [Eh]
	 SCS Total Energy          =    -402.4261622706940216 [Eh]
	-----------------------------------------------------------

  Dipole Moment: [D]
     X:    -0.7876      Y:     1.9722      Z:    -0.0001     Total:     2.1237

*** Psi4 exiting successfully. Buy a developer a beer!
