                               Psi4 1.3.2 release

  ==> Input File <==

--------------------------------------------------------------------------
#psi4
#
memory 32 gb

molecule  {
0 1
  C       -2.6260010    -1.3181790     0.0001460
  C       -0.1785650    -0.3909870     0.0002200
  C       -1.6028750    -0.2271810    -0.0000330
  C        0.3975407     0.9550077    -0.0001280
  C       -1.8343220     1.1308500    -0.0000640
  C        2.0432510    -1.3188980     0.0000320
  C        2.5978260    -0.0201320    -0.0000760
  C        0.6688440    -1.5149670    -0.0002860
  C        1.7894520     1.1098640     0.0002960
  N       -0.6328400     1.8116850    -0.0001020
  H        2.7093930    -2.1785160    -0.0003580
  H        3.6789480     0.0978590     0.0002690
  H        0.2537760    -2.5213680    -0.0000660
  H        2.2194000     2.1097800     0.0002850
  H       -3.6376700    -0.9013790    -0.0001930
  H       -2.5281620    -1.9588410     0.8832840
  H       -2.7737480     1.6710560    -0.0003610
  H       -0.5326520     2.8176750    -0.0001200
  H       -2.5278290    -1.9594320    -0.8825300
units angstrom
no_reorient  #important for SAPT in psi4, default
symmetry c1  #important for SAPT in psi4, default
}

set PROPERTIES_ORIGIN ["COM"]
properties('MP2/aug-cc-pvtz', properties = ['dipole'])
--------------------------------------------------------------------------

    Molecular point group: c1
  Charge       = 0
  Multiplicity = 1
  Basis Set: AUG-CC-PVTZ
    Blend: AUG-CC-PVTZ
  Basis Set: (AUG-CC-PVTZ AUX)
    Blend: AUG-CC-PVTZ-JKFIT

    Orbital Energies [Eh]
    ---------------------

    Doubly Occupied:

       1A    -15.604298     2A    -11.267200     3A    -11.264747
       4A    -11.230519     5A    -11.229957     6A    -11.229068
       7A    -11.224934     8A    -11.223903     9A    -11.222323
      10A    -11.219398    11A     -1.301968    12A     -1.123400
      13A     -1.074234    14A     -0.996945    15A     -0.982216
      16A     -0.934390    17A     -0.841154    18A     -0.804759
      19A     -0.754350    20A     -0.722290    21A     -0.666052
      22A     -0.644639    23A     -0.598169    24A     -0.595177
      25A     -0.591120    26A     -0.572305    27A     -0.554188
      28A     -0.543045    29A     -0.531213    30A     -0.497930
      31A     -0.467904    32A     -0.461875    33A     -0.377478
      34A     -0.293060    35A     -0.278382

  @DF-RHF Final Energy:  -400.63674286708158

   => Energetics <=

    Nuclear Repulsion Energy =            482.9229121779333695
    One-Electron Energy =               -1499.2701257175526734
    Two-Electron Energy =                 615.7104706725377810
    Total Energy =                       -400.6367428670815798
  Basis Set: (AUG-CC-PVTZ AUX)
    Blend: AUG-CC-PVTZ-RI
    Molecular point group: c1

    Geometry (in Angstrom), charge = 0, multiplicity = 1:

       Center              X                  Y                   Z               Mass
    ------------   -----------------  -----------------  -----------------  -----------------
         C           -2.649171204926    -1.344030405364     0.000145486321    12.000000000000
         C           -0.201735204926    -0.416838405364     0.000219486321    12.000000000000
         C           -1.626045204926    -0.253032405364    -0.000033513679    12.000000000000
         C            0.374370495074     0.929156294636    -0.000128513679    12.000000000000
         C           -1.857492204926     1.104998594636    -0.000064513679    12.000000000000
         C            2.020080795074    -1.344749405364     0.000031486321    12.000000000000
         C            2.574655795074    -0.045983405364    -0.000076513679    12.000000000000
         C            0.645673795074    -1.540818405364    -0.000286513679    12.000000000000
         C            1.766281795074     1.084012594636     0.000295486321    12.000000000000
         N           -0.656010204926     1.785833594636    -0.000102513679    14.003074004430
         H            2.686222795074    -2.204367405364    -0.000358513679     1.007825032230
         H            3.655777795074     0.072007594636     0.000268486321     1.007825032230
         H            0.230605795074    -2.547219405364    -0.000066513679     1.007825032230
         H            2.196229795074     2.083928594636     0.000284486321     1.007825032230
         H           -3.660840204926    -0.927230405364    -0.000193513679     1.007825032230
         H           -2.551332204926    -1.984692405364     0.883283486321     1.007825032230
         H           -2.796918204926     1.645204594636    -0.000361513679     1.007825032230
         H           -0.555822204926     2.791823594636    -0.000120513679     1.007825032230
         H           -2.550999204926    -1.985283405364    -0.882530513679     1.007825032230

  Basis Set: AUG-CC-PVTZ
    Blend: AUG-CC-PVTZ
  Basis Set: (AUG-CC-PVTZ AUX)
    Blend: AUG-CC-PVTZ-JKFIT
	 Reference Energy          =    -400.6367428670815798 [Eh]
	 Singles Energy            =      -0.0000000000000000 [Eh]
	 Same-Spin Energy          =      -0.4522565750472680 [Eh]
	 Opposite-Spin Energy      =      -1.4045524916342562 [Eh]
	 Correlation Energy        =      -1.8568090666815242 [Eh]
	 Total Energy              =    -402.4935519337631149 [Eh]

	 ================> DF-SCS-MP2 Energies <==================
	-----------------------------------------------------------
	 SCS Same-Spin Scale       =       0.3333333333333333 [-]
	 SCS Opposite-Spin Scale   =       1.2000000000000000 [-]
	 SCS Same-Spin Energy      =      -0.1507521916824227 [Eh]
	 SCS Opposite-Spin Energy  =      -1.6854629899611073 [Eh]
	 SCS Correlation Energy    =      -1.8362151816435299 [Eh]
	 SCS Total Energy          =    -402.4729580487251042 [Eh]
	-----------------------------------------------------------

  Dipole Moment: [D]
     X:    -1.1047      Y:     1.8770      Z:    -0.0001     Total:     2.1779

*** Psi4 exiting successfully. Buy a developer a beer!
