                               Psi4 1.3.2 release

  ==> Input File <==

--------------------------------------------------------------------------
#psi4
#
memory 32 gb

molecule  {
0 1
  C       -2.6260010    -1.3181790     0.0001460
  C       -0.1785650    -0.3909870     0.0002200
  C       -1.6028750    -0.2271810    -0.0000330
  C        0.4037930     0.9065250    -0.0001510
  C       -1.8343220     1.1308500    -0.0000640
  C        2.0432510    -1.3188980     0.0000320
  C        2.5978260    -0.0201320    -0.0000760
  C        0.6688440    -1.5149670    -0.0002860
  C        1.7894520     1.1098640     0.0002960
  N       -0.6328400     1.8116850    -0.0001020
  H        2.7093930    -2.1785160    -0.0003580
  H        3.5795383     0.0870097     0.0002373
  H        0.2537760    -2.5213680    -0.0000660
  H        2.2194000     2.1097800     0.0002850
  H       -3.6376700    -0.9013790    -0.0001930
  H       -2.5281620    -1.9588410     0.8832840
  H       -2.7737480     1.6710560    -0.0003610
  H       -0.5326520     2.8176750    -0.0001200
  H       -2.5278290    -1.9594320    -0.8825300
units angstrom
no_reorient  #important for SAPT in psi4, default
symmetry c1  #important for SAPT in psi4, default
}

set PROPERTIES_ORIGIN ["COM"]
properties('MP2/aug-cc-pvtz', properties = ['dipole'])
--------------------------------------------------------------------------

    Molecular point group: c1
  Charge       = 0
  Multiplicity = 1
  Basis Set: AUG-CC-PVTZ
    Blend: AUG-CC-PVTZ
  Basis Set: (AUG-CC-PVTZ AUX)
    Blend: AUG-CC-PVTZ-JKFIT

    Orbital Energies [Eh]
    ---------------------

    Doubly Occupied:

       1A    -15.599582     2A    -11.264675     3A    -11.264300
       4A    -11.230933     5A    -11.230003     6A    -11.222440
       7A    -11.221534     8A    -11.221116     9A    -11.220353
      10A    -11.217284    11A     -1.291331    12A     -1.127422
      13A     -1.072336    14A     -0.996935    15A     -0.988739
      16A     -0.931370    17A     -0.840594    18A     -0.809663
      19A     -0.755441    20A     -0.721905    21A     -0.667457
      22A     -0.646618    23A     -0.603939    24A     -0.592699
      25A     -0.591615    26A     -0.569876    27A     -0.551105
      28A     -0.544520    29A     -0.535580    30A     -0.497677
      31A     -0.476675    32A     -0.462482    33A     -0.374128
      34A     -0.298158    35A     -0.277416

  @DF-RHF Final Energy:  -400.63436117078697

   => Energetics <=

    Nuclear Repulsion Energy =            483.8056957305809647
    One-Electron Energy =               -1501.0443188010697213
    Two-Electron Energy =                 616.6042618997017826
    Total Energy =                       -400.6343611707869741
  Basis Set: (AUG-CC-PVTZ AUX)
    Blend: AUG-CC-PVTZ-RI
    Molecular point group: c1

    Geometry (in Angstrom), charge = 0, multiplicity = 1:

       Center              X                  Y                   Z               Mass
    ------------   -----------------  -----------------  -----------------  -----------------
         C           -2.648979251677    -1.339508312040     0.000147835751    12.000000000000
         C           -0.201543251677    -0.412316312040     0.000221835751    12.000000000000
         C           -1.625853251677    -0.248510312040    -0.000031164249    12.000000000000
         C            0.380814748323     0.885195687960    -0.000149164249    12.000000000000
         C           -1.857300251677     1.109520687960    -0.000062164249    12.000000000000
         C            2.020272748323    -1.340227312040     0.000033835751    12.000000000000
         C            2.574847748323    -0.041461312040    -0.000074164249    12.000000000000
         C            0.645865748323    -1.536296312040    -0.000284164249    12.000000000000
         C            1.766473748323     1.088534687960     0.000297835751    12.000000000000
         N           -0.655818251677     1.790355687960    -0.000100164249    14.003074004430
         H            2.686414748323    -2.199845312040    -0.000356164249     1.007825032230
         H            3.556560048323     0.065680387960     0.000239135751     1.007825032230
         H            0.230797748323    -2.542697312040    -0.000064164249     1.007825032230
         H            2.196421748323     2.088450687960     0.000286835751     1.007825032230
         H           -3.660648251677    -0.922708312040    -0.000191164249     1.007825032230
         H           -2.551140251677    -1.980170312040     0.883285835751     1.007825032230
         H           -2.796726251677     1.649726687960    -0.000359164249     1.007825032230
         H           -0.555630251677     2.796345687960    -0.000118164249     1.007825032230
         H           -2.550807251677    -1.980761312040    -0.882528164249     1.007825032230

  Basis Set: AUG-CC-PVTZ
    Blend: AUG-CC-PVTZ
  Basis Set: (AUG-CC-PVTZ AUX)
    Blend: AUG-CC-PVTZ-JKFIT
	 Reference Energy          =    -400.6343611707869741 [Eh]
	 Singles Energy            =      -0.0000000000000000 [Eh]
	 Same-Spin Energy          =      -0.4515586079822781 [Eh]
	 Opposite-Spin Energy      =      -1.4036013276148411 [Eh]
	 Correlation Energy        =      -1.8551599355971193 [Eh]
	 Total Energy              =    -402.4895211063840748 [Eh]

	 ================> DF-SCS-MP2 Energies <==================
	-----------------------------------------------------------
	 SCS Same-Spin Scale       =       0.3333333333333333 [-]
	 SCS Opposite-Spin Scale   =       1.2000000000000000 [-]
	 SCS Same-Spin Energy      =      -0.1505195359940927 [Eh]
	 SCS Opposite-Spin Energy  =      -1.6843215931378093 [Eh]
	 SCS Correlation Energy    =      -1.8348411291319020 [Eh]
	 SCS Total Energy          =    -402.4692022999188907 [Eh]
	-----------------------------------------------------------

  Dipole Moment: [D]
     X:    -0.9183      Y:     1.8113      Z:    -0.0001     Total:     2.0308

*** Psi4 exiting successfully. Buy a developer a beer!
