                               Psi4 1.3.2 release

  ==> Input File <==

--------------------------------------------------------------------------
#psi4
#
memory 32 gb

molecule  {
0 1
  C       -2.6260010    -1.3181790     0.0001460
  C       -0.1785650    -0.3909870     0.0002200
  C       -1.5997993    -0.2023483    -0.0000163
  C        0.4037930     0.9065250    -0.0001510
  C       -1.8343220     1.1308500    -0.0000640
  C        2.0432510    -1.3188980     0.0000320
  C        2.5978260    -0.0201320    -0.0000760
  C        0.6688440    -1.5149670    -0.0002860
  C        1.7894520     1.1098640     0.0002960
  N       -0.6328400     1.8116850    -0.0001020
  H        2.7093930    -2.1785160    -0.0003580
  H        3.6789480     0.0978590     0.0002690
  H        0.2537760    -2.5213680    -0.0000660
  H        2.2194000     2.1097800     0.0002850
  H       -3.6376700    -0.9013790    -0.0001930
  H       -2.5281620    -1.9588410     0.8832840
  H       -2.7737480     1.6710560    -0.0003610
  H       -0.5326520     2.8176750    -0.0001200
  H       -2.5278290    -1.9594320    -0.8825300
units angstrom
no_reorient  #important for SAPT in psi4, default
symmetry c1  #important for SAPT in psi4, default
}

set PROPERTIES_ORIGIN ["COM"]
properties('MP2/aug-cc-pvtz', properties = ['dipole'])
--------------------------------------------------------------------------

    Molecular point group: c1
  Charge       = 0
  Multiplicity = 1
  Basis Set: AUG-CC-PVTZ
    Blend: AUG-CC-PVTZ
  Basis Set: (AUG-CC-PVTZ AUX)
    Blend: AUG-CC-PVTZ-JKFIT

    Orbital Energies [Eh]
    ---------------------

    Doubly Occupied:

       1A    -15.598158     2A    -11.265156     3A    -11.261434
       4A    -11.231645     5A    -11.231412     6A    -11.229772
       7A    -11.222348     8A    -11.221784     9A    -11.221172
      10A    -11.220113    11A     -1.292534    12A     -1.126887
      13A     -1.071969    14A     -0.996917    15A     -0.985652
      16A     -0.931381    17A     -0.839320    18A     -0.804281
      19A     -0.755164    20A     -0.719726    21A     -0.660852
      22A     -0.645287    23A     -0.602526    24A     -0.592501
      25A     -0.591980    26A     -0.570353    27A     -0.550360
      28A     -0.538542    29A     -0.530010    30A     -0.500150
      31A     -0.473378    32A     -0.463312    33A     -0.375873
      34A     -0.298347    35A     -0.280998

  @DF-RHF Final Energy:  -400.64060856172574

   => Energetics <=

    Nuclear Repulsion Energy =            483.4586093348107738
    One-Electron Energy =               -1500.3958454343978701
    Two-Electron Energy =                 616.2966275378613545
    Total Energy =                       -400.6406085617257986
  Basis Set: (AUG-CC-PVTZ AUX)
    Blend: AUG-CC-PVTZ-RI
    Molecular point group: c1

    Geometry (in Angstrom), charge = 0, multiplicity = 1:

       Center              X                  Y                   Z               Mass
    ------------   -----------------  -----------------  -----------------  -----------------
         C           -2.650025199064    -1.341865207963     0.000146063097    12.000000000000
         C           -0.202589199064    -0.414673207963     0.000220063097    12.000000000000
         C           -1.623823499064    -0.226034507963    -0.000016236903    12.000000000000
         C            0.379768800936     0.882838792037    -0.000150936903    12.000000000000
         C           -1.858346199064     1.107163792037    -0.000063936903    12.000000000000
         C            2.019226800936    -1.342584207963     0.000032063097    12.000000000000
         C            2.573801800936    -0.043818207963    -0.000075936903    12.000000000000
         C            0.644819800936    -1.538653207963    -0.000285936903    12.000000000000
         C            1.765427800936     1.086177792037     0.000296063097    12.000000000000
         N           -0.656864199064     1.787998792037    -0.000101936903    14.003074004430
         H            2.685368800936    -2.202202207963    -0.000357936903     1.007825032230
         H            3.654923800936     0.074172792037     0.000269063097     1.007825032230
         H            0.229751800936    -2.545054207963    -0.000065936903     1.007825032230
         H            2.195375800936     2.086093792037     0.000285063097     1.007825032230
         H           -3.661694199064    -0.925065207963    -0.000192936903     1.007825032230
         H           -2.552186199064    -1.982527207963     0.883284063097     1.007825032230
         H           -2.797772199064     1.647369792037    -0.000360936903     1.007825032230
         H           -0.556676199064     2.793988792037    -0.000119936903     1.007825032230
         H           -2.551853199064    -1.983118207963    -0.882529936903     1.007825032230

  Basis Set: AUG-CC-PVTZ
    Blend: AUG-CC-PVTZ
  Basis Set: (AUG-CC-PVTZ AUX)
    Blend: AUG-CC-PVTZ-JKFIT
	 Reference Energy          =    -400.6406085617257418 [Eh]
	 Singles Energy            =      -0.0000000000000000 [Eh]
	 Same-Spin Energy          =      -0.4512038027502288 [Eh]
	 Opposite-Spin Energy      =      -1.4033741358903411 [Eh]
	 Correlation Energy        =      -1.8545779386405699 [Eh]
	 Total Energy              =    -402.4951865003662874 [Eh]

	 ================> DF-SCS-MP2 Energies <==================
	-----------------------------------------------------------
	 SCS Same-Spin Scale       =       0.3333333333333333 [-]
	 SCS Opposite-Spin Scale   =       1.2000000000000000 [-]
	 SCS Same-Spin Energy      =      -0.1504012675834096 [Eh]
	 SCS Opposite-Spin Energy  =      -1.6840489630684092 [Eh]
	 SCS Correlation Energy    =      -1.8344502306518189 [Eh]
	 SCS Total Energy          =    -402.4750587923775811 [Eh]
	-----------------------------------------------------------

  Dipole Moment: [D]
     X:    -0.9463      Y:     1.8021      Z:    -0.0001     Total:     2.0354

*** Psi4 exiting successfully. Buy a developer a beer!
