                               Psi4 1.3.2 release

  ==> Input File <==

--------------------------------------------------------------------------
#psi4
#
memory 32 gb

molecule  {
0 1
  C       -2.6260010    -1.3181790     0.0001460
  C       -0.1785650    -0.3909870     0.0002200
  C       -1.6028750    -0.2271810    -0.0000330
  C        0.4326385     0.7627981    -0.0002167
  C       -1.8343220     1.1308500    -0.0000640
  C        2.0432510    -1.3188980     0.0000320
  C        2.5978260    -0.0201320    -0.0000760
  C        0.6688440    -1.5149670    -0.0002860
  C        1.7894520     1.1098640     0.0002960
  N       -0.6328400     1.8116850    -0.0001020
  H        2.7093930    -2.1785160    -0.0003580
  H        3.6789480     0.0978590     0.0002690
  H        0.2537760    -2.5213680    -0.0000660
  H        2.2194000     2.1097800     0.0002850
  H       -3.6376700    -0.9013790    -0.0001930
  H       -2.5281620    -1.9588410     0.8832840
  H       -2.7737480     1.6710560    -0.0003610
  H       -0.5326520     2.8176750    -0.0001200
  H       -2.5278290    -1.9594320    -0.8825300
units angstrom
no_reorient  #important for SAPT in psi4, default
symmetry c1  #important for SAPT in psi4, default
}

set PROPERTIES_ORIGIN ["COM"]
properties('MP2/aug-cc-pvtz', properties = ['dipole'])
--------------------------------------------------------------------------

    Molecular point group: c1
  Charge       = 0
  Multiplicity = 1
  Basis Set: AUG-CC-PVTZ
    Blend: AUG-CC-PVTZ
  Basis Set: (AUG-CC-PVTZ AUX)
    Blend: AUG-CC-PVTZ-JKFIT

    Orbital Energies [Eh]
    ---------------------

    Doubly Occupied:

       1A    -15.585437     2A    -11.263943     3A    -11.261384
       4A    -11.237437     5A    -11.233854     6A    -11.231443
       7A    -11.225603     8A    -11.219581     9A    -11.216194
      10A    -11.214369    11A     -1.266185    12A     -1.139462
      13A     -1.068073    14A     -0.998962    15A     -0.997634
      16A     -0.921393    17A     -0.836927    18A     -0.800888
      19A     -0.763503    20A     -0.709766    21A     -0.647661
      22A     -0.644379    23A     -0.622481    24A     -0.592040
      25A     -0.586185    26A     -0.559198    27A     -0.544798
      28A     -0.540715    29A     -0.522445    30A     -0.493759
      31A     -0.490347    32A     -0.465944    33A     -0.367919
      34A     -0.316420    35A     -0.274996

  @DF-RHF Final Energy:  -400.61671895792813

   => Energetics <=

    Nuclear Repulsion Energy =            484.3148550014838634
    One-Electron Energy =               -1502.1405010152334398
    Two-Electron Energy =                 617.2089270558213911
    Total Energy =                       -400.6167189579281285
  Basis Set: (AUG-CC-PVTZ AUX)
    Blend: AUG-CC-PVTZ-RI
    Molecular point group: c1

    Geometry (in Angstrom), charge = 0, multiplicity = 1:

       Center              X                  Y                   Z               Mass
    ------------   -----------------  -----------------  -----------------  -----------------
         C           -2.652384467731    -1.326433292199     0.000153606956    12.000000000000
         C           -0.204948467731    -0.399241292199     0.000227606956    12.000000000000
         C           -1.629258467731    -0.235435292199    -0.000025393044    12.000000000000
         C            0.406255032269     0.754543807801    -0.000209093044    12.000000000000
         C           -1.860705467731     1.122595707801    -0.000056393044    12.000000000000
         C            2.016867532269    -1.327152292199     0.000039606956    12.000000000000
         C            2.571442532269    -0.028386292199    -0.000068393044    12.000000000000
         C            0.642460532269    -1.523221292199    -0.000278393044    12.000000000000
         C            1.763068532269     1.101609707801     0.000303606956    12.000000000000
         N           -0.659223467731     1.803430707801    -0.000094393044    14.003074004430
         H            2.683009532269    -2.186770292199    -0.000350393044     1.007825032230
         H            3.652564532269     0.089604707801     0.000276606956     1.007825032230
         H            0.227392532269    -2.529622292199    -0.000058393044     1.007825032230
         H            2.193016532269     2.101525707801     0.000292606956     1.007825032230
         H           -3.664053467731    -0.909633292199    -0.000185393044     1.007825032230
         H           -2.554545467731    -1.967095292199     0.883291606956     1.007825032230
         H           -2.800131467731     1.662801707801    -0.000353393044     1.007825032230
         H           -0.559035467731     2.809420707801    -0.000112393044     1.007825032230
         H           -2.554212467731    -1.967686292199    -0.882522393044     1.007825032230

  Basis Set: AUG-CC-PVTZ
    Blend: AUG-CC-PVTZ
  Basis Set: (AUG-CC-PVTZ AUX)
    Blend: AUG-CC-PVTZ-JKFIT
	 Reference Energy          =    -400.6167189579281285 [Eh]
	 Singles Energy            =      -0.0000000000000000 [Eh]
	 Same-Spin Energy          =      -0.4508348499678835 [Eh]
	 Opposite-Spin Energy      =      -1.4046449800058842 [Eh]
	 Correlation Energy        =      -1.8554798299737678 [Eh]
	 Total Energy              =    -402.4721987879019025 [Eh]

	 ================> DF-SCS-MP2 Energies <==================
	-----------------------------------------------------------
	 SCS Same-Spin Scale       =       0.3333333333333333 [-]
	 SCS Opposite-Spin Scale   =       1.2000000000000000 [-]
	 SCS Same-Spin Energy      =      -0.1502782833226278 [Eh]
	 SCS Opposite-Spin Energy  =      -1.6855739760070609 [Eh]
	 SCS Correlation Energy    =      -1.8358522593296889 [Eh]
	 SCS Total Energy          =    -402.4525712172577983 [Eh]
	-----------------------------------------------------------

  Dipole Moment: [D]
     X:    -0.5095      Y:     1.5434      Z:    -0.0000     Total:     1.6254

*** Psi4 exiting successfully. Buy a developer a beer!
