                               Psi4 1.3.2 release

  ==> Input File <==

--------------------------------------------------------------------------
#psi4
#
memory 32 gb

molecule  {
0 1
  C       -2.6068046    -1.3358688     0.0001443
  C       -0.1785650    -0.3909870     0.0002200
  C       -1.6028750    -0.2271810    -0.0000330
  C        0.4037930     0.9065250    -0.0001510
  C       -1.8343220     1.1308500    -0.0000640
  C        2.0432510    -1.3188980     0.0000320
  C        2.5978260    -0.0201320    -0.0000760
  C        0.6688440    -1.5149670    -0.0002860
  C        1.7894520     1.1098640     0.0002960
  N       -0.6328400     1.8116850    -0.0001020
  H        2.7093930    -2.1785160    -0.0003580
  H        3.6789480     0.0978590     0.0002690
  H        0.2537760    -2.5213680    -0.0000660
  H        2.2194000     2.1097800     0.0002850
  H       -3.6376700    -0.9013790    -0.0001930
  H       -2.5281620    -1.9588410     0.8832840
  H       -2.7737480     1.6710560    -0.0003610
  H       -0.5326520     2.8176750    -0.0001200
  H       -2.5278290    -1.9594320    -0.8825300
units angstrom
no_reorient  #important for SAPT in psi4, default
symmetry c1  #important for SAPT in psi4, default
}

set PROPERTIES_ORIGIN ["COM"]
properties('MP2/aug-cc-pvtz', properties = ['dipole'])
--------------------------------------------------------------------------

    Molecular point group: c1
  Charge       = 0
  Multiplicity = 1
  Basis Set: AUG-CC-PVTZ
    Blend: AUG-CC-PVTZ
  Basis Set: (AUG-CC-PVTZ AUX)
    Blend: AUG-CC-PVTZ-JKFIT

    Orbital Energies [Eh]
    ---------------------

    Doubly Occupied:

       1A    -15.600172     2A    -11.265170     3A    -11.265101
       4A    -11.231797     5A    -11.230555     6A    -11.229378
       7A    -11.222636     8A    -11.221639     9A    -11.221242
      10A    -11.221037    11A     -1.291816    12A     -1.126967
      13A     -1.072152    14A     -0.997232    15A     -0.985327
      16A     -0.931472    17A     -0.839000    18A     -0.803809
      19A     -0.755787    20A     -0.720213    21A     -0.659862
      22A     -0.644595    23A     -0.602308    24A     -0.593960
      25A     -0.592635    26A     -0.567423    27A     -0.556193
      28A     -0.544115    29A     -0.526740    30A     -0.496694
      31A     -0.473630    32A     -0.463058    33A     -0.375017
      34A     -0.298613    35A     -0.278038

  @DF-RHF Final Energy:  -400.63938942705295

   => Energetics <=

    Nuclear Repulsion Energy =            483.3298737199311290
    One-Electron Energy =               -1500.1277592099609137
    Two-Electron Energy =                 616.1584960629768375
    Total Energy =                       -400.6393894270529472
  Basis Set: (AUG-CC-PVTZ AUX)
    Blend: AUG-CC-PVTZ-RI
    Molecular point group: c1

    Geometry (in Angstrom), charge = 0, multiplicity = 1:

       Center              X                  Y                   Z               Mass
    ------------   -----------------  -----------------  -----------------  -----------------
         C           -2.632304676347    -1.355662001347     0.000146047648    12.000000000000
         C           -0.204065076347    -0.410780201347     0.000221747648    12.000000000000
         C           -1.628375076347    -0.246974201347    -0.000031252352    12.000000000000
         C            0.378292923653     0.886731798653    -0.000149252352    12.000000000000
         C           -1.859822076347     1.111056798653    -0.000062252352    12.000000000000
         C            2.017750923653    -1.338691201347     0.000033747648    12.000000000000
         C            2.572325923653    -0.039925201347    -0.000074252352    12.000000000000
         C            0.643343923653    -1.534760201347    -0.000284252352    12.000000000000
         C            1.763951923653     1.090070798653     0.000297747648    12.000000000000
         N           -0.658340076347     1.791891798653    -0.000100252352    14.003074004430
         H            2.683892923653    -2.198309201347    -0.000356252352     1.007825032230
         H            3.653447923653     0.078065798653     0.000270747648     1.007825032230
         H            0.228275923653    -2.541161201347    -0.000064252352     1.007825032230
         H            2.193899923653     2.089986798653     0.000286747648     1.007825032230
         H           -3.663170076347    -0.921172201347    -0.000191252352     1.007825032230
         H           -2.553662076347    -1.978634201347     0.883285747648     1.007825032230
         H           -2.799248076347     1.651262798653    -0.000359252352     1.007825032230
         H           -0.558152076347     2.797881798653    -0.000118252352     1.007825032230
         H           -2.553329076347    -1.979225201347    -0.882528252352     1.007825032230

  Basis Set: AUG-CC-PVTZ
    Blend: AUG-CC-PVTZ
  Basis Set: (AUG-CC-PVTZ AUX)
    Blend: AUG-CC-PVTZ-JKFIT
	 Reference Energy          =    -400.6393894270529472 [Eh]
	 Singles Energy            =      -0.0000000000000000 [Eh]
	 Same-Spin Energy          =      -0.4517171370705053 [Eh]
	 Opposite-Spin Energy      =      -1.4041978183002843 [Eh]
	 Correlation Energy        =      -1.8559149553707897 [Eh]
	 Total Energy              =    -402.4953043824237398 [Eh]

	 ================> DF-SCS-MP2 Energies <==================
	-----------------------------------------------------------
	 SCS Same-Spin Scale       =       0.3333333333333333 [-]
	 SCS Opposite-Spin Scale   =       1.2000000000000000 [-]
	 SCS Same-Spin Energy      =      -0.1505723790235018 [Eh]
	 SCS Opposite-Spin Energy  =      -1.6850373819603413 [Eh]
	 SCS Correlation Energy    =      -1.8356097609838431 [Eh]
	 SCS Total Energy          =    -402.4749991880368043 [Eh]
	-----------------------------------------------------------

  Dipole Moment: [D]
     X:    -0.9477      Y:     1.7993      Z:    -0.0001     Total:     2.0336

*** Psi4 exiting successfully. Buy a developer a beer!
