                               Psi4 1.3.2 release

  ==> Input File <==

--------------------------------------------------------------------------
#psi4
#
memory 32 gb

molecule  {
0 1
  C       -2.6260010    -1.3181790     0.0001460
  C       -0.1785650    -0.3909870     0.0002200
  C       -1.6028750    -0.2271810    -0.0000330
  C        0.4037930     0.9065250    -0.0001510
  C       -1.8343220     1.1308500    -0.0000640
  C        2.0432510    -1.3188980     0.0000320
  C        2.5978260    -0.0201320    -0.0000760
  C        0.6688440    -1.5149670    -0.0002860
  C        1.7894520     1.1098640     0.0002960
  N       -0.6328400     1.8116850    -0.0001020
  H        2.7093930    -2.1785160    -0.0003580
  H        3.7783577     0.1087083     0.0003007
  H        0.2537760    -2.5213680    -0.0000660
  H        2.2194000     2.1097800     0.0002850
  H       -3.6376700    -0.9013790    -0.0001930
  H       -2.5281620    -1.9588410     0.8832840
  H       -2.7737480     1.6710560    -0.0003610
  H       -0.5326520     2.8176750    -0.0001200
  H       -2.5278290    -1.9594320    -0.8825300
units angstrom
no_reorient  #important for SAPT in psi4, default
symmetry c1  #important for SAPT in psi4, default
}

set PROPERTIES_ORIGIN ["COM"]
properties('MP2/aug-cc-pvtz', properties = ['dipole'])
--------------------------------------------------------------------------

    Molecular point group: c1
  Charge       = 0
  Multiplicity = 1
  Basis Set: AUG-CC-PVTZ
    Blend: AUG-CC-PVTZ
  Basis Set: (AUG-CC-PVTZ AUX)
    Blend: AUG-CC-PVTZ-JKFIT

    Orbital Energies [Eh]
    ---------------------

    Doubly Occupied:

       1A    -15.600439     2A    -11.266047     3A    -11.264931
       4A    -11.241131     5A    -11.232715     6A    -11.231439
       7A    -11.223146     8A    -11.222254     9A    -11.222181
      10A    -11.221688    11A     -1.292169    12A     -1.127123
      13A     -1.072237    14A     -0.998007    15A     -0.983850
      16A     -0.930822    17A     -0.838506    18A     -0.799796
      19A     -0.756302    20A     -0.719002    21A     -0.656076
      22A     -0.640776    23A     -0.603180    24A     -0.592832
      25A     -0.592395    26A     -0.569758    27A     -0.551764
      28A     -0.541835    29A     -0.520913    30A     -0.497401
      31A     -0.473894    32A     -0.463845    33A     -0.375117
      34A     -0.299275    35A     -0.278234

  @DF-RHF Final Energy:  -400.63282828212095

   => Energetics <=

    Nuclear Repulsion Energy =            482.7720758888507930
    One-Electron Energy =               -1499.0076437222767254
    Two-Electron Energy =                 615.6027395513049214
    Total Energy =                       -400.6328282821209541
  Basis Set: (AUG-CC-PVTZ AUX)
    Blend: AUG-CC-PVTZ-RI
    Molecular point group: c1

    Geometry (in Angstrom), charge = 0, multiplicity = 1:

       Center              X                  Y                   Z               Mass
    ------------   -----------------  -----------------  -----------------  -----------------
         C           -2.650507975403    -1.339675152724     0.000147348268    12.000000000000
         C           -0.203071975403    -0.412483152724     0.000221348268    12.000000000000
         C           -1.627381975403    -0.248677152724    -0.000031651732    12.000000000000
         C            0.379286024597     0.885028847276    -0.000149651732    12.000000000000
         C           -1.858828975403     1.109353847276    -0.000062651732    12.000000000000
         C            2.018744024597    -1.340394152724     0.000033348268    12.000000000000
         C            2.573319024597    -0.041628152724    -0.000074651732    12.000000000000
         C            0.644337024597    -1.536463152724    -0.000284651732    12.000000000000
         C            1.764945024597     1.088367847276     0.000297348268    12.000000000000
         N           -0.657346975403     1.790188847276    -0.000100651732    14.003074004430
         H            2.684886024597    -2.200012152724    -0.000356651732     1.007825032230
         H            3.753850724597     0.087212147276     0.000302048268     1.007825032230
         H            0.229269024597    -2.542864152724    -0.000064651732     1.007825032230
         H            2.194893024597     2.088283847276     0.000286348268     1.007825032230
         H           -3.662176975403    -0.922875152724    -0.000191651732     1.007825032230
         H           -2.552668975403    -1.980337152724     0.883285348268     1.007825032230
         H           -2.798254975403     1.649559847276    -0.000359651732     1.007825032230
         H           -0.557158975403     2.796178847276    -0.000118651732     1.007825032230
         H           -2.552335975403    -1.980928152724    -0.882528651732     1.007825032230

  Basis Set: AUG-CC-PVTZ
    Blend: AUG-CC-PVTZ
  Basis Set: (AUG-CC-PVTZ AUX)
    Blend: AUG-CC-PVTZ-JKFIT
	 Reference Energy          =    -400.6328282821209541 [Eh]
	 Singles Energy            =      -0.0000000000000000 [Eh]
	 Same-Spin Energy          =      -0.4518931342981923 [Eh]
	 Opposite-Spin Energy      =      -1.4050762059041526 [Eh]
	 Correlation Energy        =      -1.8569693402023448 [Eh]
	 Total Energy              =    -402.4897976223232945 [Eh]

	 ================> DF-SCS-MP2 Energies <==================
	-----------------------------------------------------------
	 SCS Same-Spin Scale       =       0.3333333333333333 [-]
	 SCS Opposite-Spin Scale   =       1.2000000000000000 [-]
	 SCS Same-Spin Energy      =      -0.1506310447660641 [Eh]
	 SCS Opposite-Spin Energy  =      -1.6860914470849830 [Eh]
	 SCS Correlation Energy    =      -1.8367224918510472 [Eh]
	 SCS Total Energy          =    -402.4695507739720028 [Eh]
	-----------------------------------------------------------

  Dipole Moment: [D]
     X:    -1.0168      Y:     1.7965      Z:    -0.0001     Total:     2.0643

*** Psi4 exiting successfully. Buy a developer a beer!
