                               Psi4 1.3.2 release

  ==> Input File <==

--------------------------------------------------------------------------
#psi4
#
memory 32 gb

molecule  {
0 1
  C       -2.6260010    -1.3181790     0.0001460
  C       -0.1785650    -0.3909870     0.0002200
  C       -1.5779501    -0.0791974     0.0000679
  C        0.4037930     0.9065250    -0.0001510
  C       -1.8343220     1.1308500    -0.0000640
  C        2.0432510    -1.3188980     0.0000320
  C        2.5978260    -0.0201320    -0.0000760
  C        0.6688440    -1.5149670    -0.0002860
  C        1.7894520     1.1098640     0.0002960
  N       -0.6328400     1.8116850    -0.0001020
  H        2.7093930    -2.1785160    -0.0003580
  H        3.6789480     0.0978590     0.0002690
  H        0.2537760    -2.5213680    -0.0000660
  H        2.2194000     2.1097800     0.0002850
  H       -3.6376700    -0.9013790    -0.0001930
  H       -2.5281620    -1.9588410     0.8832840
  H       -2.7737480     1.6710560    -0.0003610
  H       -0.5326520     2.8176750    -0.0001200
  H       -2.5278290    -1.9594320    -0.8825300
units angstrom
no_reorient  #important for SAPT in psi4, default
symmetry c1  #important for SAPT in psi4, default
}

set PROPERTIES_ORIGIN ["COM"]
properties('MP2/aug-cc-pvtz', properties = ['dipole'])
--------------------------------------------------------------------------

    Molecular point group: c1
  Charge       = 0
  Multiplicity = 1
  Basis Set: AUG-CC-PVTZ
    Blend: AUG-CC-PVTZ
  Basis Set: (AUG-CC-PVTZ AUX)
    Blend: AUG-CC-PVTZ-JKFIT

    Orbital Energies [Eh]
    ---------------------

    Doubly Occupied:

       1A    -15.589589     2A    -11.264717     3A    -11.244323
       4A    -11.235433     5A    -11.232118     6A    -11.229958
       7A    -11.225117     8A    -11.221772     9A    -11.220602
      10A    -11.210763    11A     -1.299532    12A     -1.126925
      13A     -1.074797    14A     -0.995911    15A     -0.989965
      16A     -0.928818    17A     -0.842048    18A     -0.806899
      19A     -0.750483    20A     -0.717872    21A     -0.666191
      22A     -0.649940    23A     -0.599322    24A     -0.594966
      25A     -0.591709    26A     -0.576423    27A     -0.545519
      28A     -0.536592    29A     -0.516510    30A     -0.506502
      31A     -0.465416    32A     -0.453446    33A     -0.384062
      34A     -0.298681    35A     -0.294802

  @DF-RHF Final Energy:  -400.61147290333952

   => Energetics <=

    Nuclear Repulsion Energy =            484.6891190542231129
    One-Electron Energy =               -1502.8257337535351326
    Two-Electron Energy =                 617.5251417959725586
    Total Energy =                       -400.6114729033395179
  Basis Set: (AUG-CC-PVTZ AUX)
    Blend: AUG-CC-PVTZ-RI
    Molecular point group: c1

    Geometry (in Angstrom), charge = 0, multiplicity = 1:

       Center              X                  Y                   Z               Mass
    ------------   -----------------  -----------------  -----------------  -----------------
         C           -2.652025530187    -1.353139880631     0.000138354445    12.000000000000
         C           -0.204589530187    -0.425947880631     0.000212354445    12.000000000000
         C           -1.603974630187    -0.114158280631     0.000060254445    12.000000000000
         C            0.377768469813     0.871564119369    -0.000158645555    12.000000000000
         C           -1.860346530187     1.095889119369    -0.000071645555    12.000000000000
         C            2.017226469813    -1.353858880631     0.000024354445    12.000000000000
         C            2.571801469813    -0.055092880631    -0.000083645555    12.000000000000
         C            0.642819469813    -1.549927880631    -0.000293645555    12.000000000000
         C            1.763427469813     1.074903119369     0.000288354445    12.000000000000
         N           -0.658864530187     1.776724119369    -0.000109645555    14.003074004430
         H            2.683368469813    -2.213476880631    -0.000365645555     1.007825032230
         H            3.652923469813     0.062898119369     0.000261354445     1.007825032230
         H            0.227751469813    -2.556328880631    -0.000073645555     1.007825032230
         H            2.193375469813     2.074819119369     0.000277354445     1.007825032230
         H           -3.663694530187    -0.936339880631    -0.000200645555     1.007825032230
         H           -2.554186530187    -1.993801880631     0.883276354445     1.007825032230
         H           -2.799772530187     1.636095119369    -0.000368645555     1.007825032230
         H           -0.558676530187     2.782714119369    -0.000127645555     1.007825032230
         H           -2.553853530187    -1.994392880631    -0.882537645555     1.007825032230

  Basis Set: AUG-CC-PVTZ
    Blend: AUG-CC-PVTZ
  Basis Set: (AUG-CC-PVTZ AUX)
    Blend: AUG-CC-PVTZ-JKFIT
	 Reference Energy          =    -400.6114729033395179 [Eh]
	 Singles Energy            =      -0.0000000000000000 [Eh]
	 Same-Spin Energy          =      -0.4496879326590912 [Eh]
	 Opposite-Spin Energy      =      -1.4011148092810826 [Eh]
	 Correlation Energy        =      -1.8508027419401738 [Eh]
	 Total Energy              =    -402.4622756452797034 [Eh]

	 ================> DF-SCS-MP2 Energies <==================
	-----------------------------------------------------------
	 SCS Same-Spin Scale       =       0.3333333333333333 [-]
	 SCS Opposite-Spin Scale   =       1.2000000000000000 [-]
	 SCS Same-Spin Energy      =      -0.1498959775530304 [Eh]
	 SCS Opposite-Spin Energy  =      -1.6813377711372990 [Eh]
	 SCS Correlation Energy    =      -1.8312337486903294 [Eh]
	 SCS Total Energy          =    -402.4427066520298695 [Eh]
	-----------------------------------------------------------

  Dipole Moment: [D]
     X:    -0.8858      Y:     1.7746      Z:    -0.0002     Total:     1.9834

*** Psi4 exiting successfully. Buy a developer a beer!
