                               Psi4 1.3.2 release

  ==> Input File <==

--------------------------------------------------------------------------
#psi4
#
memory 32 gb

molecule  {
0 1
  C       -2.6260010    -1.3181790     0.0001460
  C       -0.1785650    -0.3909870     0.0002200
  C       -1.6028750    -0.2271810    -0.0000330
  C        0.4117335     0.8582901    -0.0001735
  C       -1.8343220     1.1308500    -0.0000640
  C        2.0432510    -1.3188980     0.0000320
  C        2.5978260    -0.0201320    -0.0000760
  C        0.6688440    -1.5149670    -0.0002860
  C        1.7894520     1.1098640     0.0002960
  N       -0.6328400     1.8116850    -0.0001020
  H        2.7093930    -2.1785160    -0.0003580
  H        3.6789480     0.0978590     0.0002690
  H        0.2537760    -2.5213680    -0.0000660
  H        2.2194000     2.1097800     0.0002850
  H       -3.6376700    -0.9013790    -0.0001930
  H       -2.5281620    -1.9588410     0.8832840
  H       -2.7737480     1.6710560    -0.0003610
  H       -0.5326520     2.8176750    -0.0001200
  H       -2.5278290    -1.9594320    -0.8825300
units angstrom
no_reorient  #important for SAPT in psi4, default
symmetry c1  #important for SAPT in psi4, default
}

set PROPERTIES_ORIGIN ["COM"]
properties('MP2/aug-cc-pvtz', properties = ['dipole'])
--------------------------------------------------------------------------

    Molecular point group: c1
  Charge       = 0
  Multiplicity = 1
  Basis Set: AUG-CC-PVTZ
    Blend: AUG-CC-PVTZ
  Basis Set: (AUG-CC-PVTZ AUX)
    Blend: AUG-CC-PVTZ-JKFIT

    Orbital Energies [Eh]
    ---------------------

    Doubly Occupied:

       1A    -15.595382     2A    -11.264346     3A    -11.263607
       4A    -11.233502     5A    -11.231499     6A    -11.229923
       7A    -11.222650     8A    -11.220995     9A    -11.220270
      10A    -11.219303    11A     -1.282194    12A     -1.130896
      13A     -1.070341    14A     -0.997747    15A     -0.989547
      16A     -0.927595    17A     -0.837534    18A     -0.802988
      19A     -0.758083    20A     -0.716940    21A     -0.654166
      22A     -0.644847    23A     -0.610143    24A     -0.593034
      25A     -0.589397    26A     -0.566434    27A     -0.548763
      28A     -0.541642    29A     -0.527700    30A     -0.496875
      31A     -0.482269    32A     -0.464179    33A     -0.371877
      34A     -0.304551    35A     -0.276901

  @DF-RHF Final Energy:  -400.63803892628664

   => Energetics <=

    Nuclear Repulsion Energy =            483.6009930936849628
    One-Electron Energy =               -1500.7018242062097215
    Two-Electron Energy =                 616.4627921862380617
    Total Energy =                       -400.6380389262866402
  Basis Set: (AUG-CC-PVTZ AUX)
    Blend: AUG-CC-PVTZ-RI
    Molecular point group: c1

    Geometry (in Angstrom), charge = 0, multiplicity = 1:

       Center              X                  Y                   Z               Mass
    ------------   -----------------  -----------------  -----------------  -----------------
         C           -2.650470579712    -1.335175745908     0.000149651923    12.000000000000
         C           -0.203034579712    -0.407983745908     0.000223651923    12.000000000000
         C           -1.627344579712    -0.244177745908    -0.000029348077    12.000000000000
         C            0.387263920288     0.841293354092    -0.000169848077    12.000000000000
         C           -1.858791579712     1.113853254092    -0.000060348077    12.000000000000
         C            2.018781420288    -1.335894745908     0.000035651923    12.000000000000
         C            2.573356420288    -0.037128745908    -0.000072348077    12.000000000000
         C            0.644374420288    -1.531963745908    -0.000282348077    12.000000000000
         C            1.764982420288     1.092867254092     0.000299651923    12.000000000000
         N           -0.657309579712     1.794688254092    -0.000098348077    14.003074004430
         H            2.684923420288    -2.195512745908    -0.000354348077     1.007825032230
         H            3.654478420288     0.080862254092     0.000272651923     1.007825032230
         H            0.229306420288    -2.538364745908    -0.000062348077     1.007825032230
         H            2.194930420288     2.092783254092     0.000288651923     1.007825032230
         H           -3.662139579712    -0.918375745908    -0.000189348077     1.007825032230
         H           -2.552631579712    -1.975837745908     0.883287651923     1.007825032230
         H           -2.798217579712     1.654059254092    -0.000357348077     1.007825032230
         H           -0.557121579712     2.800678254092    -0.000116348077     1.007825032230
         H           -2.552298579712    -1.976428745908    -0.882526348077     1.007825032230

  Basis Set: AUG-CC-PVTZ
    Blend: AUG-CC-PVTZ
  Basis Set: (AUG-CC-PVTZ AUX)
    Blend: AUG-CC-PVTZ-JKFIT
	 Reference Energy          =    -400.6380389262866402 [Eh]
	 Singles Energy            =      -0.0000000000000000 [Eh]
	 Same-Spin Energy          =      -0.4512523163509118 [Eh]
	 Opposite-Spin Energy      =      -1.4039925791404824 [Eh]
	 Correlation Energy        =      -1.8552448954913943 [Eh]
	 Total Energy              =    -402.4932838217780500 [Eh]

	 ================> DF-SCS-MP2 Energies <==================
	-----------------------------------------------------------
	 SCS Same-Spin Scale       =       0.3333333333333333 [-]
	 SCS Opposite-Spin Scale   =       1.2000000000000000 [-]
	 SCS Same-Spin Energy      =      -0.1504174387836373 [Eh]
	 SCS Opposite-Spin Energy  =      -1.6847910949685787 [Eh]
	 SCS Correlation Energy    =      -1.8352085337522159 [Eh]
	 SCS Total Energy          =    -402.4732474600388628 [Eh]
	-----------------------------------------------------------

  Dipole Moment: [D]
     X:    -0.8088      Y:     1.7249      Z:    -0.0001     Total:     1.9051

*** Psi4 exiting successfully. Buy a developer a beer!
