                               Psi4 1.3.2 release

  ==> Input File <==

--------------------------------------------------------------------------
#psi4
#
memory 32 gb

molecule  {
0 1
  C       -2.5474045    -1.3868910     0.0001390
  C       -0.1785650    -0.3909870     0.0002200
  C       -1.6028750    -0.2271810    -0.0000330
  C        0.4037930     0.9065250    -0.0001510
  C       -1.8343220     1.1308500    -0.0000640
  C        2.0432510    -1.3188980     0.0000320
  C        2.5978260    -0.0201320    -0.0000760
  C        0.6688440    -1.5149670    -0.0002860
  C        1.7894520     1.1098640     0.0002960
  N       -0.6328400     1.8116850    -0.0001020
  H        2.7093930    -2.1785160    -0.0003580
  H        3.6789480     0.0978590     0.0002690
  H        0.2537760    -2.5213680    -0.0000660
  H        2.2194000     2.1097800     0.0002850
  H       -3.6376700    -0.9013790    -0.0001930
  H       -2.5281620    -1.9588410     0.8832840
  H       -2.7737480     1.6710560    -0.0003610
  H       -0.5326520     2.8176750    -0.0001200
  H       -2.5278290    -1.9594320    -0.8825300
units angstrom
no_reorient  #important for SAPT in psi4, default
symmetry c1  #important for SAPT in psi4, default
}

set PROPERTIES_ORIGIN ["COM"]
properties('MP2/aug-cc-pvtz', properties = ['dipole'])
--------------------------------------------------------------------------

    Molecular point group: c1
  Charge       = 0
  Multiplicity = 1
  Basis Set: AUG-CC-PVTZ
    Blend: AUG-CC-PVTZ
  Basis Set: (AUG-CC-PVTZ AUX)
    Blend: AUG-CC-PVTZ-JKFIT

    Orbital Energies [Eh]
    ---------------------

    Doubly Occupied:

       1A    -15.601001     2A    -11.267194     3A    -11.264754
       4A    -11.231750     5A    -11.230438     6A    -11.229285
       7A    -11.223560     8A    -11.222813     9A    -11.221128
      10A    -11.220192    11A     -1.292382    12A     -1.127050
      13A     -1.072639    14A     -0.997196    15A     -0.984484
      16A     -0.933635    17A     -0.839172    18A     -0.803664
      19A     -0.756483    20A     -0.720934    21A     -0.659649
      22A     -0.644607    23A     -0.603238    24A     -0.600494
      25A     -0.592758    26A     -0.567136    27A     -0.563729
      28A     -0.548811    29A     -0.518241    30A     -0.492787
      31A     -0.463458    32A     -0.463195    33A     -0.376413
      34A     -0.298683    35A     -0.278997

  @DF-RHF Final Energy:  -400.62928647825646

   => Energetics <=

    Nuclear Repulsion Energy =            483.5707256752101557
    One-Electron Energy =               -1500.5761239942767133
    Two-Electron Energy =                 616.3761118408100401
    Total Energy =                       -400.6292864782565175
  Basis Set: (AUG-CC-PVTZ AUX)
    Blend: AUG-CC-PVTZ-RI
    Molecular point group: c1

    Geometry (in Angstrom), charge = 0, multiplicity = 1:

       Center              X                  Y                   Z               Mass
    ------------   -----------------  -----------------  -----------------  -----------------
         C           -2.578342755718    -1.402013032855     0.000141232872    12.000000000000
         C           -0.209503255718    -0.406109032855     0.000222232872    12.000000000000
         C           -1.633813255718    -0.242303032855    -0.000030767128    12.000000000000
         C            0.372854744282     0.891402967145    -0.000148767128    12.000000000000
         C           -1.865260255718     1.115727967145    -0.000061767128    12.000000000000
         C            2.012312744282    -1.334020032855     0.000034232872    12.000000000000
         C            2.566887744282    -0.035254032855    -0.000073767128    12.000000000000
         C            0.637905744282    -1.530089032855    -0.000283767128    12.000000000000
         C            1.758513744282     1.094741967145     0.000298232872    12.000000000000
         N           -0.663778255718     1.796562967145    -0.000099767128    14.003074004430
         H            2.678454744282    -2.193638032855    -0.000355767128     1.007825032230
         H            3.648009744282     0.082736967145     0.000271232872     1.007825032230
         H            0.222837744282    -2.536490032855    -0.000063767128     1.007825032230
         H            2.188461744282     2.094657967145     0.000287232872     1.007825032230
         H           -3.668608255718    -0.916501032855    -0.000190767128     1.007825032230
         H           -2.559100255718    -1.973963032855     0.883286232872     1.007825032230
         H           -2.804686255718     1.655933967145    -0.000358767128     1.007825032230
         H           -0.563590255718     2.802552967145    -0.000117767128     1.007825032230
         H           -2.558767255718    -1.974554032855    -0.882527767128     1.007825032230

  Basis Set: AUG-CC-PVTZ
    Blend: AUG-CC-PVTZ
  Basis Set: (AUG-CC-PVTZ AUX)
    Blend: AUG-CC-PVTZ-JKFIT
	 Reference Energy          =    -400.6292864782564607 [Eh]
	 Singles Energy            =      -0.0000000000000000 [Eh]
	 Same-Spin Energy          =      -0.4519592567798908 [Eh]
	 Opposite-Spin Energy      =      -1.4048331753247301 [Eh]
	 Correlation Energy        =      -1.8567924321046210 [Eh]
	 Total Energy              =    -402.4860789103610728 [Eh]

	 ================> DF-SCS-MP2 Energies <==================
	-----------------------------------------------------------
	 SCS Same-Spin Scale       =       0.3333333333333333 [-]
	 SCS Opposite-Spin Scale   =       1.2000000000000000 [-]
	 SCS Same-Spin Energy      =      -0.1506530855932969 [Eh]
	 SCS Opposite-Spin Energy  =      -1.6857998103896761 [Eh]
	 SCS Correlation Energy    =      -1.8364528959829731 [Eh]
	 SCS Total Energy          =    -402.4657393742394333 [Eh]
	-----------------------------------------------------------

  Dipole Moment: [D]
     X:    -0.9007      Y:     1.7899      Z:    -0.0001     Total:     2.0038

*** Psi4 exiting successfully. Buy a developer a beer!
