                               Psi4 1.3.2 release

  ==> Input File <==

--------------------------------------------------------------------------
#psi4
#
memory 32 gb

molecule  {
0 1
  C       -2.6260010    -1.3181790     0.0001460
  C       -0.1785650    -0.3909870     0.0002200
  C       -1.6028750    -0.2271810    -0.0000330
  C        0.4037930     0.9065250    -0.0001510
  C       -1.8343220     1.1308500    -0.0000640
  C        2.0432510    -1.3188980     0.0000320
  C        2.5978260    -0.0201320    -0.0000760
  C        0.6688440    -1.5149670    -0.0002860
  C        1.7894520     1.1098640     0.0002960
  N       -0.6328400     1.8116850    -0.0001020
  H        2.7093930    -2.1785160    -0.0003580
  H        3.6789480     0.0978590     0.0002690
  H        0.2537760    -2.5213680    -0.0000660
  H        2.2194000     2.1097800     0.0002850
  H       -3.6376700    -0.9013790    -0.0001930
  H       -2.5281620    -1.9588410     0.8832840
  H       -2.6870588     1.6212064    -0.0003336
  H       -0.5326520     2.8176750    -0.0001200
  H       -2.5278290    -1.9594320    -0.8825300
units angstrom
no_reorient  #important for SAPT in psi4, default
symmetry c1  #important for SAPT in psi4, default
}

set PROPERTIES_ORIGIN ["COM"]
properties('MP2/aug-cc-pvtz', properties = ['dipole'])
--------------------------------------------------------------------------

    Molecular point group: c1
  Charge       = 0
  Multiplicity = 1
  Basis Set: AUG-CC-PVTZ
    Blend: AUG-CC-PVTZ
  Basis Set: (AUG-CC-PVTZ AUX)
    Blend: AUG-CC-PVTZ-JKFIT

    Orbital Energies [Eh]
    ---------------------

    Doubly Occupied:

       1A    -15.599158     2A    -11.264907     3A    -11.252835
       4A    -11.231590     5A    -11.230440     6A    -11.229318
       7A    -11.222268     8A    -11.221611     9A    -11.221047
      10A    -11.220843    11A     -1.291366    12A     -1.126930
      13A     -1.072239    14A     -0.997259    15A     -0.988019
      16A     -0.932979    17A     -0.845390    18A     -0.805705
      19A     -0.758745    20A     -0.721921    21A     -0.665627
      22A     -0.649477    23A     -0.603312    24A     -0.592443
      25A     -0.591575    26A     -0.576923    27A     -0.551278
      28A     -0.542311    29A     -0.530279    30A     -0.497669
      31A     -0.475697    32A     -0.462783    33A     -0.374210
      34A     -0.298357    35A     -0.277550

  @DF-RHF Final Energy:  -400.63422536912856

   => Energetics <=

    Nuclear Repulsion Energy =            483.8251814212216004
    One-Electron Energy =               -1501.0706954135450815
    Two-Electron Energy =                 616.6112886231949233
    Total Energy =                       -400.6342253691285578
  Basis Set: (AUG-CC-PVTZ AUX)
    Blend: AUG-CC-PVTZ-RI
    Molecular point group: c1

    Geometry (in Angstrom), charge = 0, multiplicity = 1:

       Center              X                  Y                   Z               Mass
    ------------   -----------------  -----------------  -----------------  -----------------
         C           -2.650410167391    -1.339208438467     0.000147381331    12.000000000000
         C           -0.202974167391    -0.412016438467     0.000221381331    12.000000000000
         C           -1.627284167391    -0.248210438467    -0.000031618669    12.000000000000
         C            0.379383832609     0.885495561533    -0.000149618669    12.000000000000
         C           -1.858731167391     1.109820561533    -0.000062618669    12.000000000000
         C            2.018841832609    -1.339927438467     0.000033381331    12.000000000000
         C            2.573416832609    -0.041161438467    -0.000074618669    12.000000000000
         C            0.644434832609    -1.535996438467    -0.000284618669    12.000000000000
         C            1.765042832609     1.088834561533     0.000297381331    12.000000000000
         N           -0.657249167391     1.790655561533    -0.000100618669    14.003074004430
         H            2.684983832609    -2.199545438467    -0.000356618669     1.007825032230
         H            3.654538832609     0.076829561533     0.000270381331     1.007825032230
         H            0.229366832609    -2.542397438467    -0.000064618669     1.007825032230
         H            2.194990832609     2.088750561533     0.000286381331     1.007825032230
         H           -3.662079167391    -0.922408438467    -0.000191618669     1.007825032230
         H           -2.552571167391    -1.979870438467     0.883285381331     1.007825032230
         H           -2.711467967391     1.600176961533    -0.000332218669     1.007825032230
         H           -0.557061167391     2.796645561533    -0.000118618669     1.007825032230
         H           -2.552238167391    -1.980461438467    -0.882528618669     1.007825032230

  Basis Set: AUG-CC-PVTZ
    Blend: AUG-CC-PVTZ
  Basis Set: (AUG-CC-PVTZ AUX)
    Blend: AUG-CC-PVTZ-JKFIT
	 Reference Energy          =    -400.6342253691285578 [Eh]
	 Singles Energy            =      -0.0000000000000000 [Eh]
	 Same-Spin Energy          =      -0.4514911234611050 [Eh]
	 Opposite-Spin Energy      =      -1.4034867834097655 [Eh]
	 Correlation Energy        =      -1.8549779068708705 [Eh]
	 Total Energy              =    -402.4892032759994436 [Eh]

	 ================> DF-SCS-MP2 Energies <==================
	-----------------------------------------------------------
	 SCS Same-Spin Scale       =       0.3333333333333333 [-]
	 SCS Opposite-Spin Scale   =       1.2000000000000000 [-]
	 SCS Same-Spin Energy      =      -0.1504970411537017 [Eh]
	 SCS Opposite-Spin Energy  =      -1.6841841400917186 [Eh]
	 SCS Correlation Energy    =      -1.8346811812454202 [Eh]
	 SCS Total Energy          =    -402.4689065503739585 [Eh]
	-----------------------------------------------------------

  Dipole Moment: [D]
     X:    -0.9679      Y:     1.8062      Z:    -0.0001     Total:     2.0492

*** Psi4 exiting successfully. Buy a developer a beer!
