                               Psi4 1.3.2 release

  ==> Input File <==

--------------------------------------------------------------------------
#psi4
#
memory 32 gb

molecule  {
0 1
  C       -2.6260010    -1.3181790     0.0001460
  C       -0.1785650    -0.3909870     0.0002200
  C       -1.6028750    -0.2271810    -0.0000330
  C        0.4037930     0.9065250    -0.0001510
  C       -1.8343220     1.1308500    -0.0000640
  C        2.0660021    -1.3283789     0.0000231
  C        2.5978260    -0.0201320    -0.0000760
  C        0.6688440    -1.5149670    -0.0002860
  C        1.7894520     1.1098640     0.0002960
  N       -0.6328400     1.8116850    -0.0001020
  H        2.7093930    -2.1785160    -0.0003580
  H        3.6789480     0.0978590     0.0002690
  H        0.2537760    -2.5213680    -0.0000660
  H        2.2194000     2.1097800     0.0002850
  H       -3.6376700    -0.9013790    -0.0001930
  H       -2.5281620    -1.9588410     0.8832840
  H       -2.7737480     1.6710560    -0.0003610
  H       -0.5326520     2.8176750    -0.0001200
  H       -2.5278290    -1.9594320    -0.8825300
units angstrom
no_reorient  #important for SAPT in psi4, default
symmetry c1  #important for SAPT in psi4, default
}

set PROPERTIES_ORIGIN ["COM"]
properties('MP2/aug-cc-pvtz', properties = ['dipole'])
--------------------------------------------------------------------------

    Molecular point group: c1
  Charge       = 0
  Multiplicity = 1
  Basis Set: AUG-CC-PVTZ
    Blend: AUG-CC-PVTZ
  Basis Set: (AUG-CC-PVTZ AUX)
    Blend: AUG-CC-PVTZ-JKFIT

    Orbital Energies [Eh]
    ---------------------

    Doubly Occupied:

       1A    -15.599952     2A    -11.266088     3A    -11.264937
       4A    -11.233278     5A    -11.231532     6A    -11.229644
       7A    -11.223122     8A    -11.222195     9A    -11.221533
      10A    -11.221496    11A     -1.291965    12A     -1.124905
      13A     -1.072295    14A     -0.995191    15A     -0.986322
      16A     -0.930853    17A     -0.840202    18A     -0.803653
      19A     -0.756116    20A     -0.719793    21A     -0.661457
      22A     -0.645736    23A     -0.602454    24A     -0.592830
      25A     -0.592004    26A     -0.569351    27A     -0.551447
      28A     -0.543215    29A     -0.528250    30A     -0.501955
      31A     -0.474445    32A     -0.461347    33A     -0.374454
      34A     -0.298009    35A     -0.277379

  @DF-RHF Final Energy:  -400.63921152330897

   => Energetics <=

    Nuclear Repulsion Energy =            482.8196445036674618
    One-Electron Energy =               -1499.0989017941201382
    Two-Electron Energy =                 615.6400457671437607
    Total Energy =                       -400.6392115233089726
  Basis Set: (AUG-CC-PVTZ AUX)
    Blend: AUG-CC-PVTZ-RI
    Molecular point group: c1

    Geometry (in Angstrom), charge = 0, multiplicity = 1:

       Center              X                  Y                   Z               Mass
    ------------   -----------------  -----------------  -----------------  -----------------
         C           -2.651826515129    -1.338723739991     0.000148406820    12.000000000000
         C           -0.204390515129    -0.411531739991     0.000222406820    12.000000000000
         C           -1.628700515129    -0.247725739991    -0.000030593180    12.000000000000
         C            0.377967484871     0.885980260009    -0.000148593180    12.000000000000
         C           -1.860147515129     1.110305260009    -0.000061593180    12.000000000000
         C            2.040176584871    -1.348923639991     0.000025506820    12.000000000000
         C            2.572000484871    -0.040676739991    -0.000073593180    12.000000000000
         C            0.643018484871    -1.535511739991    -0.000283593180    12.000000000000
         C            1.763626484871     1.089319260009     0.000298406820    12.000000000000
         N           -0.658665515129     1.791140260009    -0.000099593180    14.003074004430
         H            2.683567484871    -2.199060739991    -0.000355593180     1.007825032230
         H            3.653122484871     0.077314260009     0.000271406820     1.007825032230
         H            0.227950484871    -2.541912739991    -0.000063593180     1.007825032230
         H            2.193574484871     2.089235260009     0.000287406820     1.007825032230
         H           -3.663495515129    -0.921923739991    -0.000190593180     1.007825032230
         H           -2.553987515129    -1.979385739991     0.883286406820     1.007825032230
         H           -2.799573515129     1.650511260009    -0.000358593180     1.007825032230
         H           -0.558477515129     2.797130260009    -0.000117593180     1.007825032230
         H           -2.553654515129    -1.979976739991    -0.882527593180     1.007825032230

  Basis Set: AUG-CC-PVTZ
    Blend: AUG-CC-PVTZ
  Basis Set: (AUG-CC-PVTZ AUX)
    Blend: AUG-CC-PVTZ-JKFIT
	 Reference Energy          =    -400.6392115233089726 [Eh]
	 Singles Energy            =      -0.0000000000000000 [Eh]
	 Same-Spin Energy          =      -0.4516724750609726 [Eh]
	 Opposite-Spin Energy      =      -1.4042431132578055 [Eh]
	 Correlation Energy        =      -1.8559155883187781 [Eh]
	 Total Energy              =    -402.4951271116277667 [Eh]

	 ================> DF-SCS-MP2 Energies <==================
	-----------------------------------------------------------
	 SCS Same-Spin Scale       =       0.3333333333333333 [-]
	 SCS Opposite-Spin Scale   =       1.2000000000000000 [-]
	 SCS Same-Spin Energy      =      -0.1505574916869909 [Eh]
	 SCS Opposite-Spin Energy  =      -1.6850917359093665 [Eh]
	 SCS Correlation Energy    =      -1.8356492275963574 [Eh]
	 SCS Total Energy          =    -402.4748607509053500 [Eh]
	-----------------------------------------------------------

  Dipole Moment: [D]
     X:    -0.9685      Y:     1.8049      Z:    -0.0001     Total:     2.0483

*** Psi4 exiting successfully. Buy a developer a beer!
