                               Psi4 1.3.2 release

  ==> Input File <==

--------------------------------------------------------------------------
#psi4
#
memory 32 gb

molecule  {
0 1
  C       -2.6260010    -1.3181790     0.0001460
  C       -0.1785650    -0.3909870     0.0002200
  C       -1.6028750    -0.2271810    -0.0000330
  C        0.4037930     0.9065250    -0.0001510
  C       -1.8343220     1.1308500    -0.0000640
  C        2.0432510    -1.3188980     0.0000320
  C        2.5978260    -0.0201320    -0.0000760
  C        0.6688440    -1.5149670    -0.0002860
  C        1.8002608     1.0127100     0.0002637
  N       -0.6328400     1.8116850    -0.0001020
  H        2.7093930    -2.1785160    -0.0003580
  H        3.6789480     0.0978590     0.0002690
  H        0.2537760    -2.5213680    -0.0000660
  H        2.2194000     2.1097800     0.0002850
  H       -3.6376700    -0.9013790    -0.0001930
  H       -2.5281620    -1.9588410     0.8832840
  H       -2.7737480     1.6710560    -0.0003610
  H       -0.5326520     2.8176750    -0.0001200
  H       -2.5278290    -1.9594320    -0.8825300
units angstrom
no_reorient  #important for SAPT in psi4, default
symmetry c1  #important for SAPT in psi4, default
}

set PROPERTIES_ORIGIN ["COM"]
properties('MP2/aug-cc-pvtz', properties = ['dipole'])
--------------------------------------------------------------------------

    Molecular point group: c1
  Charge       = 0
  Multiplicity = 1
  Basis Set: AUG-CC-PVTZ
    Blend: AUG-CC-PVTZ
  Basis Set: (AUG-CC-PVTZ AUX)
    Blend: AUG-CC-PVTZ-JKFIT

    Orbital Energies [Eh]
    ---------------------

    Doubly Occupied:

       1A    -15.603930     2A    -11.264356     3A    -11.263818
       4A    -11.230740     5A    -11.229259     6A    -11.222513
       7A    -11.221318     8A    -11.220617     9A    -11.219835
      10A    -11.218920    11A     -1.292330    12A     -1.137444
      13A     -1.073774    14A     -0.999094    15A     -0.989502
      16A     -0.932054    17A     -0.836332    18A     -0.808513
      19A     -0.751763    20A     -0.722586    21A     -0.659310
      22A     -0.649767    23A     -0.599780    24A     -0.592919
      25A     -0.580733    26A     -0.574521    27A     -0.552149
      28A     -0.541219    29A     -0.536336    30A     -0.498660
      31A     -0.471040    32A     -0.459251    33A     -0.378189
      34A     -0.296503    35A     -0.283998

  @DF-RHF Final Energy:  -400.62806789965447

   => Energetics <=

    Nuclear Repulsion Energy =            484.5930782736687092
    One-Electron Energy =               -1502.6161411535160823
    Two-Electron Energy =                 617.3949949801930188
    Total Energy =                       -400.6280678996544111
  Basis Set: (AUG-CC-PVTZ AUX)
    Blend: AUG-CC-PVTZ-RI
    Molecular point group: c1

    Geometry (in Angstrom), charge = 0, multiplicity = 1:

       Center              X                  Y                   Z               Mass
    ------------   -----------------  -----------------  -----------------  -----------------
         C           -2.650733177416    -1.330697119769     0.000150549129    12.000000000000
         C           -0.203297177416    -0.403505119769     0.000224549129    12.000000000000
         C           -1.627607177416    -0.239699119769    -0.000028450871    12.000000000000
         C            0.379060822584     0.894006880231    -0.000146450871    12.000000000000
         C           -1.859054177416     1.118331880231    -0.000059450871    12.000000000000
         C            2.018518822584    -1.331416119769     0.000036549129    12.000000000000
         C            2.573093822584    -0.032650119769    -0.000071450871    12.000000000000
         C            0.644111822584    -1.527485119769    -0.000281450871    12.000000000000
         C            1.775528622584     1.000191880231     0.000268249129    12.000000000000
         N           -0.657572177416     1.799166880231    -0.000097450871    14.003074004430
         H            2.684660822584    -2.191034119769    -0.000353450871     1.007825032230
         H            3.654215822584     0.085340880231     0.000273549129     1.007825032230
         H            0.229043822584    -2.533886119769    -0.000061450871     1.007825032230
         H            2.194667822584     2.097261880231     0.000289549129     1.007825032230
         H           -3.662402177416    -0.913897119769    -0.000188450871     1.007825032230
         H           -2.552894177416    -1.971359119769     0.883288549129     1.007825032230
         H           -2.798480177416     1.658537880231    -0.000356450871     1.007825032230
         H           -0.557384177416     2.805156880231    -0.000115450871     1.007825032230
         H           -2.552561177416    -1.971950119769    -0.882525450871     1.007825032230

  Basis Set: AUG-CC-PVTZ
    Blend: AUG-CC-PVTZ
  Basis Set: (AUG-CC-PVTZ AUX)
    Blend: AUG-CC-PVTZ-JKFIT
	 Reference Energy          =    -400.6280678996544680 [Eh]
	 Singles Energy            =      -0.0000000000000000 [Eh]
	 Same-Spin Energy          =      -0.4517338499065562 [Eh]
	 Opposite-Spin Energy      =      -1.4040900051833796 [Eh]
	 Correlation Energy        =      -1.8558238550899357 [Eh]
	 Total Energy              =    -402.4838917547443771 [Eh]

	 ================> DF-SCS-MP2 Energies <==================
	-----------------------------------------------------------
	 SCS Same-Spin Scale       =       0.3333333333333333 [-]
	 SCS Opposite-Spin Scale   =       1.2000000000000000 [-]
	 SCS Same-Spin Energy      =      -0.1505779499688520 [Eh]
	 SCS Opposite-Spin Energy  =      -1.6849080062200554 [Eh]
	 SCS Correlation Energy    =      -1.8354859561889074 [Eh]
	 SCS Total Energy          =    -402.4635538558433723 [Eh]
	-----------------------------------------------------------

  Dipole Moment: [D]
     X:    -0.9514      Y:     1.7576      Z:    -0.0001     Total:     1.9986

*** Psi4 exiting successfully. Buy a developer a beer!
