                               Psi4 1.4a3.dev225

  ==> Input File <==

--------------------------------------------------------------------------
#psi4
#
memory 32 gb

molecule  {
0 1
  C       -2.6260070    -1.3181640     0.0000030
  C       -0.1785920    -0.3910100    -0.0000140
  C       -1.6028860    -0.2271800    -0.0000070
  C        0.4037990     0.9065080    -0.0000120
  C       -1.8343130     1.1308630     0.0000070
  C        2.0432640    -1.3188820     0.0000040
  C        2.5978420    -0.0201300     0.0000040
  C        0.6688530    -1.5149630     0.0000000
  C        1.7894440     1.1098670     0.0000020
  N       -0.6328500     1.8116730     0.0000060
  H        2.7400160    -2.2180398     0.0000145
  H        3.6789570     0.0979150     0.0000120
  H        0.2538510    -2.5213940    -0.0000090
  H        2.2194160     2.1097700    -0.0000210
  H       -3.6376970    -0.9014040    -0.0000240
  H       -2.5280300    -1.9591080     0.8829250
  H       -2.7737400     1.6710680     0.0000050
  H       -0.5326180     2.8176610     0.0000030
  H       -2.5279980    -1.9591520    -0.8828820
units angstrom
no_reorient  #important for SAPT in psi4, default
symmetry c1  #important for SAPT in psi4, default
}

set PROPERTIES_ORIGIN ["COM"]
properties('MP2/aug-cc-pvtz', properties = ['dipole'])
--------------------------------------------------------------------------

    Molecular point group: c1
  Charge       = 0
  Multiplicity = 1
  Basis Set: AUG-CC-PVTZ
    Blend: AUG-CC-PVTZ
  Basis Set: (AUG-CC-PVTZ AUX)
    Blend: AUG-CC-PVTZ-JKFIT

    Orbital Energies [Eh]
    ---------------------

    Doubly Occupied:

       1A    -15.600139     2A    -11.265511     3A    -11.264757
       4A    -11.232254     5A    -11.231207     6A    -11.230027
       7A    -11.226824     8A    -11.223004     9A    -11.222098
      10A    -11.221527    11A     -1.291897    12A     -1.127009
      13A     -1.072341    14A     -0.996654    15A     -0.985371
      16A     -0.931121    17A     -0.838022    18A     -0.802888
      19A     -0.755127    20A     -0.720226    21A     -0.658980
      22A     -0.640353    23A     -0.603736    24A     -0.592150
      25A     -0.592090    26A     -0.569837    27A     -0.551540
      28A     -0.541954    29A     -0.528929    30A     -0.493795
      31A     -0.476029    32A     -0.463440    33A     -0.374824
      34A     -0.298916    35A     -0.277987

  @DF-RHF Final Energy:  -400.63773069430118

   => Energetics <=

    Nuclear Repulsion Energy =            483.0081185966382122
    One-Electron Energy =               -1499.4865686689586255
    Two-Electron Energy =                 615.8407193780192301
    Total Energy =                       -400.6377306943011263
  Basis Set: (AUG-CC-PVTZ AUX)
    Blend: AUG-CC-PVTZ-RI
    Molecular point group: c1

    Geometry (in Angstrom), charge = 0, multiplicity = 1:

       Center              X                  Y                   Z               Mass
    ------------   -----------------  -----------------  -----------------  -----------------
         C           -2.649984696953    -1.339272879466     0.000003368478    12.000000000000
         C           -0.202569696953    -0.412118879466    -0.000013631522    12.000000000000
         C           -1.626863696953    -0.248288879466    -0.000006631522    12.000000000000
         C            0.379821303047     0.885399120534    -0.000011631522    12.000000000000
         C           -1.858290696953     1.109754120534     0.000007368478    12.000000000000
         C            2.019286303047    -1.339990879466     0.000004368478    12.000000000000
         C            2.573864303047    -0.041238879466     0.000004368478    12.000000000000
         C            0.644875303047    -1.536071879466     0.000000368478    12.000000000000
         C            1.765466303047     1.088758120534     0.000002368478    12.000000000000
         N           -0.656827696953     1.790564120534     0.000006368478    14.003074004430
         H            2.716038303047    -2.239148679466     0.000014868478     1.007825032230
         H            3.654979303047     0.076806120534     0.000012368478     1.007825032230
         H            0.229873303047    -2.542502879466    -0.000008631522     1.007825032230
         H            2.195438303047     2.088661120534    -0.000020631522     1.007825032230
         H           -3.661674696953    -0.922512879466    -0.000023631522     1.007825032230
         H           -2.552007696953    -1.980216879466     0.882925368478     1.007825032230
         H           -2.797717696953     1.649959120534     0.000005368478     1.007825032230
         H           -0.556595696953     2.796552120534     0.000003368478     1.007825032230
         H           -2.551975696953    -1.980260879466    -0.882881631522     1.007825032230

  Basis Set: AUG-CC-PVTZ
    Blend: AUG-CC-PVTZ
  Basis Set: (AUG-CC-PVTZ AUX)
    Blend: AUG-CC-PVTZ-JKFIT
	 Reference Energy          =    -400.6377306943011831 [Eh]
	 Singles Energy            =      -0.0000000000000000 [Eh]
	 Same-Spin Energy          =      -0.4517841017019501 [Eh]
	 Opposite-Spin Energy      =      -1.4045586466983231 [Eh]
	 Correlation Energy        =      -1.8563427484002732 [Eh]
	 Total Energy              =    -402.4940734427014490 [Eh]

	 ================> DF-SCS-MP2 Energies <==================
	-----------------------------------------------------------
	 SCS Same-Spin Scale       =       0.3333333333333333 [-]
	 SCS Opposite-Spin Scale   =       1.2000000000000000 [-]
	 SCS Same-Spin Energy      =      -0.1505947005673167 [Eh]
	 SCS Opposite-Spin Energy  =      -1.6854703760379877 [Eh]
	 SCS Correlation Energy    =      -1.8360650766053044 [Eh]
	 SCS Total Energy          =    -402.4737957709064631 [Eh]
	-----------------------------------------------------------

  Dipole Moment: [D]
     X:    -0.9763      Y:     1.8262      Z:    -0.0000     Total:     2.0708

*** Psi4 exiting successfully. Buy a developer a beer!
