                               Psi4 1.4a3.dev225

  ==> Input File <==

--------------------------------------------------------------------------
#psi4
#
memory 32 gb

molecule  {
0 1
  C       -2.6260070    -1.3181640     0.0000030
  C       -0.1785920    -0.3910100    -0.0000140
  C       -1.6028860    -0.2271800    -0.0000070
  C        0.4037990     0.9065080    -0.0000120
  C       -1.8343130     1.1308630     0.0000070
  C        2.0432640    -1.3188820     0.0000040
  C        2.5978420    -0.0201300     0.0000040
  C        0.6688530    -1.5149630     0.0000000
  C        1.7894440     1.1098670     0.0000020
  N       -0.6328500     1.8116730     0.0000060
  H        2.6971396    -2.1627079     0.0000138
  H        3.6789570     0.0979150     0.0000120
  H        0.2538510    -2.5213940    -0.0000090
  H        2.2194160     2.1097700    -0.0000210
  H       -3.6376970    -0.9014040    -0.0000240
  H       -2.5280300    -1.9591080     0.8829250
  H       -2.7737400     1.6710680     0.0000050
  H       -0.5326180     2.8176610     0.0000030
  H       -2.5279980    -1.9591520    -0.8828820
units angstrom
no_reorient  #important for SAPT in psi4, default
symmetry c1  #important for SAPT in psi4, default
}

set PROPERTIES_ORIGIN ["COM"]
properties('MP2/aug-cc-pvtz', properties = ['dipole'])
--------------------------------------------------------------------------

    Molecular point group: c1
  Charge       = 0
  Multiplicity = 1
  Basis Set: AUG-CC-PVTZ
    Blend: AUG-CC-PVTZ
  Basis Set: (AUG-CC-PVTZ AUX)
    Blend: AUG-CC-PVTZ-JKFIT

    Orbital Energies [Eh]
    ---------------------

    Doubly Occupied:

       1A    -15.599873     2A    -11.265195     3A    -11.264470
       4A    -11.231710     5A    -11.230453     6A    -11.229253
       7A    -11.222625     8A    -11.221708     9A    -11.221286
      10A    -11.218673    11A     -1.291608    12A     -1.127025
      13A     -1.072046    14A     -0.997682    15A     -0.985844
      16A     -0.930879    17A     -0.839483    18A     -0.804416
      19A     -0.756118    20A     -0.719998    21A     -0.660636
      22A     -0.646213    23A     -0.603430    24A     -0.592923
      25A     -0.591868    26A     -0.569666    27A     -0.551321
      28A     -0.542490    29A     -0.530010    30A     -0.498983
      31A     -0.475650    32A     -0.462918    33A     -0.374435
      34A     -0.298547    35A     -0.277631

  @DF-RHF Final Energy:  -400.64032250259902

   => Energetics <=

    Nuclear Repulsion Energy =            483.3620646788011754
    One-Electron Energy =               -1500.1906436928152289
    Two-Electron Energy =                 616.1882565114150339
    Total Energy =                       -400.6403225025990196
  Basis Set: (AUG-CC-PVTZ AUX)
    Blend: AUG-CC-PVTZ-RI
    Molecular point group: c1

    Geometry (in Angstrom), charge = 0, multiplicity = 1:

       Center              X                  Y                   Z               Mass
    ------------   -----------------  -----------------  -----------------  -----------------
         C           -2.649655020020    -1.339698326824     0.000003373860    12.000000000000
         C           -0.202240020020    -0.412544326824    -0.000013626140    12.000000000000
         C           -1.626534020020    -0.248714326824    -0.000006626140    12.000000000000
         C            0.380150979980     0.884973673176    -0.000011626140    12.000000000000
         C           -1.857961020020     1.109328673176     0.000007373860    12.000000000000
         C            2.019615979980    -1.340416326824     0.000004373860    12.000000000000
         C            2.574193979980    -0.041664326824     0.000004373860    12.000000000000
         C            0.645204979980    -1.536497326824     0.000000373860    12.000000000000
         C            1.765795979980     1.088332673176     0.000002373860    12.000000000000
         N           -0.656498020020     1.790138673176     0.000006373860    14.003074004430
         H            2.673491579980    -2.184242226824     0.000014173860     1.007825032230
         H            3.655308979980     0.076380673176     0.000012373860     1.007825032230
         H            0.230202979980    -2.542928326824    -0.000008626140     1.007825032230
         H            2.195767979980     2.088235673176    -0.000020626140     1.007825032230
         H           -3.661345020020    -0.922938326824    -0.000023626140     1.007825032230
         H           -2.551678020020    -1.980642326824     0.882925373860     1.007825032230
         H           -2.797388020020     1.649533673176     0.000005373860     1.007825032230
         H           -0.556266020020     2.796126673176     0.000003373860     1.007825032230
         H           -2.551646020020    -1.980686326824    -0.882881626140     1.007825032230

  Basis Set: AUG-CC-PVTZ
    Blend: AUG-CC-PVTZ
  Basis Set: (AUG-CC-PVTZ AUX)
    Blend: AUG-CC-PVTZ-JKFIT
	 Reference Energy          =    -400.6403225025990196 [Eh]
	 Singles Energy            =      -0.0000000000000000 [Eh]
	 Same-Spin Energy          =      -0.4516555918338433 [Eh]
	 Opposite-Spin Energy      =      -1.4039819776517324 [Eh]
	 Correlation Energy        =      -1.8556375694855758 [Eh]
	 Total Energy              =    -402.4959600720845856 [Eh]

	 ================> DF-SCS-MP2 Energies <==================
	-----------------------------------------------------------
	 SCS Same-Spin Scale       =       0.3333333333333333 [-]
	 SCS Opposite-Spin Scale   =       1.2000000000000000 [-]
	 SCS Same-Spin Energy      =      -0.1505518639446144 [Eh]
	 SCS Opposite-Spin Energy  =      -1.6847783731820789 [Eh]
	 SCS Correlation Energy    =      -1.8353302371266933 [Eh]
	 SCS Total Energy          =    -402.4756527397257173 [Eh]
	-----------------------------------------------------------

  Dipole Moment: [D]
     X:    -0.9511      Y:     1.7974      Z:    -0.0000     Total:     2.0335

*** Psi4 exiting successfully. Buy a developer a beer!
