                               Psi4 1.3.2 release

  ==> Input File <==

--------------------------------------------------------------------------
#psi4
#
memory 32 gb

molecule  {
0 1
  C       -2.6260010    -1.3181790     0.0001460
  C       -0.1785650    -0.3909870     0.0002200
  C       -1.6028750    -0.2271810    -0.0000330
  C        0.4004553     0.9307391    -0.0001396
  C       -1.8343220     1.1308500    -0.0000640
  C        2.0432510    -1.3188980     0.0000320
  C        2.5978260    -0.0201320    -0.0000760
  C        0.6688440    -1.5149670    -0.0002860
  C        1.7894520     1.1098640     0.0002960
  N       -0.6328400     1.8116850    -0.0001020
  H        2.7093930    -2.1785160    -0.0003580
  H        3.6789480     0.0978590     0.0002690
  H        0.2537760    -2.5213680    -0.0000660
  H        2.2194000     2.1097800     0.0002850
  H       -3.6376700    -0.9013790    -0.0001930
  H       -2.5281620    -1.9588410     0.8832840
  H       -2.7737480     1.6710560    -0.0003610
  H       -0.5326520     2.8176750    -0.0001200
  H       -2.5278290    -1.9594320    -0.8825300
units angstrom
no_reorient  #important for SAPT in psi4, default
symmetry c1  #important for SAPT in psi4, default
}

set PROPERTIES_ORIGIN ["COM"]
properties('MP2/aug-cc-pvtz', properties = ['dipole'])
--------------------------------------------------------------------------

    Molecular point group: c1
  Charge       = 0
  Multiplicity = 1
  Basis Set: AUG-CC-PVTZ
    Blend: AUG-CC-PVTZ
  Basis Set: (AUG-CC-PVTZ AUX)
    Blend: AUG-CC-PVTZ-JKFIT

    Orbital Energies [Eh]
    ---------------------

    Doubly Occupied:

       1A    -15.602142     2A    -11.266209     3A    -11.264644
       4A    -11.231135     5A    -11.230280     6A    -11.229261
       7A    -11.223825     8A    -11.222835     9A    -11.221876
      10A    -11.220237    11A     -1.296734    12A     -1.125156
      13A     -1.073140    14A     -0.997122    15A     -0.983906
      16A     -0.932659    17A     -0.839990    18A     -0.804360
      19A     -0.754944    20A     -0.721307    21A     -0.662992
      22A     -0.644600    23A     -0.600568    24A     -0.593471
      25A     -0.592128    26A     -0.571115    27A     -0.552771
      28A     -0.542666    29A     -0.530514    30A     -0.497828
      31A     -0.472005    32A     -0.462468    33A     -0.375981
      34A     -0.295786    35A     -0.278091

  @DF-RHF Final Energy:  -400.63916052444642

   => Energetics <=

    Nuclear Repulsion Energy =            483.0896797081887826
    One-Electron Energy =               -1499.6281889984577447
    Two-Electron Energy =                 615.8993487658225376
    Total Energy =                       -400.6391605244464245
  Basis Set: (AUG-CC-PVTZ AUX)
    Blend: AUG-CC-PVTZ-RI
    Molecular point group: c1

    Geometry (in Angstrom), charge = 0, multiplicity = 1:

       Center              X                  Y                   Z               Mass
    ------------   -----------------  -----------------  -----------------  -----------------
         C           -2.649438041474    -1.341808574090     0.000146548321    12.000000000000
         C           -0.202002041474    -0.414616574090     0.000220548321    12.000000000000
         C           -1.626312041474    -0.250810574090    -0.000032451679    12.000000000000
         C            0.377018258526     0.907109525910    -0.000139051679    12.000000000000
         C           -1.857759041474     1.107220425910    -0.000063451679    12.000000000000
         C            2.019813958526    -1.342527574090     0.000032548321    12.000000000000
         C            2.574388958526    -0.043761574090    -0.000075451679    12.000000000000
         C            0.645406958526    -1.538596574090    -0.000285451679    12.000000000000
         C            1.766014958526     1.086234425910     0.000296548321    12.000000000000
         N           -0.656277041474     1.788055425910    -0.000101451679    14.003074004430
         H            2.685955958526    -2.202145574090    -0.000357451679     1.007825032230
         H            3.655510958526     0.074229425910     0.000269548321     1.007825032230
         H            0.230338958526    -2.544997574090    -0.000065451679     1.007825032230
         H            2.195962958526     2.086150425910     0.000285548321     1.007825032230
         H           -3.661107041474    -0.925008574090    -0.000192451679     1.007825032230
         H           -2.551599041474    -1.982470574090     0.883284548321     1.007825032230
         H           -2.797185041474     1.647426425910    -0.000360451679     1.007825032230
         H           -0.556089041474     2.794045425910    -0.000119451679     1.007825032230
         H           -2.551266041474    -1.983061574090    -0.882529451679     1.007825032230

  Basis Set: AUG-CC-PVTZ
    Blend: AUG-CC-PVTZ
  Basis Set: (AUG-CC-PVTZ AUX)
    Blend: AUG-CC-PVTZ-JKFIT
	 Reference Energy          =    -400.6391605244464245 [Eh]
	 Singles Energy            =      -0.0000000000000000 [Eh]
	 Same-Spin Energy          =      -0.4519566648811506 [Eh]
	 Opposite-Spin Energy      =      -1.4043028761935989 [Eh]
	 Correlation Energy        =      -1.8562595410747496 [Eh]
	 Total Energy              =    -402.4954200655211594 [Eh]

	 ================> DF-SCS-MP2 Energies <==================
	-----------------------------------------------------------
	 SCS Same-Spin Scale       =       0.3333333333333333 [-]
	 SCS Opposite-Spin Scale   =       1.2000000000000000 [-]
	 SCS Same-Spin Energy      =      -0.1506522216270502 [Eh]
	 SCS Opposite-Spin Energy  =      -1.6851634514323186 [Eh]
	 SCS Correlation Energy    =      -1.8358156730593689 [Eh]
	 SCS Total Energy          =    -402.4749761975057822 [Eh]
	-----------------------------------------------------------

  Dipole Moment: [D]
     X:    -1.0315      Y:     1.8419      Z:    -0.0001     Total:     2.1110

*** Psi4 exiting successfully. Buy a developer a beer!
