                               Psi4 1.3.2 release

  ==> Input File <==

--------------------------------------------------------------------------
#psi4
#
memory 32 gb

molecule  {
0 1
  C       -2.6260010    -1.3181790     0.0001460
  C       -0.1785650    -0.3909870     0.0002200
  C       -1.6028750    -0.2271810    -0.0000330
  C        0.4037930     0.9065250    -0.0001510
  C       -1.8343220     1.1308500    -0.0000640
  C        2.0432510    -1.3188980     0.0000320
  C        2.5978260    -0.0201320    -0.0000760
  C        0.6688440    -1.5149670    -0.0002860
  C        1.7894520     1.1098640     0.0002960
  N       -0.6328400     1.8116850    -0.0001020
  H        2.6481394    -2.0994717    -0.0003221
  H        3.6789480     0.0978590     0.0002690
  H        0.2537760    -2.5213680    -0.0000660
  H        2.2194000     2.1097800     0.0002850
  H       -3.6376700    -0.9013790    -0.0001930
  H       -2.5281620    -1.9588410     0.8832840
  H       -2.7737480     1.6710560    -0.0003610
  H       -0.5326520     2.8176750    -0.0001200
  H       -2.5278290    -1.9594320    -0.8825300
units angstrom
no_reorient  #important for SAPT in psi4, default
symmetry c1  #important for SAPT in psi4, default
}

set PROPERTIES_ORIGIN ["COM"]
properties('MP2/aug-cc-pvtz', properties = ['dipole'])
--------------------------------------------------------------------------

    Molecular point group: c1
  Charge       = 0
  Multiplicity = 1
  Basis Set: AUG-CC-PVTZ
    Blend: AUG-CC-PVTZ
  Basis Set: (AUG-CC-PVTZ AUX)
    Blend: AUG-CC-PVTZ-JKFIT

    Orbital Energies [Eh]
    ---------------------

    Doubly Occupied:

       1A    -15.599648     2A    -11.264942     3A    -11.264207
       4A    -11.231198     5A    -11.229840     6A    -11.228590
       7A    -11.222305     8A    -11.221396     9A    -11.221003
      10A    -11.208881    11A     -1.291355    12A     -1.127403
      13A     -1.071806    14A     -0.999895    15A     -0.986413
      16A     -0.930675    17A     -0.842251    18A     -0.806685
      19A     -0.757589    20A     -0.719871    21A     -0.665875
      22A     -0.650856    23A     -0.603184    24A     -0.593704
      25A     -0.591619    26A     -0.569539    27A     -0.551133
      28A     -0.543448    29A     -0.531212    30A     -0.503345
      31A     -0.475272    32A     -0.462459    33A     -0.374079
      34A     -0.298276    35A     -0.277308

  @DF-RHF Final Energy:  -400.63436694240403

   => Energetics <=

    Nuclear Repulsion Energy =            483.8055472304925502
    One-Electron Energy =               -1501.0453015194775617
    Two-Electron Energy =                 616.6053873465810966
    Total Energy =                       -400.6343669424039717
  Basis Set: (AUG-CC-PVTZ AUX)
    Blend: AUG-CC-PVTZ-RI
    Molecular point group: c1

    Geometry (in Angstrom), charge = 0, multiplicity = 1:

       Center              X                  Y                   Z               Mass
    ------------   -----------------  -----------------  -----------------  -----------------
         C           -2.649272634191    -1.340199504545     0.000147315974    12.000000000000
         C           -0.201836634191    -0.413007504545     0.000221315974    12.000000000000
         C           -1.626146634191    -0.249201504545    -0.000031684026    12.000000000000
         C            0.380521365809     0.884504495455    -0.000149684026    12.000000000000
         C           -1.857593634191     1.108829495455    -0.000062684026    12.000000000000
         C            2.019979365809    -1.340918504545     0.000033315974    12.000000000000
         C            2.574554365809    -0.042152504545    -0.000074684026    12.000000000000
         C            0.645572365809    -1.536987504545    -0.000284684026    12.000000000000
         C            1.766180365809     1.087843495455     0.000297315974    12.000000000000
         N           -0.656111634191     1.789664495455    -0.000100684026    14.003074004430
         H            2.624867765809    -2.121492204545    -0.000320784026     1.007825032230
         H            3.655676365809     0.075838495455     0.000270315974     1.007825032230
         H            0.230504365809    -2.543388504545    -0.000064684026     1.007825032230
         H            2.196128365809     2.087759495455     0.000286315974     1.007825032230
         H           -3.660941634191    -0.923399504545    -0.000191684026     1.007825032230
         H           -2.551433634191    -1.980861504545     0.883285315974     1.007825032230
         H           -2.797019634191     1.649035495455    -0.000359684026     1.007825032230
         H           -0.555923634191     2.795654495455    -0.000118684026     1.007825032230
         H           -2.551100634191    -1.981452504545    -0.882528684026     1.007825032230

  Basis Set: AUG-CC-PVTZ
    Blend: AUG-CC-PVTZ
  Basis Set: (AUG-CC-PVTZ AUX)
    Blend: AUG-CC-PVTZ-JKFIT
	 Reference Energy          =    -400.6343669424040286 [Eh]
	 Singles Energy            =      -0.0000000000000000 [Eh]
	 Same-Spin Energy          =      -0.4515536520382726 [Eh]
	 Opposite-Spin Energy      =      -1.4035953953076512 [Eh]
	 Correlation Energy        =      -1.8551490473459238 [Eh]
	 Total Energy              =    -402.4895159897499752 [Eh]

	 ================> DF-SCS-MP2 Energies <==================
	-----------------------------------------------------------
	 SCS Same-Spin Scale       =       0.3333333333333333 [-]
	 SCS Opposite-Spin Scale   =       1.2000000000000000 [-]
	 SCS Same-Spin Energy      =      -0.1505178840127575 [Eh]
	 SCS Opposite-Spin Energy  =      -1.6843144743691814 [Eh]
	 SCS Correlation Energy    =      -1.8348323583819388 [Eh]
	 SCS Total Energy          =    -402.4691993007859878 [Eh]
	-----------------------------------------------------------

  Dipole Moment: [D]
     X:    -0.9305      Y:     1.7732      Z:    -0.0001     Total:     2.0025

*** Psi4 exiting successfully. Buy a developer a beer!
