                               Psi4 1.3.2 release

  ==> Input File <==

--------------------------------------------------------------------------
#psi4
#
memory 32 gb

molecule  {
0 1
  C       -2.6260010    -1.3181790     0.0001460
  C       -0.1785650    -0.3909870     0.0002200
  C       -1.6028750    -0.2271810    -0.0000330
  C        0.4075528     0.8823729    -0.0001623
  C       -1.8343220     1.1308500    -0.0000640
  C        2.0432510    -1.3188980     0.0000320
  C        2.5978260    -0.0201320    -0.0000760
  C        0.6688440    -1.5149670    -0.0002860
  C        1.7894520     1.1098640     0.0002960
  N       -0.6328400     1.8116850    -0.0001020
  H        2.7093930    -2.1785160    -0.0003580
  H        3.6789480     0.0978590     0.0002690
  H        0.2537760    -2.5213680    -0.0000660
  H        2.2194000     2.1097800     0.0002850
  H       -3.6376700    -0.9013790    -0.0001930
  H       -2.5281620    -1.9588410     0.8832840
  H       -2.7737480     1.6710560    -0.0003610
  H       -0.5326520     2.8176750    -0.0001200
  H       -2.5278290    -1.9594320    -0.8825300
units angstrom
no_reorient  #important for SAPT in psi4, default
symmetry c1  #important for SAPT in psi4, default
}

set PROPERTIES_ORIGIN ["COM"]
properties('MP2/aug-cc-pvtz', properties = ['dipole'])
--------------------------------------------------------------------------

    Molecular point group: c1
  Charge       = 0
  Multiplicity = 1
  Basis Set: AUG-CC-PVTZ
    Blend: AUG-CC-PVTZ
  Basis Set: (AUG-CC-PVTZ AUX)
    Blend: AUG-CC-PVTZ-JKFIT

    Orbital Energies [Eh]
    ---------------------

    Doubly Occupied:

       1A    -15.597689     2A    -11.264451     3A    -11.264398
       4A    -11.232649     5A    -11.231048     6A    -11.229668
       7A    -11.221868     8A    -11.221689     9A    -11.221094
      10A    -11.220441    11A     -1.286826    12A     -1.128908
      13A     -1.071185    14A     -0.997522    15A     -0.987587
      16A     -0.929252    17A     -0.838166    18A     -0.803474
      19A     -0.756869    20A     -0.718575    21A     -0.657000
      22A     -0.644688    23A     -0.606756    24A     -0.592972
      25A     -0.590585    26A     -0.568137    27A     -0.550037
      28A     -0.541958    29A     -0.528765    30A     -0.497336
      31A     -0.479170    32A     -0.463628    33A     -0.373165
      34A     -0.301569    35A     -0.277330

  @DF-RHF Final Energy:  -400.63982348921121

   => Energetics <=

    Nuclear Repulsion Energy =            483.4284511777256057
    One-Electron Energy =               -1500.3436380741270568
    Two-Electron Energy =                 616.2753634071901843
    Total Energy =                       -400.6398234892112669
  Basis Set: (AUG-CC-PVTZ AUX)
    Blend: AUG-CC-PVTZ-RI
    Molecular point group: c1

    Geometry (in Angstrom), charge = 0, multiplicity = 1:

       Center              X                  Y                   Z               Mass
    ------------   -----------------  -----------------  -----------------  -----------------
         C           -2.650087829573    -1.337380566879     0.000148626544    12.000000000000
         C           -0.202651829573    -0.410188566879     0.000222626544    12.000000000000
         C           -1.626961829573    -0.246382566879    -0.000030373456    12.000000000000
         C            0.383465970427     0.863171333121    -0.000159673456    12.000000000000
         C           -1.858408829573     1.111648433121    -0.000061373456    12.000000000000
         C            2.019164170427    -1.338099566879     0.000034626544    12.000000000000
         C            2.573739170427    -0.039333566879    -0.000073373456    12.000000000000
         C            0.644757170427    -1.534168566879    -0.000283373456    12.000000000000
         C            1.765365170427     1.090662433121     0.000298626544    12.000000000000
         N           -0.656926829573     1.792483433121    -0.000099373456    14.003074004430
         H            2.685306170427    -2.197717566879    -0.000355373456     1.007825032230
         H            3.654861170427     0.078657433121     0.000271626544     1.007825032230
         H            0.229689170427    -2.540569566879    -0.000063373456     1.007825032230
         H            2.195313170427     2.090578433121     0.000287626544     1.007825032230
         H           -3.661756829573    -0.920580566879    -0.000190373456     1.007825032230
         H           -2.552248829573    -1.978042566879     0.883286626544     1.007825032230
         H           -2.797834829573     1.651854433121    -0.000358373456     1.007825032230
         H           -0.556738829573     2.798473433121    -0.000117373456     1.007825032230
         H           -2.551915829573    -1.978633566879    -0.882527373456     1.007825032230

  Basis Set: AUG-CC-PVTZ
    Blend: AUG-CC-PVTZ
  Basis Set: (AUG-CC-PVTZ AUX)
    Blend: AUG-CC-PVTZ-JKFIT
	 Reference Energy          =    -400.6398234892112100 [Eh]
	 Singles Energy            =      -0.0000000000000000 [Eh]
	 Same-Spin Energy          =      -0.4514529820192353 [Eh]
	 Opposite-Spin Energy      =      -1.4040213518183462 [Eh]
	 Correlation Energy        =      -1.8554743338375814 [Eh]
	 Total Energy              =    -402.4952978230488156 [Eh]

	 ================> DF-SCS-MP2 Energies <==================
	-----------------------------------------------------------
	 SCS Same-Spin Scale       =       0.3333333333333333 [-]
	 SCS Opposite-Spin Scale   =       1.2000000000000000 [-]
	 SCS Same-Spin Energy      =      -0.1504843273397451 [Eh]
	 SCS Opposite-Spin Energy  =      -1.6848256221820155 [Eh]
	 SCS Correlation Energy    =      -1.8353099495217606 [Eh]
	 SCS Total Energy          =    -402.4751334387329962 [Eh]
	-----------------------------------------------------------

  Dipole Moment: [D]
     X:    -0.8834      Y:     1.7657      Z:    -0.0001     Total:     1.9744

*** Psi4 exiting successfully. Buy a developer a beer!
