                               Psi4 1.3.2 release

  ==> Input File <==

--------------------------------------------------------------------------
#psi4
#
memory 32 gb

molecule  {
0 1
  C       -2.6260010    -1.3181790     0.0001460
  C       -0.1785650    -0.3909870     0.0002200
  C       -1.6028750    -0.2271810    -0.0000330
  C        0.4487208     0.8854106    -0.0001783
  C       -1.8343220     1.1308500    -0.0000640
  C        2.0432510    -1.3188980     0.0000320
  C        2.5978260    -0.0201320    -0.0000760
  C        0.6688440    -1.5149670    -0.0002860
  C        1.7894520     1.1098640     0.0002960
  N       -0.6328400     1.8116850    -0.0001020
  H        2.7093930    -2.1785160    -0.0003580
  H        3.6789480     0.0978590     0.0002690
  H        0.2537760    -2.5213680    -0.0000660
  H        2.2194000     2.1097800     0.0002850
  H       -3.6376700    -0.9013790    -0.0001930
  H       -2.5281620    -1.9588410     0.8832840
  H       -2.7737480     1.6710560    -0.0003610
  H       -0.5326520     2.8176750    -0.0001200
  H       -2.5278290    -1.9594320    -0.8825300
units angstrom
no_reorient  #important for SAPT in psi4, default
symmetry c1  #important for SAPT in psi4, default
}

set PROPERTIES_ORIGIN ["COM"]
properties('MP2/aug-cc-pvtz', properties = ['dipole'])
--------------------------------------------------------------------------

    Molecular point group: c1
  Charge       = 0
  Multiplicity = 1
  Basis Set: AUG-CC-PVTZ
    Blend: AUG-CC-PVTZ
  Basis Set: (AUG-CC-PVTZ AUX)
    Blend: AUG-CC-PVTZ-JKFIT

    Orbital Energies [Eh]
    ---------------------

    Doubly Occupied:

       1A    -15.595762     2A    -11.267114     3A    -11.264624
       4A    -11.230184     5A    -11.229962     6A    -11.228577
       7A    -11.224963     8A    -11.222497     9A    -11.221632
      10A    -11.220741    11A     -1.278169    12A     -1.131305
      13A     -1.071575    14A     -1.002248    15A     -0.985574
      16A     -0.928070    17A     -0.836832    18A     -0.805862
      19A     -0.756517    20A     -0.715630    21A     -0.654772
      22A     -0.645146    23A     -0.610527    24A     -0.590879
      25A     -0.588043    26A     -0.568716    27A     -0.548628
      28A     -0.541982    29A     -0.528512    30A     -0.496965
      31A     -0.478773    32A     -0.464592    33A     -0.375562
      34A     -0.304336    35A     -0.274580

  @DF-RHF Final Energy:  -400.63642242697722

   => Energetics <=

    Nuclear Repulsion Energy =            483.1756333632939118
    One-Electron Energy =               -1499.8444060911297129
    Two-Electron Energy =                 616.0323503008586385
    Total Energy =                       -400.6364224269772194
  Basis Set: (AUG-CC-PVTZ AUX)
    Blend: AUG-CC-PVTZ-RI
    Molecular point group: c1

    Geometry (in Angstrom), charge = 0, multiplicity = 1:

       Center              X                  Y                   Z               Mass
    ------------   -----------------  -----------------  -----------------  -----------------
         C           -2.653856829430    -1.337658673439     0.000150091371    12.000000000000
         C           -0.206420829430    -0.410466673439     0.000224091371    12.000000000000
         C           -1.630730829430    -0.246660673439    -0.000028908629    12.000000000000
         C            0.420864970570     0.865930926561    -0.000174208629    12.000000000000
         C           -1.862177829430     1.111370326561    -0.000059908629    12.000000000000
         C            2.015395170570    -1.338377673439     0.000036091371    12.000000000000
         C            2.569970170570    -0.039611673439    -0.000071908629    12.000000000000
         C            0.640988170570    -1.534446673439    -0.000281908629    12.000000000000
         C            1.761596170570     1.090384326561     0.000300091371    12.000000000000
         N           -0.660695829430     1.792205326561    -0.000097908629    14.003074004430
         H            2.681537170570    -2.197995673439    -0.000353908629     1.007825032230
         H            3.651092170570     0.078379326561     0.000273091371     1.007825032230
         H            0.225920170570    -2.540847673439    -0.000061908629     1.007825032230
         H            2.191544170570     2.090300326561     0.000289091371     1.007825032230
         H           -3.665525829430    -0.920858673439    -0.000188908629     1.007825032230
         H           -2.556017829430    -1.978320673439     0.883288091371     1.007825032230
         H           -2.801603829430     1.651576326561    -0.000356908629     1.007825032230
         H           -0.560507829430     2.798195326561    -0.000115908629     1.007825032230
         H           -2.555684829430    -1.978911673439    -0.882525908629     1.007825032230

  Basis Set: AUG-CC-PVTZ
    Blend: AUG-CC-PVTZ
  Basis Set: (AUG-CC-PVTZ AUX)
    Blend: AUG-CC-PVTZ-JKFIT
	 Reference Energy          =    -400.6364224269772194 [Eh]
	 Singles Energy            =      -0.0000000000000000 [Eh]
	 Same-Spin Energy          =      -0.4517372864629567 [Eh]
	 Opposite-Spin Energy      =      -1.4043437537494003 [Eh]
	 Correlation Energy        =      -1.8560810402123571 [Eh]
	 Total Energy              =    -402.4925034671895787 [Eh]

	 ================> DF-SCS-MP2 Energies <==================
	-----------------------------------------------------------
	 SCS Same-Spin Scale       =       0.3333333333333333 [-]
	 SCS Opposite-Spin Scale   =       1.2000000000000000 [-]
	 SCS Same-Spin Energy      =      -0.1505790954876522 [Eh]
	 SCS Opposite-Spin Energy  =      -1.6852125044992803 [Eh]
	 SCS Correlation Energy    =      -1.8357915999869325 [Eh]
	 SCS Total Energy          =    -402.4722140269641386 [Eh]
	-----------------------------------------------------------

  Dipole Moment: [D]
     X:    -0.8649      Y:     1.7148      Z:    -0.0001     Total:     1.9205

*** Psi4 exiting successfully. Buy a developer a beer!
