                               Psi4 1.3.2 release

  ==> Input File <==

--------------------------------------------------------------------------
#psi4
#
memory 32 gb

molecule  {
0 1
  O        2.7492680    -0.4443920    -0.3256220
  C        0.4478060     0.2535600     0.1422380
  C        1.9227370     0.5353370     0.3039990
  C       -0.4705550     1.2975200    -0.0129620
  C       -0.0463110    -1.0523240     0.4249258
  C       -1.8363280     1.0297010    -0.1264230
  C       -1.3815920    -1.3361730     0.0562860
  C       -2.2945940    -0.2887340    -0.0921740
  H        2.1508500     1.5463010    -0.0660670
  H        2.2078120     0.5034310     1.3602160
  H       -0.1156540     2.3265980    -0.0519790
  H        0.6988110    -1.8764940     0.2888760
  H       -2.5409450     1.8488700    -0.2497340
  H       -1.7340040    -2.3648090     0.0820140
  H       -3.3571700    -0.4996250    -0.1857170
  H        2.4798710    -0.4753560    -1.2601120
units angstrom
no_reorient  #important for SAPT in psi4, default
symmetry c1  #important for SAPT in psi4, default
}

set PROPERTIES_ORIGIN ["COM"]
properties('MP2/aug-cc-pvtz', properties = ['dipole'])
--------------------------------------------------------------------------

    Molecular point group: c1
  Charge       = 0
  Multiplicity = 1
  Basis Set: AUG-CC-PVTZ
    Blend: AUG-CC-PVTZ
  Basis Set: (AUG-CC-PVTZ AUX)
    Blend: AUG-CC-PVTZ-JKFIT

    Orbital Energies [Eh]
    ---------------------

    Doubly Occupied:

       1A    -20.563890     2A    -11.285749     3A    -11.249135
       4A    -11.245039     5A    -11.244284     6A    -11.240953
       7A    -11.240025     8A    -11.238530     9A     -1.361524
      10A     -1.153614    11A     -1.039358    12A     -1.014569
      13A     -0.920536    14A     -0.828553    15A     -0.801904
      16A     -0.708867    17A     -0.680592    18A     -0.645510
      19A     -0.620782    20A     -0.605846    21A     -0.591330
      22A     -0.583226    23A     -0.533121    24A     -0.505389
      25A     -0.491341    26A     -0.482160    27A     -0.452479
      28A     -0.340305    29A     -0.332750

  @DF-RHF Final Energy:  -344.69163243137211

   => Energetics <=

    Nuclear Repulsion Energy =            339.6574771741524614
    One-Electron Energy =               -1140.6954918344026737
    Two-Electron Energy =                 456.3463822288780420
    Total Energy =                       -344.6916324313721134
  Basis Set: (AUG-CC-PVTZ AUX)
    Blend: AUG-CC-PVTZ-RI
    Molecular point group: c1

    Geometry (in Angstrom), charge = 0, multiplicity = 1:

       Center              X                  Y                   Z               Mass
    ------------   -----------------  -----------------  -----------------  -----------------
         O            2.750598890198    -0.436761273915    -0.353933153802    15.994914619570
         C            0.449136890198     0.261190726085     0.113926846198    12.000000000000
         C            1.924067890198     0.542967726085     0.275687846198    12.000000000000
         C           -0.469224109802     1.305150726085    -0.041273153802    12.000000000000
         C           -0.044980109802    -1.044693273915     0.396614646198    12.000000000000
         C           -1.834997109802     1.037331726085    -0.154734153802    12.000000000000
         C           -1.380261109802    -1.328542273915     0.027974846198    12.000000000000
         C           -2.293263109802    -0.281103273915    -0.120485153802    12.000000000000
         H            2.152180890198     1.553931726085    -0.094378153802     1.007825032230
         H            2.209142890198     0.511061726085     1.331904846198     1.007825032230
         H           -0.114323109802     2.334228726085    -0.080290153802     1.007825032230
         H            0.700141890198    -1.868863273915     0.260564846198     1.007825032230
         H           -2.539614109802     1.856500726085    -0.278045153802     1.007825032230
         H           -1.732673109802    -2.357178273915     0.053702846198     1.007825032230
         H           -3.355839109802    -0.491994273915    -0.214028153802     1.007825032230
         H            2.481201890198    -0.467725273915    -1.288423153802     1.007825032230

  Basis Set: AUG-CC-PVTZ
    Blend: AUG-CC-PVTZ
  Basis Set: (AUG-CC-PVTZ AUX)
    Blend: AUG-CC-PVTZ-JKFIT
	 Reference Energy          =    -344.6916324313721134 [Eh]
	 Singles Energy            =      -0.0000000000000000 [Eh]
	 Same-Spin Energy          =      -0.3687555995642742 [Eh]
	 Opposite-Spin Energy      =      -1.1654692757118064 [Eh]
	 Correlation Energy        =      -1.5342248752760805 [Eh]
	 Total Energy              =    -346.2258573066482086 [Eh]

	 ================> DF-SCS-MP2 Energies <==================
	-----------------------------------------------------------
	 SCS Same-Spin Scale       =       0.3333333333333333 [-]
	 SCS Opposite-Spin Scale   =       1.2000000000000000 [-]
	 SCS Same-Spin Energy      =      -0.1229185331880914 [Eh]
	 SCS Opposite-Spin Energy  =      -1.3985631308541675 [Eh]
	 SCS Correlation Energy    =      -1.5214816640422588 [Eh]
	 SCS Total Energy          =    -346.2131140954143689 [Eh]
	-----------------------------------------------------------

  Dipole Moment: [D]
     X:    -1.2794      Y:     0.8662      Z:    -0.7655     Total:     1.7243

*** Psi4 exiting successfully. Buy a developer a beer!
