                               Psi4 1.3.2 release

  ==> Input File <==

--------------------------------------------------------------------------
#psi4
#
memory 32 gb

molecule  {
0 1
  O        2.7492680    -0.4443920    -0.3256220
  C        0.4478060     0.2535600     0.1422380
  C        1.9227370     0.5353370     0.3039990
  C       -0.4705550     1.2975200    -0.0129620
  C       -0.0293802    -1.0610348     0.2761391
  C       -1.8363280     1.0297010    -0.1264230
  C       -1.3815920    -1.3361730     0.0562860
  C       -2.2945940    -0.2887340    -0.0921740
  H        2.1508500     1.5463010    -0.0660670
  H        2.2078120     0.5034310     1.3602160
  H       -0.1156540     2.3265980    -0.0519790
  H        0.6988110    -1.8764940     0.2888760
  H       -2.5409450     1.8488700    -0.2497340
  H       -1.7340040    -2.3648090     0.0820140
  H       -3.3571700    -0.4996250    -0.1857170
  H        2.4798710    -0.4753560    -1.2601120
units angstrom
no_reorient  #important for SAPT in psi4, default
symmetry c1  #important for SAPT in psi4, default
}

set PROPERTIES_ORIGIN ["COM"]
properties('MP2/aug-cc-pvtz', properties = ['dipole'])
--------------------------------------------------------------------------

    Molecular point group: c1
  Charge       = 0
  Multiplicity = 1
  Basis Set: AUG-CC-PVTZ
    Blend: AUG-CC-PVTZ
  Basis Set: (AUG-CC-PVTZ AUX)
    Blend: AUG-CC-PVTZ-JKFIT

    Orbital Energies [Eh]
    ---------------------

    Doubly Occupied:

       1A    -20.563812     2A    -11.285677     3A    -11.245062
       4A    -11.241791     5A    -11.240919     6A    -11.239895
       7A    -11.238447     8A    -11.236577     9A     -1.361553
      10A     -1.155014    11A     -1.039517    12A     -1.016454
      13A     -0.921102    14A     -0.830038    15A     -0.804129
      16A     -0.710436    17A     -0.681807    18A     -0.646696
      19A     -0.621977    20A     -0.605605    21A     -0.594312
      22A     -0.585612    23A     -0.534492    24A     -0.506399
      25A     -0.494569    26A     -0.484484    27A     -0.454037
      28A     -0.340397    29A     -0.333152

  @DF-RHF Final Energy:  -344.70860246778511

   => Energetics <=

    Nuclear Repulsion Energy =            340.3631636103999654
    One-Electron Energy =               -1142.1156087297756585
    Two-Electron Energy =                 457.0438426515905803
    Total Energy =                       -344.7086024677851128
  Basis Set: (AUG-CC-PVTZ AUX)
    Blend: AUG-CC-PVTZ-RI
    Molecular point group: c1

    Geometry (in Angstrom), charge = 0, multiplicity = 1:

       Center              X                  Y                   Z               Mass
    ------------   -----------------  -----------------  -----------------  -----------------
         O            2.748718691489    -0.435793922407    -0.337410097520    15.994914619570
         C            0.447256691489     0.262158077593     0.130449902480    12.000000000000
         C            1.922187691489     0.543935077593     0.292210902480    12.000000000000
         C           -0.471104308511     1.306118077593    -0.024750097520    12.000000000000
         C           -0.029929508511    -1.052436722407     0.264351002480    12.000000000000
         C           -1.836877308511     1.038299077593    -0.138211097520    12.000000000000
         C           -1.382141308511    -1.327574922407     0.044497902480    12.000000000000
         C           -2.295143308511    -0.280135922407    -0.103962097520    12.000000000000
         H            2.150300691489     1.554899077593    -0.077855097520     1.007825032230
         H            2.207262691489     0.512029077593     1.348427902480     1.007825032230
         H           -0.116203308511     2.335196077593    -0.063767097520     1.007825032230
         H            0.698261691489    -1.867895922407     0.277087902480     1.007825032230
         H           -2.541494308511     1.857468077593    -0.261522097520     1.007825032230
         H           -1.734553308511    -2.356210922407     0.070225902480     1.007825032230
         H           -3.357719308511    -0.491026922407    -0.197505097520     1.007825032230
         H            2.479321691489    -0.466757922407    -1.271900097520     1.007825032230

  Basis Set: AUG-CC-PVTZ
    Blend: AUG-CC-PVTZ
  Basis Set: (AUG-CC-PVTZ AUX)
    Blend: AUG-CC-PVTZ-JKFIT
	 Reference Energy          =    -344.7086024677851128 [Eh]
	 Singles Energy            =      -0.0000000000000000 [Eh]
	 Same-Spin Energy          =      -0.3679781202599279 [Eh]
	 Opposite-Spin Energy      =      -1.1630238351936728 [Eh]
	 Correlation Energy        =      -1.5310019554536007 [Eh]
	 Total Energy              =    -346.2396044232386885 [Eh]

	 ================> DF-SCS-MP2 Energies <==================
	-----------------------------------------------------------
	 SCS Same-Spin Scale       =       0.3333333333333333 [-]
	 SCS Opposite-Spin Scale   =       1.2000000000000000 [-]
	 SCS Same-Spin Energy      =      -0.1226593734199760 [Eh]
	 SCS Opposite-Spin Energy  =      -1.3956286022324074 [Eh]
	 SCS Correlation Energy    =      -1.5182879756523833 [Eh]
	 SCS Total Energy          =    -346.2268904434374690 [Eh]
	-----------------------------------------------------------

  Dipole Moment: [D]
     X:    -1.2032      Y:     0.7893      Z:    -0.6668     Total:     1.5860

*** Psi4 exiting successfully. Buy a developer a beer!
