                               Psi4 1.3.2 release

  ==> Input File <==

--------------------------------------------------------------------------
#psi4
#
memory 32 gb

molecule  {
0 1
  O        2.7492680    -0.4443920    -0.3256220
  C        0.4478060     0.2535600     0.1422380
  C        1.9227370     0.5353370     0.3039990
  C       -0.4705550     1.2975200    -0.0129620
  C       -0.0237366    -1.0639384     0.2265436
  C       -1.8363280     1.0297010    -0.1264230
  C       -1.3815920    -1.3361730     0.0562860
  C       -2.2945940    -0.2887340    -0.0921740
  H        2.1508500     1.5463010    -0.0660670
  H        2.2078120     0.5034310     1.3602160
  H       -0.1156540     2.3265980    -0.0519790
  H        0.6988110    -1.8764940     0.2888760
  H       -2.5409450     1.8488700    -0.2497340
  H       -1.7340040    -2.3648090     0.0820140
  H       -3.3571700    -0.4996250    -0.1857170
  H        2.4798710    -0.4753560    -1.2601120
units angstrom
no_reorient  #important for SAPT in psi4, default
symmetry c1  #important for SAPT in psi4, default
}

set PROPERTIES_ORIGIN ["COM"]
properties('MP2/aug-cc-pvtz', properties = ['dipole'])
--------------------------------------------------------------------------

    Molecular point group: c1
  Charge       = 0
  Multiplicity = 1
  Basis Set: AUG-CC-PVTZ
    Blend: AUG-CC-PVTZ
  Basis Set: (AUG-CC-PVTZ AUX)
    Blend: AUG-CC-PVTZ-JKFIT

    Orbital Energies [Eh]
    ---------------------

    Doubly Occupied:

       1A    -20.563797     2A    -11.285715     3A    -11.244537
       4A    -11.241483     5A    -11.240411     6A    -11.239802
       7A    -11.238360     8A    -11.235895     9A     -1.361575
      10A     -1.155202    11A     -1.039548    12A     -1.016679
      13A     -0.921245    14A     -0.830307    15A     -0.804488
      16A     -0.710747    17A     -0.681920    18A     -0.646924
      19A     -0.622319    20A     -0.605790    21A     -0.594537
      22A     -0.585888    23A     -0.534530    24A     -0.506560
      25A     -0.495685    26A     -0.484249    27A     -0.454479
      28A     -0.340376    29A     -0.333147

  @DF-RHF Final Energy:  -344.71101990168432

   => Energetics <=

    Nuclear Repulsion Energy =            340.4896830476330365
    One-Electron Energy =               -1142.3690128039822866
    Two-Electron Energy =                 457.1683098546649830
    Total Energy =                       -344.7110199016843239
  Basis Set: (AUG-CC-PVTZ AUX)
    Blend: AUG-CC-PVTZ-RI
    Molecular point group: c1

    Geometry (in Angstrom), charge = 0, multiplicity = 1:

       Center              X                  Y                   Z               Mass
    ------------   -----------------  -----------------  -----------------  -----------------
         O            2.748091958586    -0.435471471904    -0.331902419496    15.994914619570
         C            0.446629958586     0.262480528096     0.135957580504    12.000000000000
         C            1.921560958586     0.544257528096     0.297718580504    12.000000000000
         C           -0.471731041414     1.306440528096    -0.019242419496    12.000000000000
         C           -0.024912641414    -1.055017871904     0.220263180504    12.000000000000
         C           -1.837504041414     1.038621528096    -0.132703419496    12.000000000000
         C           -1.382768041414    -1.327252471904     0.050005580504    12.000000000000
         C           -2.295770041414    -0.279813471904    -0.098454419496    12.000000000000
         H            2.149673958586     1.555221528096    -0.072347419496     1.007825032230
         H            2.206635958586     0.512351528096     1.353935580504     1.007825032230
         H           -0.116830041414     2.335518528096    -0.058259419496     1.007825032230
         H            0.697634958586    -1.867573471904     0.282595580504     1.007825032230
         H           -2.542121041414     1.857790528096    -0.256014419496     1.007825032230
         H           -1.735180041414    -2.355888471904     0.075733580504     1.007825032230
         H           -3.358346041414    -0.490704471904    -0.191997419496     1.007825032230
         H            2.478694958586    -0.466435471904    -1.266392419496     1.007825032230

  Basis Set: AUG-CC-PVTZ
    Blend: AUG-CC-PVTZ
  Basis Set: (AUG-CC-PVTZ AUX)
    Blend: AUG-CC-PVTZ-JKFIT
	 Reference Energy          =    -344.7110199016843239 [Eh]
	 Singles Energy            =      -0.0000000000000000 [Eh]
	 Same-Spin Energy          =      -0.3678631486081573 [Eh]
	 Opposite-Spin Energy      =      -1.1626843600670160 [Eh]
	 Correlation Energy        =      -1.5305475086751734 [Eh]
	 Total Energy              =    -346.2415674103594938 [Eh]

	 ================> DF-SCS-MP2 Energies <==================
	-----------------------------------------------------------
	 SCS Same-Spin Scale       =       0.3333333333333333 [-]
	 SCS Opposite-Spin Scale   =       1.2000000000000000 [-]
	 SCS Same-Spin Energy      =      -0.1226210495360524 [Eh]
	 SCS Opposite-Spin Energy  =      -1.3952212320804191 [Eh]
	 SCS Correlation Energy    =      -1.5178422816164716 [Eh]
	 SCS Total Energy          =    -346.2288621833008051 [Eh]
	-----------------------------------------------------------

  Dipole Moment: [D]
     X:    -1.1901      Y:     0.7785      Z:    -0.6372     Total:     1.5583

*** Psi4 exiting successfully. Buy a developer a beer!
