                               Psi4 1.3.2 release

  ==> Input File <==

--------------------------------------------------------------------------
#psi4
#
memory 32 gb

molecule  {
0 1
  O        2.7492680    -0.4443920    -0.3256220
  C        0.4478060     0.2535600     0.1422380
  C        1.9227370     0.5353370     0.3039990
  C       -0.4705550     1.2975200    -0.0129620
  C       -0.0519546    -1.0494204     0.4745213
  C       -1.8363280     1.0297010    -0.1264230
  C       -1.3815920    -1.3361730     0.0562860
  C       -2.2945940    -0.2887340    -0.0921740
  H        2.1508500     1.5463010    -0.0660670
  H        2.2078120     0.5034310     1.3602160
  H       -0.1156540     2.3265980    -0.0519790
  H        0.6988110    -1.8764940     0.2888760
  H       -2.5409450     1.8488700    -0.2497340
  H       -1.7340040    -2.3648090     0.0820140
  H       -3.3571700    -0.4996250    -0.1857170
  H        2.4798710    -0.4753560    -1.2601120
units angstrom
no_reorient  #important for SAPT in psi4, default
symmetry c1  #important for SAPT in psi4, default
}

set PROPERTIES_ORIGIN ["COM"]
properties('MP2/aug-cc-pvtz', properties = ['dipole'])
--------------------------------------------------------------------------

    Molecular point group: c1
  Charge       = 0
  Multiplicity = 1
  Basis Set: AUG-CC-PVTZ
    Blend: AUG-CC-PVTZ
  Basis Set: (AUG-CC-PVTZ AUX)
    Blend: AUG-CC-PVTZ-JKFIT

    Orbital Energies [Eh]
    ---------------------

    Doubly Occupied:

       1A    -20.563938     2A    -11.285833     3A    -11.251249
       4A    -11.247198     5A    -11.245703     6A    -11.243072
       7A    -11.240030     8A    -11.238514     9A     -1.361536
      10A     -1.152920    11A     -1.039307    12A     -1.013533
      13A     -0.920278    14A     -0.827900    15A     -0.800862
      16A     -0.708310    17A     -0.679968    18A     -0.645039
      19A     -0.620411    20A     -0.606068    21A     -0.589858
      22A     -0.581885    23A     -0.532178    24A     -0.504825
      25A     -0.490892    26A     -0.479732    27A     -0.451843
      28A     -0.340326    29A     -0.332478

  @DF-RHF Final Energy:  -344.68264862533522

   => Energetics <=

    Nuclear Repulsion Energy =            339.3199201214054028
    One-Electron Energy =               -1140.0137636292402021
    Two-Electron Energy =                 456.0111948824995807
    Total Energy =                       -344.6826486253352186
  Basis Set: (AUG-CC-PVTZ AUX)
    Blend: AUG-CC-PVTZ-RI
    Molecular point group: c1

    Geometry (in Angstrom), charge = 0, multiplicity = 1:

       Center              X                  Y                   Z               Mass
    ------------   -----------------  -----------------  -----------------  -----------------
         O            2.751225623101    -0.437083724418    -0.359440831825    15.994914619570
         C            0.449763623101     0.260868275582     0.108419168175    12.000000000000
         C            1.924694623101     0.542645275582     0.270180168175    12.000000000000
         C           -0.468597376899     1.304828275582    -0.046780831825    12.000000000000
         C           -0.049996976899    -1.042112124418     0.440702468175    12.000000000000
         C           -1.834370376899     1.037009275582    -0.160241831825    12.000000000000
         C           -1.379634376899    -1.328864724418     0.022467168175    12.000000000000
         C           -2.292636376899    -0.281425724418    -0.125992831825    12.000000000000
         H            2.152807623101     1.553609275582    -0.099885831825     1.007825032230
         H            2.209769623101     0.510739275582     1.326397168175     1.007825032230
         H           -0.113696376899     2.333906275582    -0.085797831825     1.007825032230
         H            0.700768623101    -1.869185724418     0.255057168175     1.007825032230
         H           -2.538987376899     1.856178275582    -0.283552831825     1.007825032230
         H           -1.732046376899    -2.357500724418     0.048195168175     1.007825032230
         H           -3.355212376899    -0.492316724418    -0.219535831825     1.007825032230
         H            2.481828623101    -0.468047724418    -1.293930831825     1.007825032230

  Basis Set: AUG-CC-PVTZ
    Blend: AUG-CC-PVTZ
  Basis Set: (AUG-CC-PVTZ AUX)
    Blend: AUG-CC-PVTZ-JKFIT
	 Reference Energy          =    -344.6826486253352186 [Eh]
	 Singles Energy            =      -0.0000000000000000 [Eh]
	 Same-Spin Energy          =      -0.3691461557371892 [Eh]
	 Opposite-Spin Energy      =      -1.1667256299468183 [Eh]
	 Correlation Energy        =      -1.5358717856840074 [Eh]
	 Total Energy              =    -346.2185204110191989 [Eh]

	 ================> DF-SCS-MP2 Energies <==================
	-----------------------------------------------------------
	 SCS Same-Spin Scale       =       0.3333333333333333 [-]
	 SCS Opposite-Spin Scale   =       1.2000000000000000 [-]
	 SCS Same-Spin Energy      =      -0.1230487185790630 [Eh]
	 SCS Opposite-Spin Energy  =      -1.4000707559361818 [Eh]
	 SCS Correlation Energy    =      -1.5231194745152448 [Eh]
	 SCS Total Energy          =    -346.2057680998504452 [Eh]
	-----------------------------------------------------------

  Dipole Moment: [D]
     X:    -1.3164      Y:     0.9057      Z:    -0.8020     Total:     1.7878

*** Psi4 exiting successfully. Buy a developer a beer!
