                               Psi4 1.3.2 release

  ==> Input File <==

--------------------------------------------------------------------------
#psi4
#
memory 32 gb

molecule  {
0 1
  O        2.7492680    -0.4443920    -0.3256220
  C        0.4478060     0.2535600     0.1422380
  C        1.9227370     0.5353370     0.3039990
  C       -0.4705550     1.2975200    -0.0129620
  C       -0.0350238    -1.0581312     0.3257347
  C       -1.8363280     1.0297010    -0.1264230
  C       -1.3815920    -1.3361730     0.0562860
  C       -2.2945940    -0.2887340    -0.0921740
  H        2.1508500     1.5463010    -0.0660670
  H        2.2078120     0.5034310     1.3602160
  H       -0.1156540     2.3265980    -0.0519790
  H        0.6988110    -1.8764940     0.2888760
  H       -2.5409450     1.8488700    -0.2497340
  H       -1.7340040    -2.3648090     0.0820140
  H       -3.3571700    -0.4996250    -0.1857170
  H        2.4798710    -0.4753560    -1.2601120
units angstrom
no_reorient  #important for SAPT in psi4, default
symmetry c1  #important for SAPT in psi4, default
}

set PROPERTIES_ORIGIN ["COM"]
properties('MP2/aug-cc-pvtz', properties = ['dipole'])
--------------------------------------------------------------------------

    Molecular point group: c1
  Charge       = 0
  Multiplicity = 1
  Basis Set: AUG-CC-PVTZ
    Blend: AUG-CC-PVTZ
  Basis Set: (AUG-CC-PVTZ AUX)
    Blend: AUG-CC-PVTZ-JKFIT

    Orbital Energies [Eh]
    ---------------------

    Doubly Occupied:

       1A    -20.563830     2A    -11.285670     3A    -11.246014
       4A    -11.242350     5A    -11.241860     6A    -11.239968
       7A    -11.238517     8A    -11.237659     9A     -1.361535
      10A     -1.154679    11A     -1.039472    12A     -1.016029
      13A     -0.920939    14A     -0.829644    15A     -0.803565
      16A     -0.709986    17A     -0.681537    18A     -0.646368
      19A     -0.621594    20A     -0.605568    21A     -0.593659
      22A     -0.585087    23A     -0.534255    24A     -0.506159
      25A     -0.493337    26A     -0.484359    27A     -0.453561
      28A     -0.340377    29A     -0.333086

  @DF-RHF Final Energy:  -344.70458356652364

   => Energetics <=

    Nuclear Repulsion Energy =            340.1812411458436145
    One-Electron Energy =               -1141.7503226107878618
    Two-Electron Energy =                 456.8644978984206091
    Total Energy =                       -344.7045835665236382
  Basis Set: (AUG-CC-PVTZ AUX)
    Blend: AUG-CC-PVTZ-RI
    Molecular point group: c1

    Geometry (in Angstrom), charge = 0, multiplicity = 1:

       Center              X                  Y                   Z               Mass
    ------------   -----------------  -----------------  -----------------  -----------------
         O            2.749345424392    -0.436116372910    -0.342917786649    15.994914619570
         C            0.447883424392     0.261835627090     0.124942213351    12.000000000000
         C            1.922814424392     0.543612627090     0.286703213351    12.000000000000
         C           -0.470477575608     1.305795627090    -0.030257786649    12.000000000000
         C           -0.034946375608    -1.049855572910     0.308438913351    12.000000000000
         C           -1.836250575608     1.037976627090    -0.143718786649    12.000000000000
         C           -1.381514575608    -1.327897372910     0.038990213351    12.000000000000
         C           -2.294516575608    -0.280458372910    -0.109469786649    12.000000000000
         H            2.150927424392     1.554576627090    -0.083362786649     1.007825032230
         H            2.207889424392     0.511706627090     1.342920213351     1.007825032230
         H           -0.115576575608     2.334873627090    -0.069274786649     1.007825032230
         H            0.698888424392    -1.868218372910     0.271580213351     1.007825032230
         H           -2.540867575608     1.857145627090    -0.267029786649     1.007825032230
         H           -1.733926575608    -2.356533372910     0.064718213351     1.007825032230
         H           -3.357092575608    -0.491349372910    -0.203012786649     1.007825032230
         H            2.479948424392    -0.467080372910    -1.277407786649     1.007825032230

  Basis Set: AUG-CC-PVTZ
    Blend: AUG-CC-PVTZ
  Basis Set: (AUG-CC-PVTZ AUX)
    Blend: AUG-CC-PVTZ-JKFIT
	 Reference Energy          =    -344.7045835665236382 [Eh]
	 Singles Energy            =      -0.0000000000000000 [Eh]
	 Same-Spin Energy          =      -0.3681669533715857 [Eh]
	 Opposite-Spin Energy      =      -1.1636069804162066 [Eh]
	 Correlation Energy        =      -1.5317739337877923 [Eh]
	 Total Energy              =    -346.2363575003114420 [Eh]

	 ================> DF-SCS-MP2 Energies <==================
	-----------------------------------------------------------
	 SCS Same-Spin Scale       =       0.3333333333333333 [-]
	 SCS Opposite-Spin Scale   =       1.2000000000000000 [-]
	 SCS Same-Spin Energy      =      -0.1227223177905286 [Eh]
	 SCS Opposite-Spin Energy  =      -1.3963283764994479 [Eh]
	 SCS Correlation Energy    =      -1.5190506942899764 [Eh]
	 SCS Total Energy          =    -346.2236342608136397 [Eh]
	-----------------------------------------------------------

  Dipole Moment: [D]
     X:    -1.2226      Y:     0.8077      Z:    -0.6979     Total:     1.6230

*** Psi4 exiting successfully. Buy a developer a beer!
