                               Psi4 1.3.2 release

  ==> Input File <==

--------------------------------------------------------------------------
#psi4
#
memory 32 gb

molecule  {
0 1
  O        2.7492680    -0.4443920    -0.3256220
  C        0.4478060     0.2535600     0.1422380
  C        1.9227370     0.5353370     0.3039990
  C       -0.4705550     1.2975200    -0.0129620
  C       -0.0406674    -1.0552276     0.3753302
  C       -1.8363280     1.0297010    -0.1264230
  C       -1.3815920    -1.3361730     0.0562860
  C       -2.2945940    -0.2887340    -0.0921740
  H        2.1508500     1.5463010    -0.0660670
  H        2.2078120     0.5034310     1.3602160
  H       -0.1156540     2.3265980    -0.0519790
  H        0.6988110    -1.8764940     0.2888760
  H       -2.5409450     1.8488700    -0.2497340
  H       -1.7340040    -2.3648090     0.0820140
  H       -3.3571700    -0.4996250    -0.1857170
  H        2.4798710    -0.4753560    -1.2601120
units angstrom
no_reorient  #important for SAPT in psi4, default
symmetry c1  #important for SAPT in psi4, default
}

set PROPERTIES_ORIGIN ["COM"]
properties('MP2/aug-cc-pvtz', properties = ['dipole'])
--------------------------------------------------------------------------

    Molecular point group: c1
  Charge       = 0
  Multiplicity = 1
  Basis Set: AUG-CC-PVTZ
    Blend: AUG-CC-PVTZ
  Basis Set: (AUG-CC-PVTZ AUX)
    Blend: AUG-CC-PVTZ-JKFIT

    Orbital Energies [Eh]
    ---------------------

    Doubly Occupied:

       1A    -20.563855     2A    -11.285694     3A    -11.247380
       4A    -11.243289     5A    -11.243129     6A    -11.240011
       7A    -11.239147     8A    -11.238522     9A     -1.361525
      10A     -1.154207    11A     -1.039416    12A     -1.015401
      13A     -0.920753    14A     -0.829142    15A     -0.802815
      16A     -0.709444    17A     -0.681125    18A     -0.645964
      19A     -0.621187    20A     -0.605664    21A     -0.592633
      22A     -0.584295    23A     -0.533805    24A     -0.505827
      25A     -0.492184    26A     -0.483667    27A     -0.453045
      28A     -0.340336    29A     -0.332952

  @DF-RHF Final Energy:  -344.69893634939950

   => Energetics <=

    Nuclear Repulsion Energy =            339.9453688660491935
    One-Electron Energy =               -1141.2757794462420406
    Two-Electron Energy =                 456.6314742307933443
    Total Energy =                       -344.6989363493995029
  Basis Set: (AUG-CC-PVTZ AUX)
    Blend: AUG-CC-PVTZ-RI
    Molecular point group: c1

    Geometry (in Angstrom), charge = 0, multiplicity = 1:

       Center              X                  Y                   Z               Mass
    ------------   -----------------  -----------------  -----------------  -----------------
         O            2.749972157295    -0.436438823413    -0.348425464673    15.994914619570
         C            0.448510157295     0.261513176587     0.119434535327    12.000000000000
         C            1.923441157295     0.543290176587     0.281195535327    12.000000000000
         C           -0.469850842705     1.305473176587    -0.035765464673    12.000000000000
         C           -0.039963242705    -1.047274423413     0.352526735327    12.000000000000
         C           -1.835623842705     1.037654176587    -0.149226464673    12.000000000000
         C           -1.380887842705    -1.328219823413     0.033482535327    12.000000000000
         C           -2.293889842705    -0.280780823413    -0.114977464673    12.000000000000
         H            2.151554157295     1.554254176587    -0.088870464673     1.007825032230
         H            2.208516157295     0.511384176587     1.337412535327     1.007825032230
         H           -0.114949842705     2.334551176587    -0.074782464673     1.007825032230
         H            0.699515157295    -1.868540823413     0.266072535327     1.007825032230
         H           -2.540240842705     1.856823176587    -0.272537464673     1.007825032230
         H           -1.733299842705    -2.356855823413     0.059210535327     1.007825032230
         H           -3.356465842705    -0.491671823413    -0.208520464673     1.007825032230
         H            2.480575157295    -0.467402823413    -1.282915464673     1.007825032230

  Basis Set: AUG-CC-PVTZ
    Blend: AUG-CC-PVTZ
  Basis Set: (AUG-CC-PVTZ AUX)
    Blend: AUG-CC-PVTZ-JKFIT
	 Reference Energy          =    -344.6989363493995029 [Eh]
	 Singles Energy            =      -0.0000000000000000 [Eh]
	 Same-Spin Energy          =      -0.3684273887906730 [Eh]
	 Opposite-Spin Energy      =      -1.1644262280731406 [Eh]
	 Correlation Energy        =      -1.5328536168638136 [Eh]
	 Total Energy              =    -346.2317899662633067 [Eh]

	 ================> DF-SCS-MP2 Energies <==================
	-----------------------------------------------------------
	 SCS Same-Spin Scale       =       0.3333333333333333 [-]
	 SCS Opposite-Spin Scale   =       1.2000000000000000 [-]
	 SCS Same-Spin Energy      =      -0.1228091295968910 [Eh]
	 SCS Opposite-Spin Energy  =      -1.3973114736877685 [Eh]
	 SCS Correlation Energy    =      -1.5201206032846595 [Eh]
	 SCS Total Energy          =    -346.2190569526841841 [Eh]
	-----------------------------------------------------------

  Dipole Moment: [D]
     X:    -1.2480      Y:     0.8334      Z:    -0.7308     Total:     1.6692

*** Psi4 exiting successfully. Buy a developer a beer!
