                               Psi4 1.4a3.dev225

  ==> Input File <==

--------------------------------------------------------------------------
#psi4
#
memory 32 gb

molecule  {
1 1
  N       -1.4684160    -0.7256290     0.0168660
  C        0.7789870     0.0252000    -0.3750600
  C       -0.0143940    -1.1774380     0.1210740
  C       -0.0289190     1.1951300     0.1928770
  C       -1.4778980     0.8076670    -0.0707360
  C        2.2387250    -0.0120120     0.0592990
  H        0.7264100     0.0548870    -1.4716460
  H        0.1145000    -2.0977020    -0.4513780
  H        0.1860930    -1.3741010     1.1771840
  H        0.2151160     2.1494100    -0.2804030
  H        0.1583560     1.2945460     1.2678570
  H       -2.0155250    -1.0560110     0.8205780
  H       -1.9143950    -1.1326260    -0.8134590
  H       -2.2036780     1.1930490     0.6461700
  H       -1.7986400     1.0658470    -1.0809590
  H        2.7502970    -0.8896260    -0.3442510
  H        2.7625990     0.8753680    -0.3028200
  H        2.3260919    -0.0370147     1.2500491
units angstrom
no_reorient  #important for SAPT in psi4, default
symmetry c1  #important for SAPT in psi4, default
}

set PROPERTIES_ORIGIN ["COM"]
properties('MP2/aug-cc-pvtz', properties = ['dipole'])
--------------------------------------------------------------------------

    Molecular point group: c1
  Charge       = 1
  Multiplicity = 1
  Basis Set: AUG-CC-PVTZ
    Blend: AUG-CC-PVTZ
  Basis Set: (AUG-CC-PVTZ AUX)
    Blend: AUG-CC-PVTZ-JKFIT

    Orbital Energies [Eh]
    ---------------------

    Doubly Occupied:

       1A    -15.865668     2A    -11.463892     3A    -11.460064
       4A    -11.404164     5A    -11.396757     6A    -11.371167
       7A     -1.492781     8A     -1.264726     9A     -1.193811
      10A     -1.094369    11A     -1.023216    12A     -0.973572
      13A     -0.933804    14A     -0.891320    15A     -0.827681
      16A     -0.791469    17A     -0.753667    18A     -0.739604
      19A     -0.707203    20A     -0.703460    21A     -0.673370
      22A     -0.655832    23A     -0.634497    24A     -0.626029

  @DF-RHF Final Energy:  -250.65044950756467

   => Energetics <=

    Nuclear Repulsion Energy =            265.4999335993933869
    One-Electron Energy =                -854.4165211871888914
    Two-Electron Energy =                 338.2661380802307463
    Total Energy =                       -250.6504495075647014
  Basis Set: (AUG-CC-PVTZ AUX)
    Blend: AUG-CC-PVTZ-RI
    Molecular point group: c1

    Geometry (in Angstrom), charge = 1, multiplicity = 1:

       Center              X                  Y                   Z               Mass
    ------------   -----------------  -----------------  -----------------  -----------------
         N           -1.453469226906    -0.725024029502     0.019353795030    14.003074004430
         C            0.793933773094     0.025804970498    -0.372572204970    12.000000000000
         C            0.000552773094    -1.176833029502     0.123561795030    12.000000000000
         C           -0.013972226906     1.195734970498     0.195364795030    12.000000000000
         C           -1.462951226906     0.808271970498    -0.068248204970    12.000000000000
         C            2.253671773094    -0.011407029502     0.061786795030    12.000000000000
         H            0.741356773094     0.055491970498    -1.469158204970     1.007825032230
         H            0.129446773094    -2.097097029502    -0.448890204970     1.007825032230
         H            0.201039773094    -1.373496029502     1.179671795030     1.007825032230
         H            0.230062773094     2.150014970498    -0.277915204970     1.007825032230
         H            0.173302773094     1.295150970498     1.270344795030     1.007825032230
         H           -2.000578226906    -1.055406029502     0.823065795030     1.007825032230
         H           -1.899448226906    -1.132021029502    -0.810971204970     1.007825032230
         H           -2.188731226906     1.193653970498     0.648657795030     1.007825032230
         H           -1.783693226906     1.066451970498    -1.078471204970     1.007825032230
         H            2.765243773094    -0.889021029502    -0.341763204970     1.007825032230
         H            2.777545773094     0.875972970498    -0.300332204970     1.007825032230
         H            2.341038673094    -0.036409729502     1.252536895030     1.007825032230

  Basis Set: AUG-CC-PVTZ
    Blend: AUG-CC-PVTZ
  Basis Set: (AUG-CC-PVTZ AUX)
    Blend: AUG-CC-PVTZ-JKFIT
	 Reference Energy          =    -250.6504495075646730 [Eh]
	 Singles Energy            =      -0.0000000000000000 [Eh]
	 Same-Spin Energy          =      -0.2611089767414656 [Eh]
	 Opposite-Spin Energy      =      -0.9381195009471064 [Eh]
	 Correlation Energy        =      -1.1992284776885720 [Eh]
	 Total Energy              =    -251.8496779852532370 [Eh]

	 ================> DF-SCS-MP2 Energies <==================
	-----------------------------------------------------------
	 SCS Same-Spin Scale       =       0.3333333333333333 [-]
	 SCS Opposite-Spin Scale   =       1.2000000000000000 [-]
	 SCS Same-Spin Energy      =      -0.0870363255804885 [Eh]
	 SCS Opposite-Spin Energy  =      -1.1257434011365277 [Eh]
	 SCS Correlation Energy    =      -1.2127797267170162 [Eh]
	 SCS Total Energy          =    -251.8632292342816754 [Eh]
	-----------------------------------------------------------

  Dipole Moment: [D]
     X:    -4.2258      Y:    -1.8644      Z:    -0.0622     Total:     4.6192

*** Psi4 exiting successfully. Buy a developer a beer!
