                               Psi4 1.4a3.dev225

  ==> Input File <==

--------------------------------------------------------------------------
#psi4
#
memory 32 gb

molecule  {
1 1
  N       -1.4684160    -0.7256290     0.0168660
  C        0.7789870     0.0252000    -0.3750600
  C       -0.0143940    -1.1774380     0.1210740
  C       -0.0289190     1.1951300     0.1928770
  C       -1.4778980     0.8076670    -0.0707360
  C        2.2387250    -0.0120120     0.0592990
  H        0.7264100     0.0548870    -1.4716460
  H        0.1145000    -2.0977020    -0.4513780
  H        0.1860930    -1.3741010     1.1771840
  H        0.1927847     2.0620852    -0.2370938
  H        0.1583560     1.2945460     1.2678570
  H       -2.0155250    -1.0560110     0.8205780
  H       -1.9143950    -1.1326260    -0.8134590
  H       -2.2036780     1.1930490     0.6461700
  H       -1.7986400     1.0658470    -1.0809590
  H        2.7502970    -0.8896260    -0.3442510
  H        2.7625990     0.8753680    -0.3028200
  H        2.3187760    -0.0349210     1.1503390
units angstrom
no_reorient  #important for SAPT in psi4, default
symmetry c1  #important for SAPT in psi4, default
}

set PROPERTIES_ORIGIN ["COM"]
properties('MP2/aug-cc-pvtz', properties = ['dipole'])
--------------------------------------------------------------------------

    Molecular point group: c1
  Charge       = 1
  Multiplicity = 1
  Basis Set: AUG-CC-PVTZ
    Blend: AUG-CC-PVTZ
  Basis Set: (AUG-CC-PVTZ AUX)
    Blend: AUG-CC-PVTZ-JKFIT

    Orbital Energies [Eh]
    ---------------------

    Doubly Occupied:

       1A    -15.865345     2A    -11.463460     3A    -11.459627
       4A    -11.402659     5A    -11.385462     6A    -11.359623
       7A     -1.492386     8A     -1.267214     9A     -1.195846
      10A     -1.098907    11A     -1.031347    12A     -0.975436
      13A     -0.938592    14A     -0.893104    15A     -0.829333
      16A     -0.792019    17A     -0.757461    18A     -0.740230
      19A     -0.714564    20A     -0.708818    21A     -0.683825
      22A     -0.654824    23A     -0.639750    24A     -0.629162

  @DF-RHF Final Energy:  -250.65105884402655

   => Energetics <=

    Nuclear Repulsion Energy =            266.3989718186397226
    One-Electron Energy =                -856.1420689355836657
    Two-Electron Energy =                 339.0920382729174207
    Total Energy =                       -250.6510588440265792
  Basis Set: (AUG-CC-PVTZ AUX)
    Blend: AUG-CC-PVTZ-RI
    Molecular point group: c1

    Geometry (in Angstrom), charge = 1, multiplicity = 1:

       Center              X                  Y                   Z               Mass
    ------------   -----------------  -----------------  -----------------  -----------------
         N           -1.453122185787    -0.724026340132     0.020014006835    14.003074004430
         C            0.794280814213     0.026802659868    -0.371911993165    12.000000000000
         C            0.000899814213    -1.175835340132     0.124222006835    12.000000000000
         C           -0.013625185787     1.196732659868     0.196025006835    12.000000000000
         C           -1.462604185787     0.809269659868    -0.067587993165    12.000000000000
         C            2.254018814213    -0.010409340132     0.062447006835    12.000000000000
         H            0.741703814213     0.056489659868    -1.468497993165     1.007825032230
         H            0.129793814213    -2.096099340132    -0.448229993165     1.007825032230
         H            0.201386814213    -1.372498340132     1.180332006835     1.007825032230
         H            0.208078514213     2.063687859868    -0.233945793165     1.007825032230
         H            0.173649814213     1.296148659868     1.271005006835     1.007825032230
         H           -2.000231185787    -1.054408340132     0.823726006835     1.007825032230
         H           -1.899101185787    -1.131023340132    -0.810310993165     1.007825032230
         H           -2.188384185787     1.194651659868     0.649318006835     1.007825032230
         H           -1.783346185787     1.067449659868    -1.077810993165     1.007825032230
         H            2.765590814213    -0.888023340132    -0.341102993165     1.007825032230
         H            2.777892814213     0.876970659868    -0.299671993165     1.007825032230
         H            2.334069814213    -0.033318340132     1.153487006835     1.007825032230

  Basis Set: AUG-CC-PVTZ
    Blend: AUG-CC-PVTZ
  Basis Set: (AUG-CC-PVTZ AUX)
    Blend: AUG-CC-PVTZ-JKFIT
	 Reference Energy          =    -250.6510588440265508 [Eh]
	 Singles Energy            =      -0.0000000000000000 [Eh]
	 Same-Spin Energy          =      -0.2610227654932900 [Eh]
	 Opposite-Spin Energy      =      -0.9368303905915314 [Eh]
	 Correlation Energy        =      -1.1978531560848213 [Eh]
	 Total Energy              =    -251.8489120001113690 [Eh]

	 ================> DF-SCS-MP2 Energies <==================
	-----------------------------------------------------------
	 SCS Same-Spin Scale       =       0.3333333333333333 [-]
	 SCS Opposite-Spin Scale   =       1.2000000000000000 [-]
	 SCS Same-Spin Energy      =      -0.0870075884977633 [Eh]
	 SCS Opposite-Spin Energy  =      -1.1241964687098376 [Eh]
	 SCS Correlation Energy    =      -1.2112040572076008 [Eh]
	 SCS Total Energy          =    -251.8622629012341463 [Eh]
	-----------------------------------------------------------

  Dipole Moment: [D]
     X:    -4.2233      Y:    -1.8644      Z:    -0.0112     Total:     4.6165

*** Psi4 exiting successfully. Buy a developer a beer!
