                               Psi4 1.4a3.dev225

  ==> Input File <==

--------------------------------------------------------------------------
#psi4
#
memory 32 gb

molecule  {
1 1
  N       -1.4684160    -0.7256290     0.0168660
  C        0.7789870     0.0252000    -0.3750600
  C       -0.0143940    -1.1774380     0.1210740
  C       -0.0289190     1.1951300     0.1928770
  C       -1.4496725     0.6764242     0.0152165
  C        2.2387250    -0.0120120     0.0592990
  H        0.7264100     0.0548870    -1.4716460
  H        0.1145000    -2.0977020    -0.4513780
  H        0.1860930    -1.3741010     1.1771840
  H        0.2151160     2.1494100    -0.2804030
  H        0.1583560     1.2945460     1.2678570
  H       -2.0155250    -1.0560110     0.8205780
  H       -1.9143950    -1.1326260    -0.8134590
  H       -2.2036780     1.1930490     0.6461700
  H       -1.7986400     1.0658470    -1.0809590
  H        2.7502970    -0.8896260    -0.3442510
  H        2.7625990     0.8753680    -0.3028200
  H        2.3187760    -0.0349210     1.1503390
units angstrom
no_reorient  #important for SAPT in psi4, default
symmetry c1  #important for SAPT in psi4, default
}

set PROPERTIES_ORIGIN ["COM"]
properties('MP2/aug-cc-pvtz', properties = ['dipole'])
--------------------------------------------------------------------------

    Molecular point group: c1
  Charge       = 1
  Multiplicity = 1
  Basis Set: AUG-CC-PVTZ
    Blend: AUG-CC-PVTZ
  Basis Set: (AUG-CC-PVTZ AUX)
    Blend: AUG-CC-PVTZ-JKFIT

    Orbital Energies [Eh]
    ---------------------

    Doubly Occupied:

       1A    -15.875795     2A    -11.464843     3A    -11.461820
       4A    -11.402963     5A    -11.395402     6A    -11.359760
       7A     -1.529075     8A     -1.269180     9A     -1.193029
      10A     -1.104094    11A     -1.023772    12A     -0.986411
      13A     -0.946665    14A     -0.909521    15A     -0.831651
      16A     -0.781982    17A     -0.772385    18A     -0.734978
      19A     -0.712352    20A     -0.702936    21A     -0.660188
      22A     -0.647393    23A     -0.631773    24A     -0.625047

  @DF-RHF Final Energy:  -250.63264008886142

   => Energetics <=

    Nuclear Repulsion Energy =            267.8481310620374529
    One-Electron Energy =                -858.9155142526728923
    Two-Electron Energy =                 340.4347431017739609
    Total Energy =                       -250.6326400888614216
  Basis Set: (AUG-CC-PVTZ AUX)
    Blend: AUG-CC-PVTZ-RI
    Molecular point group: c1

    Geometry (in Angstrom), charge = 1, multiplicity = 1:

       Center              X                  Y                   Z               Mass
    ------------   -----------------  -----------------  -----------------  -----------------
         N           -1.457317595042    -0.706756215472     0.008541107687    14.003074004430
         C            0.790085404958     0.044072784528    -0.383384892313    12.000000000000
         C           -0.003295595042    -1.158565215472     0.112749107687    12.000000000000
         C           -0.017820595042     1.214002784528     0.184552107687    12.000000000000
         C           -1.438574095042     0.695296984528     0.006891607687    12.000000000000
         C            2.249823404958     0.006860784528     0.050974107687    12.000000000000
         H            0.737508404958     0.073759784528    -1.479970892313     1.007825032230
         H            0.125598404958    -2.078829215472    -0.459702892313     1.007825032230
         H            0.197191404958    -1.355228215472     1.168859107687     1.007825032230
         H            0.226214404958     2.168282784528    -0.288727892313     1.007825032230
         H            0.169454404958     1.313418784528     1.259532107687     1.007825032230
         H           -2.004426595042    -1.037138215472     0.812253107687     1.007825032230
         H           -1.903296595042    -1.113753215472    -0.821783892313     1.007825032230
         H           -2.192579595042     1.211921784528     0.637845107687     1.007825032230
         H           -1.787541595042     1.084719784528    -1.089283892313     1.007825032230
         H            2.761395404958    -0.870753215472    -0.352575892313     1.007825032230
         H            2.773697404958     0.894240784528    -0.311144892313     1.007825032230
         H            2.329874404958    -0.016048215472     1.142014107687     1.007825032230

  Basis Set: AUG-CC-PVTZ
    Blend: AUG-CC-PVTZ
  Basis Set: (AUG-CC-PVTZ AUX)
    Blend: AUG-CC-PVTZ-JKFIT
	 Reference Energy          =    -250.6326400888614216 [Eh]
	 Singles Energy            =      -0.0000000000000000 [Eh]
	 Same-Spin Energy          =      -0.2624733207247401 [Eh]
	 Opposite-Spin Energy      =      -0.9386922952644947 [Eh]
	 Correlation Energy        =      -1.2011656159892348 [Eh]
	 Total Energy              =    -251.8338057048506471 [Eh]

	 ================> DF-SCS-MP2 Energies <==================
	-----------------------------------------------------------
	 SCS Same-Spin Scale       =       0.3333333333333333 [-]
	 SCS Opposite-Spin Scale   =       1.2000000000000000 [-]
	 SCS Same-Spin Energy      =      -0.0874911069082467 [Eh]
	 SCS Opposite-Spin Energy  =      -1.1264307543173937 [Eh]
	 SCS Correlation Energy    =      -1.2139218612256404 [Eh]
	 SCS Total Energy          =    -251.8465619500870503 [Eh]
	-----------------------------------------------------------

  Dipole Moment: [D]
     X:    -4.2230      Y:    -2.0627      Z:     0.0011     Total:     4.6998

*** Psi4 exiting successfully. Buy a developer a beer!
