                               Psi4 1.4a3.dev225

  ==> Input File <==

--------------------------------------------------------------------------
#psi4
#
memory 32 gb

molecule  {
1 1
  N       -1.4684160    -0.7256290     0.0168660
  C        0.7789870     0.0252000    -0.3750600
  C       -0.0143940    -1.1774380     0.1210740
  C       -0.0289190     1.1951300     0.1928770
  C       -1.4778980     0.8076670    -0.0707360
  C        2.2387250    -0.0120120     0.0592990
  H        0.7264100     0.0548870    -1.4716460
  H        0.1145000    -2.0977020    -0.4513780
  H        0.1860930    -1.3741010     1.1771840
  H        0.2151160     2.1494100    -0.2804030
  H        0.1583560     1.2945460     1.2678570
  H       -2.0155250    -1.0560110     0.8205780
  H       -1.9143950    -1.1326260    -0.8134590
  H       -2.2169887     1.2001169     0.6593180
  H       -1.7986400     1.0658470    -1.0809590
  H        2.7502970    -0.8896260    -0.3442510
  H        2.7625990     0.8753680    -0.3028200
  H        2.3187760    -0.0349210     1.1503390
units angstrom
no_reorient  #important for SAPT in psi4, default
symmetry c1  #important for SAPT in psi4, default
}

set PROPERTIES_ORIGIN ["COM"]
properties('MP2/aug-cc-pvtz', properties = ['dipole'])
--------------------------------------------------------------------------

    Molecular point group: c1
  Charge       = 1
  Multiplicity = 1
  Basis Set: AUG-CC-PVTZ
    Blend: AUG-CC-PVTZ
  Basis Set: (AUG-CC-PVTZ AUX)
    Blend: AUG-CC-PVTZ-JKFIT

    Orbital Energies [Eh]
    ---------------------

    Doubly Occupied:

       1A    -15.865678     2A    -11.465903     3A    -11.460071
       4A    -11.403132     5A    -11.396795     6A    -11.359650
       7A     -1.492654     8A     -1.265065     9A     -1.193002
      10A     -1.098997    11A     -1.022575    12A     -0.974750
      13A     -0.935095    14A     -0.891538    15A     -0.827752
      16A     -0.790447    17A     -0.752398    18A     -0.739179
      19A     -0.711872    20A     -0.703733    21A     -0.679070
      22A     -0.654788    23A     -0.638637    24A     -0.629196

  @DF-RHF Final Energy:  -250.65629333137304

   => Energetics <=

    Nuclear Repulsion Energy =            265.7866829709382728
    One-Electron Energy =                -854.9819976828523522
    Two-Electron Energy =                 338.5390213805410440
    Total Energy =                       -250.6562933313730355
  Basis Set: (AUG-CC-PVTZ AUX)
    Blend: AUG-CC-PVTZ-RI
    Molecular point group: c1

    Geometry (in Angstrom), charge = 1, multiplicity = 1:

       Center              X                  Y                   Z               Mass
    ------------   -----------------  -----------------  -----------------  -----------------
         N           -1.453227778191    -0.725131272409     0.020367064681    14.003074004430
         C            0.794175221809     0.025697727591    -0.371558935319    12.000000000000
         C            0.000794221809    -1.176940272409     0.124575064681    12.000000000000
         C           -0.013730778191     1.195627727591     0.196378064681    12.000000000000
         C           -1.462709778191     0.808164727591    -0.067234935319    12.000000000000
         C            2.253913221809    -0.011514272409     0.062800064681    12.000000000000
         H            0.741598221809     0.055384727591    -1.468144935319     1.007825032230
         H            0.129688221809    -2.097204272409    -0.447876935319     1.007825032230
         H            0.201281221809    -1.373603272409     1.180685064681     1.007825032230
         H            0.230304221809     2.149907727591    -0.276901935319     1.007825032230
         H            0.173544221809     1.295043727591     1.271358064681     1.007825032230
         H           -2.000336778191    -1.055513272409     0.824079064681     1.007825032230
         H           -1.899206778191    -1.132128272409    -0.809957935319     1.007825032230
         H           -2.201800478191     1.200614627591     0.662819064681     1.007825032230
         H           -1.783451778191     1.066344727591    -1.077457935319     1.007825032230
         H            2.765485221809    -0.889128272409    -0.340749935319     1.007825032230
         H            2.777787221809     0.875865727591    -0.299318935319     1.007825032230
         H            2.333964221809    -0.034423272409     1.153840064681     1.007825032230

  Basis Set: AUG-CC-PVTZ
    Blend: AUG-CC-PVTZ
  Basis Set: (AUG-CC-PVTZ AUX)
    Blend: AUG-CC-PVTZ-JKFIT
	 Reference Energy          =    -250.6562933313730355 [Eh]
	 Singles Energy            =      -0.0000000000000000 [Eh]
	 Same-Spin Energy          =      -0.2611243959064318 [Eh]
	 Opposite-Spin Energy      =      -0.9375683999859943 [Eh]
	 Correlation Energy        =      -1.1986927958924261 [Eh]
	 Total Energy              =    -251.8549861272654482 [Eh]

	 ================> DF-SCS-MP2 Energies <==================
	-----------------------------------------------------------
	 SCS Same-Spin Scale       =       0.3333333333333333 [-]
	 SCS Opposite-Spin Scale   =       1.2000000000000000 [-]
	 SCS Same-Spin Energy      =      -0.0870414653021439 [Eh]
	 SCS Opposite-Spin Energy  =      -1.1250820799831931 [Eh]
	 SCS Correlation Energy    =      -1.2121235452853369 [Eh]
	 SCS Total Energy          =    -251.8684168766583866 [Eh]
	-----------------------------------------------------------

  Dipole Moment: [D]
     X:    -4.2180      Y:    -1.8670      Z:    -0.0144     Total:     4.6127

*** Psi4 exiting successfully. Buy a developer a beer!
