                               Psi4 1.4a3.dev225

  ==> Input File <==

--------------------------------------------------------------------------
#psi4
#
memory 32 gb

molecule  {
1 1
  N       -1.4684160    -0.7256290     0.0168660
  C        0.7789870     0.0252000    -0.3750600
  C       -0.0143940    -1.1774380     0.1210740
  C       -0.0289190     1.1951300     0.1928770
  C       -1.4778980     0.8076670    -0.0707360
  C        2.2387250    -0.0120120     0.0592990
  H        0.7264100     0.0548870    -1.4716460
  H        0.1145000    -2.0977020    -0.4513780
  H        0.1860930    -1.3741010     1.1771840
  H        0.2151160     2.1494100    -0.2804030
  H        0.1241721     1.2763993     1.0716373
  H       -2.0155250    -1.0560110     0.8205780
  H       -1.9143950    -1.1326260    -0.8134590
  H       -2.2036780     1.1930490     0.6461700
  H       -1.7986400     1.0658470    -1.0809590
  H        2.7502970    -0.8896260    -0.3442510
  H        2.7625990     0.8753680    -0.3028200
  H        2.3187760    -0.0349210     1.1503390
units angstrom
no_reorient  #important for SAPT in psi4, default
symmetry c1  #important for SAPT in psi4, default
}

set PROPERTIES_ORIGIN ["COM"]
properties('MP2/aug-cc-pvtz', properties = ['dipole'])
--------------------------------------------------------------------------

    Molecular point group: c1
  Charge       = 1
  Multiplicity = 1
  Basis Set: AUG-CC-PVTZ
    Blend: AUG-CC-PVTZ
  Basis Set: (AUG-CC-PVTZ AUX)
    Blend: AUG-CC-PVTZ-JKFIT

    Orbital Energies [Eh]
    ---------------------

    Doubly Occupied:

       1A    -15.865416     2A    -11.462757     3A    -11.460072
       4A    -11.401854     5A    -11.373033     6A    -11.359717
       7A     -1.492741     8A     -1.271526     9A     -1.197580
      10A     -1.099483    11A     -1.040938    12A     -0.979788
      13A     -0.938574    14A     -0.892140    15A     -0.837687
      16A     -0.797963    17A     -0.753443    18A     -0.739694
      19A     -0.712050    20A     -0.708488    21A     -0.694095
      22A     -0.655374    23A     -0.641069    24A     -0.629184

  @DF-RHF Final Energy:  -250.62358747929855

   => Energetics <=

    Nuclear Repulsion Energy =            266.9371785459159696
    One-Electron Energy =                -857.1121972121644603
    Two-Electron Energy =                 339.5514311869498556
    Total Energy =                       -250.6235874792985783
  Basis Set: (AUG-CC-PVTZ AUX)
    Blend: AUG-CC-PVTZ-RI
    Molecular point group: c1

    Geometry (in Angstrom), charge = 1, multiplicity = 1:

       Center              X                  Y                   Z               Mass
    ------------   -----------------  -----------------  -----------------  -----------------
         N           -1.452983442852    -0.724836117960     0.022817859387    14.003074004430
         C            0.794419557148     0.025992882040    -0.369108140613    12.000000000000
         C            0.001038557148    -1.176645117960     0.127025859387    12.000000000000
         C           -0.013486442852     1.195922882040     0.198828859387    12.000000000000
         C           -1.462465442852     0.808459882040    -0.064784140613    12.000000000000
         C            2.254157557148    -0.011219117960     0.065250859387    12.000000000000
         H            0.741842557148     0.055679882040    -1.465694140613     1.007825032230
         H            0.129932557148    -2.096909117960    -0.445426140613     1.007825032230
         H            0.201525557148    -1.373308117960     1.183135859387     1.007825032230
         H            0.230548557148     2.150202882040    -0.274451140613     1.007825032230
         H            0.139604657148     1.277192182040     1.077589159387     1.007825032230
         H           -2.000092442852    -1.055218117960     0.826529859387     1.007825032230
         H           -1.898962442852    -1.131833117960    -0.807507140613     1.007825032230
         H           -2.188245442852     1.193841882040     0.652121859387     1.007825032230
         H           -1.783207442852     1.066639882040    -1.075007140613     1.007825032230
         H            2.765729557148    -0.888833117960    -0.338299140613     1.007825032230
         H            2.778031557148     0.876160882040    -0.296868140613     1.007825032230
         H            2.334208557148    -0.034128117960     1.156290859387     1.007825032230

  Basis Set: AUG-CC-PVTZ
    Blend: AUG-CC-PVTZ
  Basis Set: (AUG-CC-PVTZ AUX)
    Blend: AUG-CC-PVTZ-JKFIT
	 Reference Energy          =    -250.6235874792985499 [Eh]
	 Singles Energy            =      -0.0000000000000000 [Eh]
	 Same-Spin Energy          =      -0.2610403716568419 [Eh]
	 Opposite-Spin Energy      =      -0.9366608355255323 [Eh]
	 Correlation Energy        =      -1.1977012071823743 [Eh]
	 Total Energy              =    -251.8212886864809263 [Eh]

	 ================> DF-SCS-MP2 Energies <==================
	-----------------------------------------------------------
	 SCS Same-Spin Scale       =       0.3333333333333333 [-]
	 SCS Opposite-Spin Scale   =       1.2000000000000000 [-]
	 SCS Same-Spin Energy      =      -0.0870134572189473 [Eh]
	 SCS Opposite-Spin Energy  =      -1.1239930026306386 [Eh]
	 SCS Correlation Energy    =      -1.2110064598495860 [Eh]
	 SCS Total Energy          =    -251.8345939391481352 [Eh]
	-----------------------------------------------------------

  Dipole Moment: [D]
     X:    -4.2169      Y:    -1.8686      Z:     0.0232     Total:     4.6125

*** Psi4 exiting successfully. Buy a developer a beer!
