                               Psi4 1.4a3.dev225

  ==> Input File <==

--------------------------------------------------------------------------
#psi4
#
memory 32 gb

molecule  {
1 1
  N       -1.4736271    -0.7467345     0.0014748
  C        0.7789870     0.0252000    -0.3750600
  C       -0.0143940    -1.1774380     0.1210740
  C       -0.0289190     1.1951300     0.1928770
  C       -1.4778980     0.8076670    -0.0707360
  C        2.2387250    -0.0120120     0.0592990
  H        0.7264100     0.0548870    -1.4716460
  H        0.1145000    -2.0977020    -0.4513780
  H        0.1860930    -1.3741010     1.1771840
  H        0.2151160     2.1494100    -0.2804030
  H        0.1583560     1.2945460     1.2678570
  H       -2.0155250    -1.0560110     0.8205780
  H       -1.9143950    -1.1326260    -0.8134590
  H       -2.2036780     1.1930490     0.6461700
  H       -1.7986400     1.0658470    -1.0809590
  H        2.7502970    -0.8896260    -0.3442510
  H        2.7625990     0.8753680    -0.3028200
  H        2.3187760    -0.0349210     1.1503390
units angstrom
no_reorient  #important for SAPT in psi4, default
symmetry c1  #important for SAPT in psi4, default
}

set PROPERTIES_ORIGIN ["COM"]
properties('MP2/aug-cc-pvtz', properties = ['dipole'])
--------------------------------------------------------------------------

    Molecular point group: c1
  Charge       = 1
  Multiplicity = 1
  Basis Set: AUG-CC-PVTZ
    Blend: AUG-CC-PVTZ
  Basis Set: (AUG-CC-PVTZ AUX)
    Blend: AUG-CC-PVTZ-JKFIT

    Orbital Energies [Eh]
    ---------------------

    Doubly Occupied:

       1A    -15.863457     2A    -11.465780     3A    -11.459914
       4A    -11.403298     5A    -11.397301     6A    -11.359745
       7A     -1.490981     8A     -1.266050     9A     -1.192697
      10A     -1.099443    11A     -1.024014    12A     -0.976776
      13A     -0.936993    14A     -0.888939    15A     -0.829722
      16A     -0.791972    17A     -0.750295    18A     -0.739638
      19A     -0.712506    20A     -0.705176    21A     -0.680176
      22A     -0.654868    23A     -0.638757    24A     -0.629676

  @DF-RHF Final Energy:  -250.65666632290134

   => Energetics <=

    Nuclear Repulsion Energy =            265.5934533060683975
    One-Electron Energy =                -854.5838904080105749
    Two-Electron Energy =                 338.3337707790408899
    Total Energy =                       -250.6566663229013443
  Basis Set: (AUG-CC-PVTZ AUX)
    Blend: AUG-CC-PVTZ-RI
    Molecular point group: c1

    Geometry (in Angstrom), charge = 1, multiplicity = 1:

       Center              X                  Y                   Z               Mass
    ------------   -----------------  -----------------  -----------------  -----------------
         N           -1.457747140035    -0.742721374951     0.007633042796    14.003074004430
         C            0.794866959965     0.029213125049    -0.368901757204    12.000000000000
         C            0.001485959965    -1.173424874951     0.127232242796    12.000000000000
         C           -0.013039040035     1.199143125049     0.199035242796    12.000000000000
         C           -1.462018040035     0.811680125049    -0.064577757204    12.000000000000
         C            2.254604959965    -0.007998874951     0.065457242796    12.000000000000
         H            0.742289959965     0.058900125049    -1.465487757204     1.007825032230
         H            0.130379959965    -2.093688874951    -0.445219757204     1.007825032230
         H            0.201972959965    -1.370087874951     1.183342242796     1.007825032230
         H            0.230995959965     2.153423125049    -0.274244757204     1.007825032230
         H            0.174235959965     1.298559125049     1.274015242796     1.007825032230
         H           -1.999645040035    -1.051997874951     0.826736242796     1.007825032230
         H           -1.898515040035    -1.128612874951    -0.807300757204     1.007825032230
         H           -2.187798040035     1.197062125049     0.652328242796     1.007825032230
         H           -1.782760040035     1.069860125049    -1.074800757204     1.007825032230
         H            2.766176959965    -0.885612874951    -0.338092757204     1.007825032230
         H            2.778478959965     0.879381125049    -0.296661757204     1.007825032230
         H            2.334655959965    -0.030907874951     1.156497242796     1.007825032230

  Basis Set: AUG-CC-PVTZ
    Blend: AUG-CC-PVTZ
  Basis Set: (AUG-CC-PVTZ AUX)
    Blend: AUG-CC-PVTZ-JKFIT
	 Reference Energy          =    -250.6566663229013443 [Eh]
	 Singles Energy            =      -0.0000000000000000 [Eh]
	 Same-Spin Energy          =      -0.2608980340749373 [Eh]
	 Opposite-Spin Energy      =      -0.9371667738145208 [Eh]
	 Correlation Energy        =      -1.1980648078894580 [Eh]
	 Total Energy              =    -251.8547311307908103 [Eh]

	 ================> DF-SCS-MP2 Energies <==================
	-----------------------------------------------------------
	 SCS Same-Spin Scale       =       0.3333333333333333 [-]
	 SCS Opposite-Spin Scale   =       1.2000000000000000 [-]
	 SCS Same-Spin Energy      =      -0.0869660113583124 [Eh]
	 SCS Opposite-Spin Energy  =      -1.1246001285774250 [Eh]
	 SCS Correlation Energy    =      -1.2115661399357374 [Eh]
	 SCS Total Energy          =    -251.8682324628370850 [Eh]
	-----------------------------------------------------------

  Dipole Moment: [D]
     X:    -4.2015      Y:    -1.8169      Z:     0.0019     Total:     4.5775

*** Psi4 exiting successfully. Buy a developer a beer!
