                               Psi4 1.4a3.dev225

  ==> Input File <==

--------------------------------------------------------------------------
#psi4
#
memory 32 gb

molecule  {
1 1
  N       -1.4684160    -0.7256290     0.0168660
  C        0.7789870     0.0252000    -0.3750600
  C       -0.0143940    -1.1774380     0.1210740
  C       -0.0289190     1.1951300     0.1928770
  C       -1.4778980     0.8076670    -0.0707360
  C        2.2387250    -0.0120120     0.0592990
  H        0.7264100     0.0548870    -1.4716460
  H        0.1145000    -2.0977020    -0.4513780
  H        0.1860930    -1.3741010     1.1771840
  H        0.2151160     2.1494100    -0.2804030
  H        0.1583560     1.2945460     1.2678570
  H       -2.0155250    -1.0560110     0.8205780
  H       -1.9143950    -1.1326260    -0.8134590
  H       -2.2036780     1.1930490     0.6461700
  H       -1.7986400     1.0658470    -1.0809590
  H        2.7502970    -0.8896260    -0.3442510
  H        2.7625990     0.8753680    -0.3028200
  H        2.3187760    -0.0349210     1.1503390
units angstrom
no_reorient  #important for SAPT in psi4, default
symmetry c1  #important for SAPT in psi4, default
}

set PROPERTIES_ORIGIN ["COM"]
properties('MP2/aug-cc-pvtz', properties = ['dipole'])
--------------------------------------------------------------------------

    Molecular point group: c1
  Charge       = 1
  Multiplicity = 1
  Basis Set: AUG-CC-PVTZ
    Blend: AUG-CC-PVTZ
  Basis Set: (AUG-CC-PVTZ AUX)
    Blend: AUG-CC-PVTZ-JKFIT

    Orbital Energies [Eh]
    ---------------------

    Doubly Occupied:

       1A    -15.865607     2A    -11.463822     3A    -11.460035
       4A    -11.403064     5A    -11.396707     6A    -11.359594
       7A     -1.492703     8A     -1.265032     9A     -1.194021
      10A     -1.098955    11A     -1.023835    12A     -0.974911
      13A     -0.935098    14A     -0.892388    15A     -0.827740
      16A     -0.791636    17A     -0.753718    18A     -0.739606
      19A     -0.711876    20A     -0.703661    21A     -0.679687
      22A     -0.654794    23A     -0.638591    24A     -0.629403

  @DF-RHF Final Energy:  -250.65689640862891

   => Energetics <=

    Nuclear Repulsion Energy =            265.8820833684676472
    One-Electron Energy =                -855.1649931553517945
    Two-Electron Energy =                 338.6260133782552657
    Total Energy =                       -250.6568964086288815
  Basis Set: (AUG-CC-PVTZ AUX)
    Blend: AUG-CC-PVTZ-RI
    Molecular point group: c1

    Geometry (in Angstrom), charge = 1, multiplicity = 1:

       Center              X                  Y                   Z               Mass
    ------------   -----------------  -----------------  -----------------  -----------------
         N           -1.453383589203    -0.725048537718     0.020520971176    14.003074004430
         C            0.794019410797     0.025780462282    -0.371405028824    12.000000000000
         C            0.000638410797    -1.176857537718     0.124728971176    12.000000000000
         C           -0.013886589203     1.195710462282     0.196531971176    12.000000000000
         C           -1.462865589203     0.808247462282    -0.067081028824    12.000000000000
         C            2.253757410797    -0.011431537718     0.062953971176    12.000000000000
         H            0.741442410797     0.055467462282    -1.467991028824     1.007825032230
         H            0.129532410797    -2.097121537718    -0.447723028824     1.007825032230
         H            0.201125410797    -1.373520537718     1.180838971176     1.007825032230
         H            0.230148410797     2.149990462282    -0.276748028824     1.007825032230
         H            0.173388410797     1.295126462282     1.271511971176     1.007825032230
         H           -2.000492589203    -1.055430537718     0.824232971176     1.007825032230
         H           -1.899362589203    -1.132045537718    -0.809804028824     1.007825032230
         H           -2.188645589203     1.193629462282     0.649824971176     1.007825032230
         H           -1.783607589203     1.066427462282    -1.077304028824     1.007825032230
         H            2.765329410797    -0.889045537718    -0.340596028824     1.007825032230
         H            2.777631410797     0.875948462282    -0.299165028824     1.007825032230
         H            2.333808410797    -0.034340537718     1.153993971176     1.007825032230

  Basis Set: AUG-CC-PVTZ
    Blend: AUG-CC-PVTZ
  Basis Set: (AUG-CC-PVTZ AUX)
    Blend: AUG-CC-PVTZ-JKFIT
	 Reference Energy          =    -250.6568964086289100 [Eh]
	 Singles Energy            =      -0.0000000000000000 [Eh]
	 Same-Spin Energy          =      -0.2610964584282424 [Eh]
	 Opposite-Spin Energy      =      -0.9374065695322855 [Eh]
	 Correlation Energy        =      -1.1985030279605278 [Eh]
	 Total Energy              =    -251.8553994365894368 [Eh]

	 ================> DF-SCS-MP2 Energies <==================
	-----------------------------------------------------------
	 SCS Same-Spin Scale       =       0.3333333333333333 [-]
	 SCS Opposite-Spin Scale   =       1.2000000000000000 [-]
	 SCS Same-Spin Energy      =      -0.0870321528094141 [Eh]
	 SCS Opposite-Spin Energy  =      -1.1248878834387426 [Eh]
	 SCS Correlation Energy    =      -1.2119200362481566 [Eh]
	 SCS Total Energy          =    -251.8688164448770692 [Eh]
	-----------------------------------------------------------

  Dipole Moment: [D]
     X:    -4.2207      Y:    -1.8674      Z:    -0.0160     Total:     4.6153

*** Psi4 exiting successfully. Buy a developer a beer!
