                               Psi4 1.4a3.dev225

  ==> Input File <==

--------------------------------------------------------------------------
#psi4
#
memory 32 gb

molecule  {
1 1
  N       -1.4684160    -0.7256290     0.0168660
  C        0.7789870     0.0252000    -0.3750600
  C       -0.0143940    -1.1774380     0.1210740
  C       -0.0289190     1.1951300     0.1928770
  C       -1.4778980     0.8076670    -0.0707360
  C        2.2387250    -0.0120120     0.0592990
  H        0.7264100     0.0548870    -1.4716460
  H        0.1145000    -2.0977020    -0.4513780
  H        0.1860930    -1.3741010     1.1771840
  H        0.2151160     2.1494100    -0.2804030
  H        0.1583560     1.2945460     1.2678570
  H       -2.0155250    -1.0560110     0.8205780
  H       -1.9143950    -1.1326260    -0.8134590
  H       -2.2036780     1.1930490     0.6461700
  H       -1.7986400     1.0658470    -1.0809590
  H        2.7596574    -0.9056840    -0.3516349
  H        2.7625990     0.8753680    -0.3028200
  H        2.3187760    -0.0349210     1.1503390
units angstrom
no_reorient  #important for SAPT in psi4, default
symmetry c1  #important for SAPT in psi4, default
}

set PROPERTIES_ORIGIN ["COM"]
properties('MP2/aug-cc-pvtz', properties = ['dipole'])
--------------------------------------------------------------------------

    Molecular point group: c1
  Charge       = 1
  Multiplicity = 1
  Basis Set: AUG-CC-PVTZ
    Blend: AUG-CC-PVTZ
  Basis Set: (AUG-CC-PVTZ AUX)
    Blend: AUG-CC-PVTZ-JKFIT

    Orbital Energies [Eh]
    ---------------------

    Doubly Occupied:

       1A    -15.865640     2A    -11.463909     3A    -11.460052
       4A    -11.403218     5A    -11.396833     6A    -11.361909
       7A     -1.492744     8A     -1.264999     9A     -1.193978
      10A     -1.097797    11A     -1.023623    12A     -0.974769
      13A     -0.934905    14A     -0.892316    15A     -0.827656
      16A     -0.791604    17A     -0.753638    18A     -0.738600
      19A     -0.710868    20A     -0.703566    21A     -0.679720
      22A     -0.654802    23A     -0.638667    24A     -0.627772

  @DF-RHF Final Energy:  -250.65638279001939

   => Energetics <=

    Nuclear Repulsion Energy =            265.7978997603572111
    One-Electron Energy =                -855.0013950310996051
    Two-Electron Energy =                 338.5471124807230581
    Total Energy =                       -250.6563827900193928
  Basis Set: (AUG-CC-PVTZ AUX)
    Blend: AUG-CC-PVTZ-RI
    Molecular point group: c1

    Geometry (in Angstrom), charge = 1, multiplicity = 1:

       Center              X                  Y                   Z               Mass
    ------------   -----------------  -----------------  -----------------  -----------------
         N           -1.453493159202    -0.724860567647     0.020607404866    14.003074004430
         C            0.793909840798     0.025968432353    -0.371318595134    12.000000000000
         C            0.000528840798    -1.176669567647     0.124815404866    12.000000000000
         C           -0.013996159202     1.195898432353     0.196618404866    12.000000000000
         C           -1.462975159202     0.808435432353    -0.066994595134    12.000000000000
         C            2.253647840798    -0.011243567647     0.063040404866    12.000000000000
         H            0.741332840798     0.055655432353    -1.467904595134     1.007825032230
         H            0.129422840798    -2.096933567647    -0.447636595134     1.007825032230
         H            0.201015840798    -1.373332567647     1.180925404866     1.007825032230
         H            0.230038840798     2.150178432353    -0.276661595134     1.007825032230
         H            0.173278840798     1.295314432353     1.271598404866     1.007825032230
         H           -2.000602159202    -1.055242567647     0.824319404866     1.007825032230
         H           -1.899472159202    -1.131857567647    -0.809717595134     1.007825032230
         H           -2.188755159202     1.193817432353     0.649911404866     1.007825032230
         H           -1.783717159202     1.066615432353    -1.077217595134     1.007825032230
         H            2.774580240798    -0.904915567647    -0.347893495134     1.007825032230
         H            2.777521840798     0.876136432353    -0.299078595134     1.007825032230
         H            2.333698840798    -0.034152567647     1.154080404866     1.007825032230

  Basis Set: AUG-CC-PVTZ
    Blend: AUG-CC-PVTZ
  Basis Set: (AUG-CC-PVTZ AUX)
    Blend: AUG-CC-PVTZ-JKFIT
	 Reference Energy          =    -250.6563827900193928 [Eh]
	 Singles Energy            =      -0.0000000000000000 [Eh]
	 Same-Spin Energy          =      -0.2610935742568636 [Eh]
	 Opposite-Spin Energy      =      -0.9375358740171693 [Eh]
	 Correlation Energy        =      -1.1986294482740329 [Eh]
	 Total Energy              =    -251.8550122382934262 [Eh]

	 ================> DF-SCS-MP2 Energies <==================
	-----------------------------------------------------------
	 SCS Same-Spin Scale       =       0.3333333333333333 [-]
	 SCS Opposite-Spin Scale   =       1.2000000000000000 [-]
	 SCS Same-Spin Energy      =      -0.0870311914189545 [Eh]
	 SCS Opposite-Spin Energy  =      -1.1250430488206031 [Eh]
	 SCS Correlation Energy    =      -1.2120742402395577 [Eh]
	 SCS Total Energy          =    -251.8684570302589520 [Eh]
	-----------------------------------------------------------

  Dipole Moment: [D]
     X:    -4.2257      Y:    -1.8618      Z:    -0.0141     Total:     4.6177

*** Psi4 exiting successfully. Buy a developer a beer!
