                               Psi4 1.4a3.dev225

  ==> Input File <==

--------------------------------------------------------------------------
#psi4
#
memory 32 gb

molecule  {
1 1
  N       -1.4684160    -0.7256290     0.0168660
  C        0.7789870     0.0252000    -0.3750600
  C       -0.0143940    -1.1774380     0.1210740
  C       -0.0289190     1.1951300     0.1928770
  C       -1.4778980     0.8076670    -0.0707360
  C        2.2387250    -0.0120120     0.0592990
  H        0.7264100     0.0548870    -1.4716460
  H        0.1145000    -2.0977020    -0.4513780
  H        0.1860930    -1.3741010     1.1771840
  H        0.2151160     2.1494100    -0.2804030
  H        0.1412640     1.2854726     1.1697472
  H       -2.0155250    -1.0560110     0.8205780
  H       -1.9143950    -1.1326260    -0.8134590
  H       -2.2036780     1.1930490     0.6461700
  H       -1.7986400     1.0658470    -1.0809590
  H        2.7502970    -0.8896260    -0.3442510
  H        2.7625990     0.8753680    -0.3028200
  H        2.3187760    -0.0349210     1.1503390
units angstrom
no_reorient  #important for SAPT in psi4, default
symmetry c1  #important for SAPT in psi4, default
}

set PROPERTIES_ORIGIN ["COM"]
properties('MP2/aug-cc-pvtz', properties = ['dipole'])
--------------------------------------------------------------------------

    Molecular point group: c1
  Charge       = 1
  Multiplicity = 1
  Basis Set: AUG-CC-PVTZ
    Blend: AUG-CC-PVTZ
  Basis Set: (AUG-CC-PVTZ AUX)
    Blend: AUG-CC-PVTZ-JKFIT

    Orbital Energies [Eh]
    ---------------------

    Doubly Occupied:

       1A    -15.865471     2A    -11.463168     3A    -11.460026
       4A    -11.402339     5A    -11.384909     6A    -11.359645
       7A     -1.492660     8A     -1.267527     9A     -1.195417
      10A     -1.099133    11A     -1.030721    12A     -0.977336
      13A     -0.936752    14A     -0.892212    15A     -0.832194
      16A     -0.794939    17A     -0.753523    18A     -0.739538
      19A     -0.711894    20A     -0.704998    21A     -0.688380
      22A     -0.655158    23A     -0.640178    24A     -0.629300

  @DF-RHF Final Energy:  -250.65107359271587

   => Energetics <=

    Nuclear Repulsion Energy =            266.3757645164562291
    One-Electron Energy =                -856.0988341230508922
    Two-Electron Energy =                 339.0719960138787883
    Total Energy =                       -250.6510735927158748
  Basis Set: (AUG-CC-PVTZ AUX)
    Blend: AUG-CC-PVTZ-RI
    Molecular point group: c1

    Geometry (in Angstrom), charge = 1, multiplicity = 1:

       Center              X                  Y                   Z               Mass
    ------------   -----------------  -----------------  -----------------  -----------------
         N           -1.453183515442    -0.724942327254     0.021669414696    14.003074004430
         C            0.794219484558     0.025886672746    -0.370256585304    12.000000000000
         C            0.000838484558    -1.176751327254     0.125877414696    12.000000000000
         C           -0.013686515442     1.195816672746     0.197680414696    12.000000000000
         C           -1.462665515442     0.808353672746    -0.065932585304    12.000000000000
         C            2.253957484558    -0.011325327254     0.064102414696    12.000000000000
         H            0.741642484558     0.055573672746    -1.466842585304     1.007825032230
         H            0.129732484558    -2.097015327254    -0.446574585304     1.007825032230
         H            0.201325484558    -1.373414327254     1.181987414696     1.007825032230
         H            0.230348484558     2.150096672746    -0.275599585304     1.007825032230
         H            0.156496484558     1.286159272746     1.174550614696     1.007825032230
         H           -2.000292515442    -1.055324327254     0.825381414696     1.007825032230
         H           -1.899162515442    -1.131939327254    -0.808655585304     1.007825032230
         H           -2.188445515442     1.193735672746     0.650973414696     1.007825032230
         H           -1.783407515442     1.066533672746    -1.076155585304     1.007825032230
         H            2.765529484558    -0.888939327254    -0.339447585304     1.007825032230
         H            2.777831484558     0.876054672746    -0.298016585304     1.007825032230
         H            2.334008484558    -0.034234327254     1.155142414696     1.007825032230

  Basis Set: AUG-CC-PVTZ
    Blend: AUG-CC-PVTZ
  Basis Set: (AUG-CC-PVTZ AUX)
    Blend: AUG-CC-PVTZ-JKFIT
	 Reference Energy          =    -250.6510735927158748 [Eh]
	 Singles Energy            =      -0.0000000000000000 [Eh]
	 Same-Spin Energy          =      -0.2610345547996892 [Eh]
	 Opposite-Spin Energy      =      -0.9368477880627708 [Eh]
	 Correlation Energy        =      -1.1978823428624601 [Eh]
	 Total Energy              =    -251.8489559355783456 [Eh]

	 ================> DF-SCS-MP2 Energies <==================
	-----------------------------------------------------------
	 SCS Same-Spin Scale       =       0.3333333333333333 [-]
	 SCS Opposite-Spin Scale   =       1.2000000000000000 [-]
	 SCS Same-Spin Energy      =      -0.0870115182665631 [Eh]
	 SCS Opposite-Spin Energy  =      -1.1242173456753248 [Eh]
	 SCS Correlation Energy    =      -1.2112288639418878 [Eh]
	 SCS Total Energy          =    -251.8623024566577726 [Eh]
	-----------------------------------------------------------

  Dipole Moment: [D]
     X:    -4.2174      Y:    -1.8665      Z:     0.0088     Total:     4.6120

*** Psi4 exiting successfully. Buy a developer a beer!
