                               Psi4 1.4a3.dev225

  ==> Input File <==

--------------------------------------------------------------------------
#psi4
#
memory 32 gb

molecule  {
1 1
  N       -1.4684160    -0.7256290     0.0168660
  C        0.7789870     0.0252000    -0.3750600
  C       -0.0143940    -1.1774380     0.1210740
  C       -0.0289190     1.1951300     0.1928770
  C       -1.4778980     0.8076670    -0.0707360
  C        2.2387250    -0.0120120     0.0592990
  H        0.7264100     0.0548870    -1.4716460
  H        0.1145000    -2.0977020    -0.4513780
  H        0.1860930    -1.3741010     1.1771840
  H        0.2151160     2.1494100    -0.2804030
  H        0.1583560     1.2945460     1.2678570
  H       -2.0155250    -1.0560110     0.8205780
  H       -1.9143950    -1.1326260    -0.8134590
  H       -2.1932209     1.1858727     0.6603616
  H       -1.7986400     1.0658470    -1.0809590
  H        2.7502970    -0.8896260    -0.3442510
  H        2.7625990     0.8753680    -0.3028200
  H        2.3187760    -0.0349210     1.1503390
units angstrom
no_reorient  #important for SAPT in psi4, default
symmetry c1  #important for SAPT in psi4, default
}

set PROPERTIES_ORIGIN ["COM"]
properties('MP2/aug-cc-pvtz', properties = ['dipole'])
--------------------------------------------------------------------------

    Molecular point group: c1
  Charge       = 1
  Multiplicity = 1
  Basis Set: AUG-CC-PVTZ
    Blend: AUG-CC-PVTZ
  Basis Set: (AUG-CC-PVTZ AUX)
    Blend: AUG-CC-PVTZ-JKFIT

    Orbital Energies [Eh]
    ---------------------

    Doubly Occupied:

       1A    -15.865460     2A    -11.463917     3A    -11.459967
       4A    -11.403019     5A    -11.396600     6A    -11.359567
       7A     -1.492710     8A     -1.265024     9A     -1.194103
      10A     -1.098926    11A     -1.023569    12A     -0.975053
      13A     -0.935143    14A     -0.891946    15A     -0.827764
      16A     -0.792710    17A     -0.753148    18A     -0.739445
      19A     -0.711915    20A     -0.703685    21A     -0.680128
      22A     -0.654607    23A     -0.638585    24A     -0.629261

  @DF-RHF Final Energy:  -250.65685539085459

   => Energetics <=

    Nuclear Repulsion Energy =            265.8999025856890626
    One-Electron Energy =                -855.2010133713320101
    Two-Electron Energy =                 338.6442553947883880
    Total Energy =                       -250.6568553908546164
  Basis Set: (AUG-CC-PVTZ AUX)
    Blend: AUG-CC-PVTZ-RI
    Molecular point group: c1

    Geometry (in Angstrom), charge = 1, multiplicity = 1:

       Center              X                  Y                   Z               Mass
    ------------   -----------------  -----------------  -----------------  -----------------
         N           -1.453505996839    -0.724964534130     0.020354848617    14.003074004430
         C            0.793897003161     0.025864465870    -0.371571151383    12.000000000000
         C            0.000516003161    -1.176773534130     0.124562848617    12.000000000000
         C           -0.014008996839     1.195794465870     0.196365848617    12.000000000000
         C           -1.462987996839     0.808331465870    -0.067247151383    12.000000000000
         C            2.253635003161    -0.011347534130     0.062787848617    12.000000000000
         H            0.741320003161     0.055551465870    -1.468157151383     1.007825032230
         H            0.129410003161    -2.097037534130    -0.447889151383     1.007825032230
         H            0.201003003161    -1.373436534130     1.180672848617     1.007825032230
         H            0.230026003161     2.150074465870    -0.276914151383     1.007825032230
         H            0.173266003161     1.295210465870     1.271345848617     1.007825032230
         H           -2.000614996839    -1.055346534130     0.824066848617     1.007825032230
         H           -1.899484996839    -1.131961534130    -0.809970151383     1.007825032230
         H           -2.178310896839     1.186537165870     0.663850448617     1.007825032230
         H           -1.783729996839     1.066511465870    -1.077470151383     1.007825032230
         H            2.765207003161    -0.888961534130    -0.340762151383     1.007825032230
         H            2.777509003161     0.876032465870    -0.299331151383     1.007825032230
         H            2.333686003161    -0.034256534130     1.153827848617     1.007825032230

  Basis Set: AUG-CC-PVTZ
    Blend: AUG-CC-PVTZ
  Basis Set: (AUG-CC-PVTZ AUX)
    Blend: AUG-CC-PVTZ-JKFIT
	 Reference Energy          =    -250.6568553908545880 [Eh]
	 Singles Energy            =      -0.0000000000000000 [Eh]
	 Same-Spin Energy          =      -0.2611021195656429 [Eh]
	 Opposite-Spin Energy      =      -0.9374357111798377 [Eh]
	 Correlation Energy        =      -1.1985378307454806 [Eh]
	 Total Energy              =    -251.8553932216000817 [Eh]

	 ================> DF-SCS-MP2 Energies <==================
	-----------------------------------------------------------
	 SCS Same-Spin Scale       =       0.3333333333333333 [-]
	 SCS Opposite-Spin Scale   =       1.2000000000000000 [-]
	 SCS Same-Spin Energy      =      -0.0870340398552143 [Eh]
	 SCS Opposite-Spin Energy  =      -1.1249228534158051 [Eh]
	 SCS Correlation Energy    =      -1.2119568932710194 [Eh]
	 SCS Total Energy          =    -251.8688122841255961 [Eh]
	-----------------------------------------------------------

  Dipole Moment: [D]
     X:    -4.2161      Y:    -1.8683      Z:    -0.0128     Total:     4.6115

*** Psi4 exiting successfully. Buy a developer a beer!
