                               Psi4 1.4a3.dev225

  ==> Input File <==

--------------------------------------------------------------------------
#psi4
#
memory 32 gb

molecule  {
1 1
  N       -1.4684160    -0.7256290     0.0168660
  C        0.7789870     0.0252000    -0.3750600
  C       -0.0143940    -1.1774380     0.1210740
  C       -0.0289190     1.1951300     0.1928770
  C       -1.4778980     0.8076670    -0.0707360
  C        2.2387250    -0.0120120     0.0592990
  H        0.7264100     0.0548870    -1.4716460
  H        0.1145000    -2.0977020    -0.4513780
  H        0.1860930    -1.3741010     1.1771840
  H        0.2151160     2.1494100    -0.2804030
  H        0.1583560     1.2945460     1.2678570
  H       -2.0155250    -1.0560110     0.8205780
  H       -1.9143950    -1.1326260    -0.8134590
  H       -2.2036780     1.1930490     0.6461700
  H       -1.7986400     1.0658470    -1.0809590
  H        2.7736981    -0.9297711    -0.3627108
  H        2.7625990     0.8753680    -0.3028200
  H        2.3187760    -0.0349210     1.1503390
units angstrom
no_reorient  #important for SAPT in psi4, default
symmetry c1  #important for SAPT in psi4, default
}

set PROPERTIES_ORIGIN ["COM"]
properties('MP2/aug-cc-pvtz', properties = ['dipole'])
--------------------------------------------------------------------------

    Molecular point group: c1
  Charge       = 1
  Multiplicity = 1
  Basis Set: AUG-CC-PVTZ
    Blend: AUG-CC-PVTZ
  Basis Set: (AUG-CC-PVTZ AUX)
    Blend: AUG-CC-PVTZ-JKFIT

    Orbital Energies [Eh]
    ---------------------

    Doubly Occupied:

       1A    -15.865694     2A    -11.464047     3A    -11.460084
       4A    -11.403464     5A    -11.397036     6A    -11.365325
       7A     -1.492813     8A     -1.264983     9A     -1.193937
      10A     -1.096239    11A     -1.023337    12A     -0.974583
      13A     -0.934647    14A     -0.892229    15A     -0.827564
      16A     -0.791577    17A     -0.753569    18A     -0.737319
      19A     -0.709452    20A     -0.703290    21A     -0.679777
      22A     -0.654856    23A     -0.638824    24A     -0.625061

  @DF-RHF Final Energy:  -250.65479925271066

   => Energetics <=

    Nuclear Repulsion Energy =            265.6753981932587863
    One-Electron Energy =                -854.7609812245283365
    Two-Electron Energy =                 338.4307837785589754
    Total Energy =                       -250.6547992527106317
  Basis Set: (AUG-CC-PVTZ AUX)
    Blend: AUG-CC-PVTZ-RI
    Molecular point group: c1

    Geometry (in Angstrom), charge = 1, multiplicity = 1:

       Center              X                  Y                   Z               Mass
    ------------   -----------------  -----------------  -----------------  -----------------
         N           -1.453657515372    -0.724578611371     0.020737055988    14.003074004430
         C            0.793745484628     0.026250388629    -0.371188944012    12.000000000000
         C            0.000364484628    -1.176387611371     0.124945055988    12.000000000000
         C           -0.014160515372     1.196180388629     0.196748055988    12.000000000000
         C           -1.463139515372     0.808717388629    -0.066864944012    12.000000000000
         C            2.253483484628    -0.010961611371     0.063170055988    12.000000000000
         H            0.741168484628     0.055937388629    -1.467774944012     1.007825032230
         H            0.129258484628    -2.096651611371    -0.447506944012     1.007825032230
         H            0.200851484628    -1.373050611371     1.181055055988     1.007825032230
         H            0.229874484628     2.150460388629    -0.276531944012     1.007825032230
         H            0.173114484628     1.295596388629     1.271728055988     1.007825032230
         H           -2.000766515372    -1.054960611371     0.824449055988     1.007825032230
         H           -1.899636515372    -1.131575611371    -0.809587944012     1.007825032230
         H           -2.188919515372     1.194099388629     0.650041055988     1.007825032230
         H           -1.783881515372     1.066897388629    -1.077087944012     1.007825032230
         H            2.788456584628    -0.928720711371    -0.358839744012     1.007825032230
         H            2.777357484628     0.876418388629    -0.298948944012     1.007825032230
         H            2.333534484628    -0.033870611371     1.154210055988     1.007825032230

  Basis Set: AUG-CC-PVTZ
    Blend: AUG-CC-PVTZ
  Basis Set: (AUG-CC-PVTZ AUX)
    Blend: AUG-CC-PVTZ-JKFIT
	 Reference Energy          =    -250.6547992527106601 [Eh]
	 Singles Energy            =      -0.0000000000000000 [Eh]
	 Same-Spin Energy          =      -0.2610908800416353 [Eh]
	 Opposite-Spin Energy      =      -0.9377457352436231 [Eh]
	 Correlation Energy        =      -1.1988366152852583 [Eh]
	 Total Energy              =    -251.8536358679959051 [Eh]

	 ================> DF-SCS-MP2 Energies <==================
	-----------------------------------------------------------
	 SCS Same-Spin Scale       =       0.3333333333333333 [-]
	 SCS Opposite-Spin Scale   =       1.2000000000000000 [-]
	 SCS Same-Spin Energy      =      -0.0870302933472118 [Eh]
	 SCS Opposite-Spin Energy  =      -1.1252948822923476 [Eh]
	 SCS Correlation Energy    =      -1.2123251756395594 [Eh]
	 SCS Total Energy          =    -251.8671244283502233 [Eh]
	-----------------------------------------------------------

  Dipole Moment: [D]
     X:    -4.2339      Y:    -1.8529      Z:    -0.0111     Total:     4.6216

*** Psi4 exiting successfully. Buy a developer a beer!
