                               Psi4 1.4a3.dev225

  ==> Input File <==

--------------------------------------------------------------------------
#psi4
#
memory 32 gb

molecule  {
1 1
  N       -1.4684160    -0.7256290     0.0168660
  C        0.7789870     0.0252000    -0.3750600
  C       -0.0143940    -1.1774380     0.1210740
  C       -0.0289190     1.1951300     0.1928770
  C       -1.4777745     0.7876999    -0.0695952
  C        2.2387250    -0.0120120     0.0592990
  H        0.7264100     0.0548870    -1.4716460
  H        0.1145000    -2.0977020    -0.4513780
  H        0.1860930    -1.3741010     1.1771840
  H        0.2151160     2.1494100    -0.2804030
  H        0.1583560     1.2945460     1.2678570
  H       -2.0155250    -1.0560110     0.8205780
  H       -1.9143950    -1.1326260    -0.8134590
  H       -2.2036780     1.1930490     0.6461700
  H       -1.7986400     1.0658470    -1.0809590
  H        2.7502970    -0.8896260    -0.3442510
  H        2.7625990     0.8753680    -0.3028200
  H        2.3187760    -0.0349210     1.1503390
units angstrom
no_reorient  #important for SAPT in psi4, default
symmetry c1  #important for SAPT in psi4, default
}

set PROPERTIES_ORIGIN ["COM"]
properties('MP2/aug-cc-pvtz', properties = ['dipole'])
--------------------------------------------------------------------------

    Molecular point group: c1
  Charge       = 1
  Multiplicity = 1
  Basis Set: AUG-CC-PVTZ
    Blend: AUG-CC-PVTZ
  Basis Set: (AUG-CC-PVTZ AUX)
    Blend: AUG-CC-PVTZ-JKFIT

    Orbital Energies [Eh]
    ---------------------

    Doubly Occupied:

       1A    -15.867478     2A    -11.462758     3A    -11.460725
       4A    -11.402896     5A    -11.396539     6A    -11.359542
       7A     -1.497442     8A     -1.265146     9A     -1.193364
      10A     -1.099569    11A     -1.023418    12A     -0.976393
      13A     -0.936647    14A     -0.894874    15A     -0.828350
      16A     -0.789228    17A     -0.757156    18A     -0.738702
      19A     -0.711820    20A     -0.703146    21A     -0.678104
      22A     -0.654268    23A     -0.638336    24A     -0.628456

  @DF-RHF Final Energy:  -250.65659281018847

   => Energetics <=

    Nuclear Repulsion Energy =            266.1058301783418756
    One-Electron Energy =                -855.5961322384373489
    Two-Electron Energy =                 338.8337092499070309
    Total Energy =                       -250.6565928101884424
  Basis Set: (AUG-CC-PVTZ AUX)
    Blend: AUG-CC-PVTZ-RI
    Molecular point group: c1

    Geometry (in Angstrom), charge = 1, multiplicity = 1:

       Center              X                  Y                   Z               Mass
    ------------   -----------------  -----------------  -----------------  -----------------
         N           -1.453400802351    -0.722265568843     0.020361969073    14.003074004430
         C            0.794002197649     0.028563431157    -0.371564030927    12.000000000000
         C            0.000621197649    -1.174074568843     0.124569969073    12.000000000000
         C           -0.013903802351     1.198493431157     0.196372969073    12.000000000000
         C           -1.462759302351     0.791063331157    -0.066099230927    12.000000000000
         C            2.253740197649    -0.008648568843     0.062794969073    12.000000000000
         H            0.741425197649     0.058250431157    -1.468150030927     1.007825032230
         H            0.129515197649    -2.094338568843    -0.447882030927     1.007825032230
         H            0.201108197649    -1.370737568843     1.180679969073     1.007825032230
         H            0.230131197649     2.152773431157    -0.276907030927     1.007825032230
         H            0.173371197649     1.297909431157     1.271352969073     1.007825032230
         H           -2.000509802351    -1.052647568843     0.824073969073     1.007825032230
         H           -1.899379802351    -1.129262568843    -0.809963030927     1.007825032230
         H           -2.188662802351     1.196412431157     0.649665969073     1.007825032230
         H           -1.783624802351     1.069210431157    -1.077463030927     1.007825032230
         H            2.765312197649    -0.886262568843    -0.340755030927     1.007825032230
         H            2.777614197649     0.878731431157    -0.299324030927     1.007825032230
         H            2.333791197649    -0.031557568843     1.153834969073     1.007825032230

  Basis Set: AUG-CC-PVTZ
    Blend: AUG-CC-PVTZ
  Basis Set: (AUG-CC-PVTZ AUX)
    Blend: AUG-CC-PVTZ-JKFIT
	 Reference Energy          =    -250.6565928101884708 [Eh]
	 Singles Energy            =      -0.0000000000000000 [Eh]
	 Same-Spin Energy          =      -0.2611808357226442 [Eh]
	 Opposite-Spin Energy      =      -0.9374122866034857 [Eh]
	 Correlation Energy        =      -1.1985931223261299 [Eh]
	 Total Energy              =    -251.8551859325145870 [Eh]

	 ================> DF-SCS-MP2 Energies <==================
	-----------------------------------------------------------
	 SCS Same-Spin Scale       =       0.3333333333333333 [-]
	 SCS Opposite-Spin Scale   =       1.2000000000000000 [-]
	 SCS Same-Spin Energy      =      -0.0870602785742147 [Eh]
	 SCS Opposite-Spin Energy  =      -1.1248947439241828 [Eh]
	 SCS Correlation Energy    =      -1.2119550224983975 [Eh]
	 SCS Total Energy          =    -251.8685478326868576 [Eh]
	-----------------------------------------------------------

  Dipole Moment: [D]
     X:    -4.2236      Y:    -1.9003      Z:    -0.0137     Total:     4.6315

*** Psi4 exiting successfully. Buy a developer a beer!
