                               Psi4 1.4a3.dev225

  ==> Input File <==

--------------------------------------------------------------------------
#psi4
#
memory 32 gb

molecule  {
1 1
  N       -1.4684160    -0.7256290     0.0168660
  C        0.7789870     0.0252000    -0.3750600
  C       -0.0143940    -1.1774380     0.1210740
  C       -0.0289190     1.1951300     0.1928770
  C       -1.4778980     0.8076670    -0.0707360
  C        2.2387250    -0.0120120     0.0592990
  H        0.7264100     0.0548870    -1.4716460
  H        0.1145000    -2.0977020    -0.4513780
  H        0.1860930    -1.3741010     1.1771840
  H        0.2151160     2.1494100    -0.2804030
  H        0.1583560     1.2945460     1.2678570
  H       -2.0155250    -1.0560110     0.8205780
  H       -1.9143950    -1.1326260    -0.8134590
  H       -2.2239259     1.2070472     0.6171361
  H       -1.7986400     1.0658470    -1.0809590
  H        2.7502970    -0.8896260    -0.3442510
  H        2.7625990     0.8753680    -0.3028200
  H        2.3187760    -0.0349210     1.1503390
units angstrom
no_reorient  #important for SAPT in psi4, default
symmetry c1  #important for SAPT in psi4, default
}

set PROPERTIES_ORIGIN ["COM"]
properties('MP2/aug-cc-pvtz', properties = ['dipole'])
--------------------------------------------------------------------------

    Molecular point group: c1
  Charge       = 1
  Multiplicity = 1
  Basis Set: AUG-CC-PVTZ
    Blend: AUG-CC-PVTZ
  Basis Set: (AUG-CC-PVTZ AUX)
    Blend: AUG-CC-PVTZ-JKFIT

    Orbital Energies [Eh]
    ---------------------

    Doubly Occupied:

       1A    -15.865902     2A    -11.463631     3A    -11.460173
       4A    -11.403153     5A    -11.396930     6A    -11.359647
       7A     -1.492694     8A     -1.265050     9A     -1.193878
      10A     -1.099013    11A     -1.024390    12A     -0.974641
      13A     -0.935018    14A     -0.893273    15A     -0.827703
      16A     -0.789517    17A     -0.754871    18A     -0.739881
      19A     -0.711801    20A     -0.703613    21A     -0.678714
      22A     -0.655157    23A     -0.638605    24A     -0.629656

  @DF-RHF Final Energy:  -250.65675177685961

   => Energetics <=

    Nuclear Repulsion Energy =            265.8479822884980877
    One-Electron Energy =                -855.0956418706152817
    Two-Electron Energy =                 338.5909078052575865
    Total Energy =                       -250.6567517768596076
  Basis Set: (AUG-CC-PVTZ AUX)
    Blend: AUG-CC-PVTZ-RI
    Molecular point group: c1

    Geometry (in Angstrom), charge = 1, multiplicity = 1:

       Center              X                  Y                   Z               Mass
    ------------   -----------------  -----------------  -----------------  -----------------
         N           -1.453146573435    -0.725212396396     0.020860833191    14.003074004430
         C            0.794256426565     0.025616603604    -0.371065166809    12.000000000000
         C            0.000875426565    -1.177021396396     0.125068833191    12.000000000000
         C           -0.013649573435     1.195546603604     0.196871833191    12.000000000000
         C           -1.462628573435     0.808083603604    -0.066741166809    12.000000000000
         C            2.253994426565    -0.011595396396     0.063293833191    12.000000000000
         H            0.741679426565     0.055303603604    -1.467651166809     1.007825032230
         H            0.129769426565    -2.097285396396    -0.447383166809     1.007825032230
         H            0.201362426565    -1.373684396396     1.181178833191     1.007825032230
         H            0.230385426565     2.149826603604    -0.276408166809     1.007825032230
         H            0.173625426565     1.294962603604     1.271851833191     1.007825032230
         H           -2.000255573435    -1.055594396396     0.824572833191     1.007825032230
         H           -1.899125573435    -1.132209396396    -0.809464166809     1.007825032230
         H           -2.208656473435     1.207463803604     0.621130933191     1.007825032230
         H           -1.783370573435     1.066263603604    -1.076964166809     1.007825032230
         H            2.765566426565    -0.889209396396    -0.340256166809     1.007825032230
         H            2.777868426565     0.875784603604    -0.298825166809     1.007825032230
         H            2.334045426565    -0.034504396396     1.154333833191     1.007825032230

  Basis Set: AUG-CC-PVTZ
    Blend: AUG-CC-PVTZ
  Basis Set: (AUG-CC-PVTZ AUX)
    Blend: AUG-CC-PVTZ-JKFIT
	 Reference Energy          =    -250.6567517768596076 [Eh]
	 Singles Energy            =      -0.0000000000000000 [Eh]
	 Same-Spin Energy          =      -0.2610948902594518 [Eh]
	 Opposite-Spin Energy      =      -0.9373625805989115 [Eh]
	 Correlation Energy        =      -1.1984574708583633 [Eh]
	 Total Energy              =    -251.8552092477179656 [Eh]

	 ================> DF-SCS-MP2 Energies <==================
	-----------------------------------------------------------
	 SCS Same-Spin Scale       =       0.3333333333333333 [-]
	 SCS Opposite-Spin Scale   =       1.2000000000000000 [-]
	 SCS Same-Spin Energy      =      -0.0870316300864839 [Eh]
	 SCS Opposite-Spin Energy  =      -1.1248350967186937 [Eh]
	 SCS Correlation Energy    =      -1.2118667268051777 [Eh]
	 SCS Total Energy          =    -251.8686185036647771 [Eh]
	-----------------------------------------------------------

  Dipole Moment: [D]
     X:    -4.2296      Y:    -1.8654      Z:    -0.0232     Total:     4.6228

*** Psi4 exiting successfully. Buy a developer a beer!
