                               Psi4 1.4a3.dev225

  ==> Input File <==

--------------------------------------------------------------------------
#psi4
#
memory 32 gb

molecule  {
1 1
  N       -1.4684160    -0.7256290     0.0168660
  C        0.7789870     0.0252000    -0.3750600
  C       -0.0143940    -1.1774380     0.1210740
  C       -0.0289190     1.1951300     0.1928770
  C       -1.4778980     0.8076670    -0.0707360
  C        2.2387250    -0.0120120     0.0592990
  H        0.7264100     0.0548870    -1.4716460
  H        0.1145000    -2.0977020    -0.4513780
  H        0.1860930    -1.3741010     1.1771840
  H        0.2039503     2.1057476    -0.2587484
  H        0.1583560     1.2945460     1.2678570
  H       -2.0155250    -1.0560110     0.8205780
  H       -1.9143950    -1.1326260    -0.8134590
  H       -2.2036780     1.1930490     0.6461700
  H       -1.7986400     1.0658470    -1.0809590
  H        2.7502970    -0.8896260    -0.3442510
  H        2.7625990     0.8753680    -0.3028200
  H        2.3187760    -0.0349210     1.1503390
units angstrom
no_reorient  #important for SAPT in psi4, default
symmetry c1  #important for SAPT in psi4, default
}

set PROPERTIES_ORIGIN ["COM"]
properties('MP2/aug-cc-pvtz', properties = ['dipole'])
--------------------------------------------------------------------------

    Molecular point group: c1
  Charge       = 1
  Multiplicity = 1
  Basis Set: AUG-CC-PVTZ
    Blend: AUG-CC-PVTZ
  Basis Set: (AUG-CC-PVTZ AUX)
    Blend: AUG-CC-PVTZ-JKFIT

    Orbital Energies [Eh]
    ---------------------

    Doubly Occupied:

       1A    -15.865458     2A    -11.463618     3A    -11.459811
       4A    -11.402838     5A    -11.391154     6A    -11.359604
       7A     -1.492525     8A     -1.265978     9A     -1.194835
      10A     -1.098916    11A     -1.027226    12A     -0.975135
      13A     -0.936775    14A     -0.892732    15A     -0.828474
      16A     -0.791788    17A     -0.755338    18A     -0.739907
      19A     -0.712598    20A     -0.706767    21A     -0.682162
      22A     -0.654814    23A     -0.639249    24A     -0.629266

  @DF-RHF Final Energy:  -250.65603958169851

   => Energetics <=

    Nuclear Repulsion Energy =            266.1325100127844507
    One-Electron Energy =                -855.6431698770519461
    Two-Electron Energy =                 338.8546202825689875
    Total Energy =                       -250.6560395816985078
  Basis Set: (AUG-CC-PVTZ AUX)
    Blend: AUG-CC-PVTZ-RI
    Molecular point group: c1

    Geometry (in Angstrom), charge = 1, multiplicity = 1:

       Center              X                  Y                   Z               Mass
    ------------   -----------------  -----------------  -----------------  -----------------
         N           -1.453252886910    -0.724537438925     0.020267489005    14.003074004430
         C            0.794150113090     0.026291561075    -0.371658510995    12.000000000000
         C            0.000769113090    -1.176346438925     0.124475489005    12.000000000000
         C           -0.013755886910     1.196221561075     0.196278489005    12.000000000000
         C           -1.462734886910     0.808758561075    -0.067334510995    12.000000000000
         C            2.253888113090    -0.010920438925     0.062700489005    12.000000000000
         H            0.741573113090     0.055978561075    -1.468244510995     1.007825032230
         H            0.129663113090    -2.096610438925    -0.447976510995     1.007825032230
         H            0.201256113090    -1.373009438925     1.180585489005     1.007825032230
         H            0.219113413090     2.106839161075    -0.255346910995     1.007825032230
         H            0.173519113090     1.295637561075     1.271258489005     1.007825032230
         H           -2.000361886910    -1.054919438925     0.823979489005     1.007825032230
         H           -1.899231886910    -1.131534438925    -0.810057510995     1.007825032230
         H           -2.188514886910     1.194140561075     0.649571489005     1.007825032230
         H           -1.783476886910     1.066938561075    -1.077557510995     1.007825032230
         H            2.765460113090    -0.888534438925    -0.340849510995     1.007825032230
         H            2.777762113090     0.876459561075    -0.299418510995     1.007825032230
         H            2.333939113090    -0.033829438925     1.153740489005     1.007825032230

  Basis Set: AUG-CC-PVTZ
    Blend: AUG-CC-PVTZ
  Basis Set: (AUG-CC-PVTZ AUX)
    Blend: AUG-CC-PVTZ-JKFIT
	 Reference Energy          =    -250.6560395816985078 [Eh]
	 Singles Energy            =      -0.0000000000000000 [Eh]
	 Same-Spin Energy          =      -0.2610525855597740 [Eh]
	 Opposite-Spin Energy      =      -0.9370787556099995 [Eh]
	 Correlation Energy        =      -1.1981313411697736 [Eh]
	 Total Energy              =    -251.8541709228682919 [Eh]

	 ================> DF-SCS-MP2 Energies <==================
	-----------------------------------------------------------
	 SCS Same-Spin Scale       =       0.3333333333333333 [-]
	 SCS Opposite-Spin Scale   =       1.2000000000000000 [-]
	 SCS Same-Spin Energy      =      -0.0870175285199247 [Eh]
	 SCS Opposite-Spin Energy  =      -1.1244945067319994 [Eh]
	 SCS Correlation Energy    =      -1.2115120352519240 [Eh]
	 SCS Total Energy          =    -251.8675516169504363 [Eh]
	-----------------------------------------------------------

  Dipole Moment: [D]
     X:    -4.2217      Y:    -1.8649      Z:    -0.0137     Total:     4.6153

*** Psi4 exiting successfully. Buy a developer a beer!
