                               Psi4 1.4a3.dev225

  ==> Input File <==

--------------------------------------------------------------------------
#psi4
#
memory 32 gb

molecule  {
1 1
  N       -1.4684160    -0.7256290     0.0168660
  C        0.7789870     0.0252000    -0.3750600
  C       -0.0143940    -1.1774380     0.1210740
  C       -0.0289190     1.1951300     0.1928770
  C       -1.5254717     0.7949456    -0.0793911
  C        2.2387250    -0.0120120     0.0592990
  H        0.7264100     0.0548870    -1.4716460
  H        0.1145000    -2.0977020    -0.4513780
  H        0.1860930    -1.3741010     1.1771840
  H        0.2151160     2.1494100    -0.2804030
  H        0.1583560     1.2945460     1.2678570
  H       -2.0155250    -1.0560110     0.8205780
  H       -1.9143950    -1.1326260    -0.8134590
  H       -2.2036780     1.1930490     0.6461700
  H       -1.7986400     1.0658470    -1.0809590
  H        2.7502970    -0.8896260    -0.3442510
  H        2.7625990     0.8753680    -0.3028200
  H        2.3187760    -0.0349210     1.1503390
units angstrom
no_reorient  #important for SAPT in psi4, default
symmetry c1  #important for SAPT in psi4, default
}

set PROPERTIES_ORIGIN ["COM"]
properties('MP2/aug-cc-pvtz', properties = ['dipole'])
--------------------------------------------------------------------------

    Molecular point group: c1
  Charge       = 1
  Multiplicity = 1
  Basis Set: AUG-CC-PVTZ
    Blend: AUG-CC-PVTZ
  Basis Set: (AUG-CC-PVTZ AUX)
    Blend: AUG-CC-PVTZ-JKFIT

    Orbital Energies [Eh]
    ---------------------

    Doubly Occupied:

       1A    -15.867071     2A    -11.461370     3A    -11.460576
       4A    -11.402596     5A    -11.398894     6A    -11.359569
       7A     -1.494532     8A     -1.261686     9A     -1.190942
      10A     -1.098589    11A     -1.026396    12A     -0.975312
      13A     -0.935093    14A     -0.893354    15A     -0.827412
      16A     -0.794899    17A     -0.760689    18A     -0.734386
      19A     -0.711994    20A     -0.697327    21A     -0.684054
      22A     -0.651604    23A     -0.637582    24A     -0.628284

  @DF-RHF Final Energy:  -250.65514086020573

   => Energetics <=

    Nuclear Repulsion Energy =            265.3768522055754602
    One-Electron Energy =                -854.1555623893199254
    Two-Electron Energy =                 338.1235693235387316
    Total Energy =                       -250.6551408602057336
  Basis Set: (AUG-CC-PVTZ AUX)
    Blend: AUG-CC-PVTZ-RI
    Molecular point group: c1

    Geometry (in Angstrom), charge = 1, multiplicity = 1:

       Center              X                  Y                   Z               Mass
    ------------   -----------------  -----------------  -----------------  -----------------
         N           -1.446752875359    -0.723275457989     0.021727299281    14.003074004430
         C            0.800650124641     0.027553542011    -0.370198700719    12.000000000000
         C            0.007269124641    -1.175084457989     0.125935299281    12.000000000000
         C           -0.007255875359     1.197483542011     0.197738299281    12.000000000000
         C           -1.503808575359     0.797299142011    -0.074529800719    12.000000000000
         C            2.260388124641    -0.009658457989     0.064160299281    12.000000000000
         H            0.748073124641     0.057240542011    -1.466784700719     1.007825032230
         H            0.136163124641    -2.095348457989    -0.446516700719     1.007825032230
         H            0.207756124641    -1.371747457989     1.182045299281     1.007825032230
         H            0.236779124641     2.151763542011    -0.275541700719     1.007825032230
         H            0.180019124641     1.296899542011     1.272718299281     1.007825032230
         H           -1.993861875359    -1.053657457989     0.825439299281     1.007825032230
         H           -1.892731875359    -1.130272457989    -0.808597700719     1.007825032230
         H           -2.182014875359     1.195402542011     0.651031299281     1.007825032230
         H           -1.776976875359     1.068200542011    -1.076097700719     1.007825032230
         H            2.771960124641    -0.887272457989    -0.339389700719     1.007825032230
         H            2.784262124641     0.877721542011    -0.297958700719     1.007825032230
         H            2.340439124641    -0.032567457989     1.155200299281     1.007825032230

  Basis Set: AUG-CC-PVTZ
    Blend: AUG-CC-PVTZ
  Basis Set: (AUG-CC-PVTZ AUX)
    Blend: AUG-CC-PVTZ-JKFIT
	 Reference Energy          =    -250.6551408602057336 [Eh]
	 Singles Energy            =      -0.0000000000000000 [Eh]
	 Same-Spin Energy          =      -0.2608568792589661 [Eh]
	 Opposite-Spin Energy      =      -0.9372895814883359 [Eh]
	 Correlation Energy        =      -1.1981464607473020 [Eh]
	 Total Energy              =    -251.8532873209530294 [Eh]

	 ================> DF-SCS-MP2 Energies <==================
	-----------------------------------------------------------
	 SCS Same-Spin Scale       =       0.3333333333333333 [-]
	 SCS Opposite-Spin Scale   =       1.2000000000000000 [-]
	 SCS Same-Spin Energy      =      -0.0869522930863220 [Eh]
	 SCS Opposite-Spin Energy  =      -1.1247474977860030 [Eh]
	 SCS Correlation Energy    =      -1.2116997908723250 [Eh]
	 SCS Total Energy          =    -251.8668406510780642 [Eh]
	-----------------------------------------------------------

  Dipole Moment: [D]
     X:    -4.2128      Y:    -1.8954      Z:    -0.0100     Total:     4.6195

*** Psi4 exiting successfully. Buy a developer a beer!
