                               Psi4 1.4a3.dev225

  ==> Input File <==

--------------------------------------------------------------------------
#psi4
#
memory 32 gb

molecule  {
1 1
  N       -1.4684160    -0.7256290     0.0168660
  C        0.7688130     0.1156617    -0.3201027
  C       -0.0143940    -1.1774380     0.1210740
  C       -0.0289190     1.1951300     0.1928770
  C       -1.4778980     0.8076670    -0.0707360
  C        2.2387250    -0.0120120     0.0592990
  H        0.7264100     0.0548870    -1.4716460
  H        0.1145000    -2.0977020    -0.4513780
  H        0.1860930    -1.3741010     1.1771840
  H        0.2151160     2.1494100    -0.2804030
  H        0.1583560     1.2945460     1.2678570
  H       -2.0155250    -1.0560110     0.8205780
  H       -1.9143950    -1.1326260    -0.8134590
  H       -2.2036780     1.1930490     0.6461700
  H       -1.7986400     1.0658470    -1.0809590
  H        2.7502970    -0.8896260    -0.3442510
  H        2.7625990     0.8753680    -0.3028200
  H        2.3187760    -0.0349210     1.1503390
units angstrom
no_reorient  #important for SAPT in psi4, default
symmetry c1  #important for SAPT in psi4, default
}

set PROPERTIES_ORIGIN ["COM"]
properties('MP2/aug-cc-pvtz', properties = ['dipole'])
--------------------------------------------------------------------------

    Molecular point group: c1
  Charge       = 1
  Multiplicity = 1
  Basis Set: AUG-CC-PVTZ
    Blend: AUG-CC-PVTZ
  Basis Set: (AUG-CC-PVTZ AUX)
    Blend: AUG-CC-PVTZ-JKFIT

    Orbital Energies [Eh]
    ---------------------

    Doubly Occupied:

       1A    -15.865115     2A    -11.465662     3A    -11.460020
       4A    -11.406818     5A    -11.394267     6A    -11.360461
       7A     -1.492247     8A     -1.275211     9A     -1.191073
      10A     -1.098504    11A     -1.034907    12A     -0.970001
      13A     -0.932875    14A     -0.889247    15A     -0.827456
      16A     -0.790805    17A     -0.755009    18A     -0.745109
      19A     -0.716807    20A     -0.704119    21A     -0.681893
      22A     -0.661839    23A     -0.634529    24A     -0.615787

  @DF-RHF Final Energy:  -250.64493606112589

   => Energetics <=

    Nuclear Repulsion Energy =            266.3349143948720439
    One-Electron Energy =                -856.0201837891364676
    Two-Electron Energy =                 339.0403333331385625
    Total Energy =                       -250.6449360611258612
  Basis Set: (AUG-CC-PVTZ AUX)
    Blend: AUG-CC-PVTZ-RI
    Molecular point group: c1

    Geometry (in Angstrom), charge = 1, multiplicity = 1:

       Center              X                  Y                   Z               Mass
    ------------   -----------------  -----------------  -----------------  -----------------
         N           -1.451965560278    -0.737656883223     0.012861147998    14.003074004430
         C            0.785263439722     0.103633816777    -0.324107552002    12.000000000000
         C            0.002056439722    -1.189465883223     0.117069147998    12.000000000000
         C           -0.012468560278     1.183102116777     0.188872147998    12.000000000000
         C           -1.461447560278     0.795639116777    -0.074740852002    12.000000000000
         C            2.255175439722    -0.024039883223     0.055294147998    12.000000000000
         H            0.742860439722     0.042859116777    -1.475650852002     1.007825032230
         H            0.130950439722    -2.109729883223    -0.455382852002     1.007825032230
         H            0.202543439722    -1.386128883223     1.173179147998     1.007825032230
         H            0.231566439722     2.137382116777    -0.284407852002     1.007825032230
         H            0.174806439722     1.282518116777     1.263852147998     1.007825032230
         H           -1.999074560278    -1.068038883223     0.816573147998     1.007825032230
         H           -1.897944560278    -1.144653883223    -0.817463852002     1.007825032230
         H           -2.187227560278     1.181021116777     0.642165147998     1.007825032230
         H           -1.782189560278     1.053819116777    -1.084963852002     1.007825032230
         H            2.766747439722    -0.901653883223    -0.348255852002     1.007825032230
         H            2.779049439722     0.863340116777    -0.306824852002     1.007825032230
         H            2.335226439722    -0.046948883223     1.146334147998     1.007825032230

  Basis Set: AUG-CC-PVTZ
    Blend: AUG-CC-PVTZ
  Basis Set: (AUG-CC-PVTZ AUX)
    Blend: AUG-CC-PVTZ-JKFIT
	 Reference Energy          =    -250.6449360611258896 [Eh]
	 Singles Energy            =      -0.0000000000000000 [Eh]
	 Same-Spin Energy          =      -0.2617753827954646 [Eh]
	 Opposite-Spin Energy      =      -0.9384635627077811 [Eh]
	 Correlation Energy        =      -1.2002389455032456 [Eh]
	 Total Energy              =    -251.8451750066291481 [Eh]

	 ================> DF-SCS-MP2 Energies <==================
	-----------------------------------------------------------
	 SCS Same-Spin Scale       =       0.3333333333333333 [-]
	 SCS Opposite-Spin Scale   =       1.2000000000000000 [-]
	 SCS Same-Spin Energy      =      -0.0872584609318215 [Eh]
	 SCS Opposite-Spin Energy  =      -1.1261562752493373 [Eh]
	 SCS Correlation Energy    =      -1.2134147361811587 [Eh]
	 SCS Total Energy          =    -251.8583507973070539 [Eh]
	-----------------------------------------------------------

  Dipole Moment: [D]
     X:    -4.2270      Y:    -1.8892      Z:    -0.0265     Total:     4.6300

*** Psi4 exiting successfully. Buy a developer a beer!
