                               Psi4 1.4a3.dev225

  ==> Input File <==

--------------------------------------------------------------------------
#psi4
#
memory 32 gb

molecule  {
1 1
  N       -1.4684160    -0.7256290     0.0168660
  C        0.7789870     0.0252000    -0.3750600
  C       -0.0143940    -1.1774380     0.1210740
  C       -0.0289190     1.1951300     0.1928770
  C       -1.4778980     0.8076670    -0.0707360
  C        2.2387250    -0.0120120     0.0592990
  H        0.7264100     0.0548870    -1.4716460
  H        0.1145000    -2.0977020    -0.4513780
  H        0.1860930    -1.3741010     1.1771840
  H        0.2151160     2.1494100    -0.2804030
  H        0.1583560     1.2945460     1.2678570
  H       -2.0155250    -1.0560110     0.8205780
  H       -1.9143950    -1.1326260    -0.8134590
  H       -2.1605553     1.1636617     0.7015832
  H       -1.7986400     1.0658470    -1.0809590
  H        2.7502970    -0.8896260    -0.3442510
  H        2.7625990     0.8753680    -0.3028200
  H        2.3187760    -0.0349210     1.1503390
units angstrom
no_reorient  #important for SAPT in psi4, default
symmetry c1  #important for SAPT in psi4, default
}

set PROPERTIES_ORIGIN ["COM"]
properties('MP2/aug-cc-pvtz', properties = ['dipole'])
--------------------------------------------------------------------------

    Molecular point group: c1
  Charge       = 1
  Multiplicity = 1
  Basis Set: AUG-CC-PVTZ
    Blend: AUG-CC-PVTZ
  Basis Set: (AUG-CC-PVTZ AUX)
    Blend: AUG-CC-PVTZ-JKFIT

    Orbital Energies [Eh]
    ---------------------

    Doubly Occupied:

       1A    -15.865020     2A    -11.464197     3A    -11.459766
       4A    -11.402886     5A    -11.396302     6A    -11.359488
       7A     -1.492740     8A     -1.265011     9A     -1.194392
      10A     -1.098842    11A     -1.022813    12A     -0.975506
      13A     -0.935299    14A     -0.890621    15A     -0.827863
      16A     -0.795959    17A     -0.751504    18A     -0.738847
      19A     -0.712042    20A     -0.703754    21A     -0.681274
      22A     -0.654028    23A     -0.638572    24A     -0.628776

  @DF-RHF Final Energy:  -250.65627689052246

   => Energetics <=

    Nuclear Repulsion Energy =            265.9564638442328146
    One-Electron Energy =                -855.3144762916889476
    Two-Electron Energy =                 338.7017355569336132
    Total Energy =                       -250.6562768905224630
  Basis Set: (AUG-CC-PVTZ AUX)
    Blend: AUG-CC-PVTZ-RI
    Molecular point group: c1

    Geometry (in Angstrom), charge = 1, multiplicity = 1:

       Center              X                  Y                   Z               Mass
    ------------   -----------------  -----------------  -----------------  -----------------
         N           -1.453888370431    -0.724704538910     0.019872321087    14.003074004430
         C            0.793514629569     0.026124461090    -0.372053678913    12.000000000000
         C            0.000133629569    -1.176513538910     0.124080321087    12.000000000000
         C           -0.014391370431     1.196054461090     0.195883321087    12.000000000000
         C           -1.463370370431     0.808591461090    -0.067729678913    12.000000000000
         C            2.253252629569    -0.011087538910     0.062305321087    12.000000000000
         H            0.740937629569     0.055811461090    -1.468639678913     1.007825032230
         H            0.129027629569    -2.096777538910    -0.448371678913     1.007825032230
         H            0.200620629569    -1.373176538910     1.180190321087     1.007825032230
         H            0.229643629569     2.150334461090    -0.277396678913     1.007825032230
         H            0.172883629569     1.295470461090     1.270863321087     1.007825032230
         H           -2.000997370431    -1.055086538910     0.823584321087     1.007825032230
         H           -1.899867370431    -1.131701538910    -0.810452678913     1.007825032230
         H           -2.146027670431     1.164586161090     0.704589521087     1.007825032230
         H           -1.784112370431     1.066771461090    -1.077952678913     1.007825032230
         H            2.764824629569    -0.888701538910    -0.341244678913     1.007825032230
         H            2.777126629569     0.876292461090    -0.299813678913     1.007825032230
         H            2.333303629569    -0.033996538910     1.153345321087     1.007825032230

  Basis Set: AUG-CC-PVTZ
    Blend: AUG-CC-PVTZ
  Basis Set: (AUG-CC-PVTZ AUX)
    Blend: AUG-CC-PVTZ-JKFIT
	 Reference Energy          =    -250.6562768905224630 [Eh]
	 Singles Energy            =      -0.0000000000000000 [Eh]
	 Same-Spin Energy          =      -0.2611386303615267 [Eh]
	 Opposite-Spin Energy      =      -0.9375511053824579 [Eh]
	 Correlation Energy        =      -1.1986897357439847 [Eh]
	 Total Energy              =    -251.8549666262664459 [Eh]

	 ================> DF-SCS-MP2 Energies <==================
	-----------------------------------------------------------
	 SCS Same-Spin Scale       =       0.3333333333333333 [-]
	 SCS Opposite-Spin Scale   =       1.2000000000000000 [-]
	 SCS Same-Spin Energy      =      -0.0870462101205089 [Eh]
	 SCS Opposite-Spin Energy  =      -1.1250613264589495 [Eh]
	 SCS Correlation Energy    =      -1.2121075365794585 [Eh]
	 SCS Total Energy          =    -251.8683844271019154 [Eh]
	-----------------------------------------------------------

  Dipole Moment: [D]
     X:    -4.2017      Y:    -1.8712      Z:    -0.0049     Total:     4.5995

*** Psi4 exiting successfully. Buy a developer a beer!
