                               Psi4 1.4a3.dev225

  ==> Input File <==

--------------------------------------------------------------------------
#psi4
#
memory 32 gb

molecule  {
1 1
  N       -1.4684160    -0.7256290     0.0168660
  C        0.7789870     0.0252000    -0.3750600
  C       -0.0143940    -1.1774380     0.1210740
  C       -0.0289190     1.1951300     0.1928770
  C       -1.4778980     0.8076670    -0.0707360
  C        2.1852463    -0.0150048     0.2094962
  H        0.7264100     0.0548870    -1.4716460
  H        0.1145000    -2.0977020    -0.4513780
  H        0.1860930    -1.3741010     1.1771840
  H        0.2151160     2.1494100    -0.2804030
  H        0.1583560     1.2945460     1.2678570
  H       -2.0155250    -1.0560110     0.8205780
  H       -1.9143950    -1.1326260    -0.8134590
  H       -2.2036780     1.1930490     0.6461700
  H       -1.7986400     1.0658470    -1.0809590
  H        2.7502970    -0.8896260    -0.3442510
  H        2.7625990     0.8753680    -0.3028200
  H        2.3187760    -0.0349210     1.1503390
units angstrom
no_reorient  #important for SAPT in psi4, default
symmetry c1  #important for SAPT in psi4, default
}

set PROPERTIES_ORIGIN ["COM"]
properties('MP2/aug-cc-pvtz', properties = ['dipole'])
--------------------------------------------------------------------------

    Molecular point group: c1
  Charge       = 1
  Multiplicity = 1
  Basis Set: AUG-CC-PVTZ
    Blend: AUG-CC-PVTZ
  Basis Set: (AUG-CC-PVTZ AUX)
    Blend: AUG-CC-PVTZ-JKFIT

    Orbital Energies [Eh]
    ---------------------

    Doubly Occupied:

       1A    -15.864647     2A    -11.463133     3A    -11.459167
       4A    -11.405522     5A    -11.395977     6A    -11.362797
       7A     -1.492272     8A     -1.267250     9A     -1.194257
      10A     -1.099010    11A     -1.024285    12A     -0.978228
      13A     -0.937546    14A     -0.894498    15A     -0.826981
      16A     -0.792047    17A     -0.754162    18A     -0.747415
      19A     -0.721010    20A     -0.695499    21A     -0.691515
      22A     -0.657095    23A     -0.634443    24A     -0.603625

  @DF-RHF Final Energy:  -250.62437064126345

   => Energetics <=

    Nuclear Repulsion Energy =            266.3950358961986353
    One-Electron Energy =                -856.1140529555914327
    Two-Electron Energy =                 339.0946464181294004
    Total Energy =                       -250.6243706412634538
  Basis Set: (AUG-CC-PVTZ AUX)
    Blend: AUG-CC-PVTZ-RI
    Molecular point group: c1

    Geometry (in Angstrom), charge = 1, multiplicity = 1:

       Center              X                  Y                   Z               Mass
    ------------   -----------------  -----------------  -----------------  -----------------
         N           -1.445929849921    -0.724631408077    -0.000413172129    14.003074004430
         C            0.801473150079     0.026197591923    -0.392339172129    12.000000000000
         C            0.008092150079    -1.176440408077     0.103794827871    12.000000000000
         C           -0.006432849921     1.196127591923     0.175597827871    12.000000000000
         C           -1.455411849921     0.808664591923    -0.088015172129    12.000000000000
         C            2.207732450079    -0.014007208077     0.192217027871    12.000000000000
         H            0.748896150079     0.055884591923    -1.488925172129     1.007825032230
         H            0.136986150079    -2.096704408077    -0.468657172129     1.007825032230
         H            0.208579150079    -1.373103408077     1.159904827871     1.007825032230
         H            0.237602150079     2.150407591923    -0.297682172129     1.007825032230
         H            0.180842150079     1.295543591923     1.250577827871     1.007825032230
         H           -1.993038849921    -1.055013408077     0.803298827871     1.007825032230
         H           -1.891908849921    -1.131628408077    -0.830738172129     1.007825032230
         H           -2.181191849921     1.194046591923     0.628890827871     1.007825032230
         H           -1.776153849921     1.066844591923    -1.098238172129     1.007825032230
         H            2.772783150079    -0.888628408077    -0.361530172129     1.007825032230
         H            2.785085150079     0.876365591923    -0.320099172129     1.007825032230
         H            2.341262150079    -0.033923408077     1.133059827871     1.007825032230

  Basis Set: AUG-CC-PVTZ
    Blend: AUG-CC-PVTZ
  Basis Set: (AUG-CC-PVTZ AUX)
    Blend: AUG-CC-PVTZ-JKFIT
	 Reference Energy          =    -250.6243706412634538 [Eh]
	 Singles Energy            =      -0.0000000000000000 [Eh]
	 Same-Spin Energy          =      -0.2617031225627761 [Eh]
	 Opposite-Spin Energy      =      -0.9390797238564447 [Eh]
	 Correlation Energy        =      -1.2007828464192207 [Eh]
	 Total Energy              =    -251.8251534876826838 [Eh]

	 ================> DF-SCS-MP2 Energies <==================
	-----------------------------------------------------------
	 SCS Same-Spin Scale       =       0.3333333333333333 [-]
	 SCS Opposite-Spin Scale   =       1.2000000000000000 [-]
	 SCS Same-Spin Energy      =      -0.0872343741875920 [Eh]
	 SCS Opposite-Spin Energy  =      -1.1268956686277336 [Eh]
	 SCS Correlation Energy    =      -1.2141300428153257 [Eh]
	 SCS Total Energy          =    -251.8385006840787810 [Eh]
	-----------------------------------------------------------

  Dipole Moment: [D]
     X:    -4.2014      Y:    -1.8555      Z:    -0.1069     Total:     4.5942

*** Psi4 exiting successfully. Buy a developer a beer!
