                               Psi4 1.4a3.dev225

  ==> Input File <==

--------------------------------------------------------------------------
#psi4
#
memory 32 gb

molecule  {
1 1
  N       -1.4684160    -0.7256290     0.0168660
  C        0.7789870     0.0252000    -0.3750600
  C       -0.0143940    -1.1774380     0.1210740
  C       -0.0289190     1.1951300     0.1928770
  C       -1.4778980     0.8076670    -0.0707360
  C        2.2387250    -0.0120120     0.0592990
  H        0.7264100     0.0548870    -1.4716460
  H        0.1145000    -2.0977020    -0.4513780
  H        0.1860930    -1.3741010     1.1771840
  H        0.2151160     2.1494100    -0.2804030
  H        0.1583560     1.2945460     1.2678570
  H       -2.0155250    -1.0560110     0.8205780
  H       -1.9143950    -1.1326260    -0.8134590
  H       -2.2036780     1.1930490     0.6461700
  H       -1.7986400     1.0658470    -1.0809590
  H        2.7989026    -0.8420700    -0.3788444
  H        2.7625990     0.8753680    -0.3028200
  H        2.3187760    -0.0349210     1.1503390
units angstrom
no_reorient  #important for SAPT in psi4, default
symmetry c1  #important for SAPT in psi4, default
}

set PROPERTIES_ORIGIN ["COM"]
properties('MP2/aug-cc-pvtz', properties = ['dipole'])
--------------------------------------------------------------------------

    Molecular point group: c1
  Charge       = 1
  Multiplicity = 1
  Basis Set: AUG-CC-PVTZ
    Blend: AUG-CC-PVTZ
  Basis Set: (AUG-CC-PVTZ AUX)
    Blend: AUG-CC-PVTZ-JKFIT

    Orbital Energies [Eh]
    ---------------------

    Doubly Occupied:

       1A    -15.865552     2A    -11.463937     3A    -11.459889
       4A    -11.403550     5A    -11.396983     6A    -11.359219
       7A     -1.492680     8A     -1.264962     9A     -1.193923
      10A     -1.098969    11A     -1.023781    12A     -0.974998
      13A     -0.935309    14A     -0.892564    15A     -0.828498
      16A     -0.791709    17A     -0.753803    18A     -0.737609
      19A     -0.712631    20A     -0.701842    21A     -0.680288
      22A     -0.657058    23A     -0.638180    24A     -0.627745

  @DF-RHF Final Energy:  -250.65632724030661

   => Energetics <=

    Nuclear Repulsion Energy =            265.8162427984120768
    One-Electron Energy =                -855.0337822657290872
    Two-Electron Energy =                 338.5612122270104010
    Total Energy =                       -250.6563272403066094
  Basis Set: (AUG-CC-PVTZ AUX)
    Blend: AUG-CC-PVTZ-RI
    Molecular point group: c1

    Geometry (in Angstrom), charge = 1, multiplicity = 1:

       Center              X                  Y                   Z               Mass
    ------------   -----------------  -----------------  -----------------  -----------------
         N           -1.453952551593    -0.725605213810     0.020925911009    14.003074004430
         C            0.793450448407     0.025223786190    -0.371000088991    12.000000000000
         C            0.000069448407    -1.177414213810     0.125133911009    12.000000000000
         C           -0.014455551593     1.195153786190     0.196936911009    12.000000000000
         C           -1.463434551593     0.807690786190    -0.066676088991    12.000000000000
         C            2.253188448407    -0.011988213810     0.063358911009    12.000000000000
         H            0.740873448407     0.054910786190    -1.467586088991     1.007825032230
         H            0.128963448407    -2.097678213810    -0.447318088991     1.007825032230
         H            0.200556448407    -1.374077213810     1.181243911009     1.007825032230
         H            0.229579448407     2.149433786190    -0.276343088991     1.007825032230
         H            0.172819448407     1.294569786190     1.271916911009     1.007825032230
         H           -2.001061551593    -1.055987213810     0.824637911009     1.007825032230
         H           -1.899931551593    -1.132602213810    -0.809399088991     1.007825032230
         H           -2.189214551593     1.193072786190     0.650229911009     1.007825032230
         H           -1.784176551593     1.065870786190    -1.076899088991     1.007825032230
         H            2.813366048407    -0.842046213810    -0.374784488991     1.007825032230
         H            2.777062448407     0.875391786190    -0.298760088991     1.007825032230
         H            2.333239448407    -0.034897213810     1.154398911009     1.007825032230

  Basis Set: AUG-CC-PVTZ
    Blend: AUG-CC-PVTZ
  Basis Set: (AUG-CC-PVTZ AUX)
    Blend: AUG-CC-PVTZ-JKFIT
	 Reference Energy          =    -250.6563272403066094 [Eh]
	 Singles Energy            =      -0.0000000000000000 [Eh]
	 Same-Spin Energy          =      -0.2611206657612701 [Eh]
	 Opposite-Spin Energy      =      -0.9373893216331832 [Eh]
	 Correlation Energy        =      -1.1985099873944534 [Eh]
	 Total Energy              =    -251.8548372277010685 [Eh]

	 ================> DF-SCS-MP2 Energies <==================
	-----------------------------------------------------------
	 SCS Same-Spin Scale       =       0.3333333333333333 [-]
	 SCS Opposite-Spin Scale   =       1.2000000000000000 [-]
	 SCS Same-Spin Energy      =      -0.0870402219204234 [Eh]
	 SCS Opposite-Spin Energy  =      -1.1248671859598198 [Eh]
	 SCS Correlation Energy    =      -1.2119074078802432 [Eh]
	 SCS Total Energy          =    -251.8682346481868422 [Eh]
	-----------------------------------------------------------

  Dipole Moment: [D]
     X:    -4.2071      Y:    -1.8570      Z:    -0.0341     Total:     4.5988

*** Psi4 exiting successfully. Buy a developer a beer!
