                               Psi4 1.4a3.dev225

  ==> Input File <==

--------------------------------------------------------------------------
#psi4
#
memory 32 gb

molecule  {
1 1
  N       -1.4684160    -0.7256290     0.0168660
  C        0.7573171     0.0184743    -0.4231652
  C       -0.0143940    -1.1774380     0.1210740
  C       -0.0289190     1.1951300     0.1928770
  C       -1.4778980     0.8076670    -0.0707360
  C        2.2387250    -0.0120120     0.0592990
  H        0.7264100     0.0548870    -1.4716460
  H        0.1145000    -2.0977020    -0.4513780
  H        0.1860930    -1.3741010     1.1771840
  H        0.2151160     2.1494100    -0.2804030
  H        0.1583560     1.2945460     1.2678570
  H       -2.0155250    -1.0560110     0.8205780
  H       -1.9143950    -1.1326260    -0.8134590
  H       -2.2036780     1.1930490     0.6461700
  H       -1.7986400     1.0658470    -1.0809590
  H        2.7502970    -0.8896260    -0.3442510
  H        2.7625990     0.8753680    -0.3028200
  H        2.3187760    -0.0349210     1.1503390
units angstrom
no_reorient  #important for SAPT in psi4, default
symmetry c1  #important for SAPT in psi4, default
}

set PROPERTIES_ORIGIN ["COM"]
properties('MP2/aug-cc-pvtz', properties = ['dipole'])
--------------------------------------------------------------------------

    Molecular point group: c1
  Charge       = 1
  Multiplicity = 1
  Basis Set: AUG-CC-PVTZ
    Blend: AUG-CC-PVTZ
  Basis Set: (AUG-CC-PVTZ AUX)
    Blend: AUG-CC-PVTZ-JKFIT

    Orbital Energies [Eh]
    ---------------------

    Doubly Occupied:

       1A    -15.864547     2A    -11.462761     3A    -11.460223
       4A    -11.401012     5A    -11.396994     6A    -11.360854
       7A     -1.492298     8A     -1.261998     9A     -1.193000
      10A     -1.094086    11A     -1.021567    12A     -0.979683
      13A     -0.936626    14A     -0.893663    15A     -0.827616
      16A     -0.792408    17A     -0.752437    18A     -0.736866
      19A     -0.711986    20A     -0.702367    21A     -0.679308
      22A     -0.652203    23A     -0.644666    24A     -0.625959

  @DF-RHF Final Energy:  -250.65396957651174

   => Energetics <=

    Nuclear Repulsion Energy =            265.6576807145661405
    One-Electron Energy =                -854.7330472648021669
    Two-Electron Energy =                 338.4213969737243133
    Total Energy =                       -250.6539695765117131
  Basis Set: (AUG-CC-PVTZ AUX)
    Blend: AUG-CC-PVTZ-RI
    Molecular point group: c1

    Geometry (in Angstrom), charge = 1, multiplicity = 1:

       Center              X                  Y                   Z               Mass
    ------------   -----------------  -----------------  -----------------  -----------------
         N           -1.450363287945    -0.724111124986     0.027225764278    14.003074004430
         C            0.775369812055     0.019992175014    -0.412805435722    12.000000000000
         C            0.003658712055    -1.175920124986     0.131433764278    12.000000000000
         C           -0.010866287945     1.196647875014     0.203236764278    12.000000000000
         C           -1.459845287945     0.809184875014    -0.060376235722    12.000000000000
         C            2.256777712055    -0.010494124986     0.069658764278    12.000000000000
         H            0.744462712055     0.056404875014    -1.461286235722     1.007825032230
         H            0.132552712055    -2.096184124986    -0.441018235722     1.007825032230
         H            0.204145712055    -1.372583124986     1.187543764278     1.007825032230
         H            0.233168712055     2.150927875014    -0.270043235722     1.007825032230
         H            0.176408712055     1.296063875014     1.278216764278     1.007825032230
         H           -1.997472287945    -1.054493124986     0.830937764278     1.007825032230
         H           -1.896342287945    -1.131108124986    -0.803099235722     1.007825032230
         H           -2.185625287945     1.194566875014     0.656529764278     1.007825032230
         H           -1.780587287945     1.067364875014    -1.070599235722     1.007825032230
         H            2.768349712055    -0.888108124986    -0.333891235722     1.007825032230
         H            2.780651712055     0.876885875014    -0.292460235722     1.007825032230
         H            2.336828712055    -0.033403124986     1.160698764278     1.007825032230

  Basis Set: AUG-CC-PVTZ
    Blend: AUG-CC-PVTZ
  Basis Set: (AUG-CC-PVTZ AUX)
    Blend: AUG-CC-PVTZ-JKFIT
	 Reference Energy          =    -250.6539695765117415 [Eh]
	 Singles Energy            =      -0.0000000000000000 [Eh]
	 Same-Spin Energy          =      -0.2609601597716029 [Eh]
	 Opposite-Spin Energy      =      -0.9373728712996320 [Eh]
	 Correlation Energy        =      -1.1983330310712348 [Eh]
	 Total Energy              =    -251.8523026075829705 [Eh]

	 ================> DF-SCS-MP2 Energies <==================
	-----------------------------------------------------------
	 SCS Same-Spin Scale       =       0.3333333333333333 [-]
	 SCS Opposite-Spin Scale   =       1.2000000000000000 [-]
	 SCS Same-Spin Energy      =      -0.0869867199238676 [Eh]
	 SCS Opposite-Spin Energy  =      -1.1248474455595583 [Eh]
	 SCS Correlation Energy    =      -1.2118341654834259 [Eh]
	 SCS Total Energy          =    -251.8658037419951654 [Eh]
	-----------------------------------------------------------

  Dipole Moment: [D]
     X:    -4.1955      Y:    -1.8655      Z:     0.0028     Total:     4.5915

*** Psi4 exiting successfully. Buy a developer a beer!
