                               Psi4 1.4a3.dev225

  ==> Input File <==

--------------------------------------------------------------------------
#psi4
#
memory 32 gb

molecule  {
1 1
  N       -1.4684160    -0.7256290     0.0168660
  C        0.7789870     0.0252000    -0.3750600
  C       -0.0143940    -1.1774380     0.1210740
  C       -0.0289190     1.1951300     0.1928770
  C       -1.4778980     0.8076670    -0.0707360
  C        2.2387250    -0.0120120     0.0592990
  H        0.7264100     0.0548870    -1.4716460
  H        0.1145000    -2.0977020    -0.4513780
  H        0.1860930    -1.3741010     1.1771840
  H        0.2151160     2.1494100    -0.2804030
  H        0.1583560     1.2945460     1.2678570
  H       -2.0155250    -1.0560110     0.8205780
  H       -1.9143950    -1.1326260    -0.8134590
  H       -2.1371243     1.1577097     0.5804301
  H       -1.7986400     1.0658470    -1.0809590
  H        2.7502970    -0.8896260    -0.3442510
  H        2.7625990     0.8753680    -0.3028200
  H        2.3187760    -0.0349210     1.1503390
units angstrom
no_reorient  #important for SAPT in psi4, default
symmetry c1  #important for SAPT in psi4, default
}

set PROPERTIES_ORIGIN ["COM"]
properties('MP2/aug-cc-pvtz', properties = ['dipole'])
--------------------------------------------------------------------------

    Molecular point group: c1
  Charge       = 1
  Multiplicity = 1
  Basis Set: AUG-CC-PVTZ
    Blend: AUG-CC-PVTZ
  Basis Set: (AUG-CC-PVTZ AUX)
    Blend: AUG-CC-PVTZ-JKFIT

    Orbital Energies [Eh]
    ---------------------

    Doubly Occupied:

       1A    -15.865371     2A    -11.459924     3A    -11.453014
       4A    -11.402808     5A    -11.396368     6A    -11.359368
       7A     -1.493143     8A     -1.264999     9A     -1.200566
      10A     -1.098808    11A     -1.031668    12A     -0.975787
      13A     -0.935185    14A     -0.897293    15A     -0.827808
      16A     -0.798984    17A     -0.759923    18A     -0.740725
      19A     -0.711908    20A     -0.703395    21A     -0.682216
      22A     -0.654815    23A     -0.638420    24A     -0.630243

  @DF-RHF Final Energy:  -250.65104973751690

   => Energetics <=

    Nuclear Repulsion Energy =            266.3958407398090458
    One-Electron Energy =                -856.1283016993339743
    Two-Electron Energy =                 339.0814112220080005
    Total Energy =                       -250.6510497375169280
  Basis Set: (AUG-CC-PVTZ AUX)
    Blend: AUG-CC-PVTZ-RI
    Molecular point group: c1

    Geometry (in Angstrom), charge = 1, multiplicity = 1:

       Center              X                  Y                   Z               Mass
    ------------   -----------------  -----------------  -----------------  -----------------
         N           -1.454162646601    -0.724634866606     0.021290502478    14.003074004430
         C            0.793240353399     0.026194133394    -0.370635497522    12.000000000000
         C           -0.000140646601    -1.176443866606     0.125498502478    12.000000000000
         C           -0.014665646601     1.196124133394     0.197301502478    12.000000000000
         C           -1.463644646601     0.808661133394    -0.066311497522    12.000000000000
         C            2.252978353399    -0.011017866606     0.063723502478    12.000000000000
         H            0.740663353399     0.055881133394    -1.467221497522     1.007825032230
         H            0.128753353399    -2.096707866606    -0.446953497522     1.007825032230
         H            0.200346353399    -1.373106866606     1.181608502478     1.007825032230
         H            0.229369353399     2.150404133394    -0.275978497522     1.007825032230
         H            0.172609353399     1.295540133394     1.272281502478     1.007825032230
         H           -2.001271646601    -1.055016866606     0.825002502478     1.007825032230
         H           -1.900141646601    -1.131631866606    -0.809034497522     1.007825032230
         H           -2.122870946601     1.158703833394     0.584854602478     1.007825032230
         H           -1.784386646601     1.066841133394    -1.076534497522     1.007825032230
         H            2.764550353399    -0.888631866606    -0.339826497522     1.007825032230
         H            2.776852353399     0.876362133394    -0.298395497522     1.007825032230
         H            2.333029353399    -0.033926866606     1.154763502478     1.007825032230

  Basis Set: AUG-CC-PVTZ
    Blend: AUG-CC-PVTZ
  Basis Set: (AUG-CC-PVTZ AUX)
    Blend: AUG-CC-PVTZ-JKFIT
	 Reference Energy          =    -250.6510497375168995 [Eh]
	 Singles Energy            =      -0.0000000000000000 [Eh]
	 Same-Spin Energy          =      -0.2609939030616363 [Eh]
	 Opposite-Spin Energy      =      -0.9367742811370285 [Eh]
	 Correlation Energy        =      -1.1977681841986647 [Eh]
	 Total Energy              =    -251.8488179217155505 [Eh]

	 ================> DF-SCS-MP2 Energies <==================
	-----------------------------------------------------------
	 SCS Same-Spin Scale       =       0.3333333333333333 [-]
	 SCS Opposite-Spin Scale   =       1.2000000000000000 [-]
	 SCS Same-Spin Energy      =      -0.0869979676872121 [Eh]
	 SCS Opposite-Spin Energy  =      -1.1241291373644342 [Eh]
	 SCS Correlation Energy    =      -1.2111271050516463 [Eh]
	 SCS Total Energy          =    -251.8621768425685445 [Eh]
	-----------------------------------------------------------

  Dipole Moment: [D]
     X:    -4.2295      Y:    -1.8719      Z:    -0.0253     Total:     4.6253

*** Psi4 exiting successfully. Buy a developer a beer!
