                               Psi4 1.4a3.dev225

  ==> Input File <==

--------------------------------------------------------------------------
#psi4
#
memory 32 gb

molecule  {
1 1
  N       -1.4684160    -0.7256290     0.0168660
  C        0.7789870     0.0252000    -0.3750600
  C       -0.0143940    -1.1774380     0.1210740
  C       -0.0289190     1.1951300     0.1928770
  C       -1.4778980     0.8076670    -0.0707360
  C        2.2048169    -0.0140546     0.1600621
  H        0.7264100     0.0548870    -1.4716460
  H        0.1145000    -2.0977020    -0.4513780
  H        0.1860930    -1.3741010     1.1771840
  H        0.2151160     2.1494100    -0.2804030
  H        0.1583560     1.2945460     1.2678570
  H       -2.0155250    -1.0560110     0.8205780
  H       -1.9143950    -1.1326260    -0.8134590
  H       -2.2036780     1.1930490     0.6461700
  H       -1.7986400     1.0658470    -1.0809590
  H        2.7502970    -0.8896260    -0.3442510
  H        2.7625990     0.8753680    -0.3028200
  H        2.3187760    -0.0349210     1.1503390
units angstrom
no_reorient  #important for SAPT in psi4, default
symmetry c1  #important for SAPT in psi4, default
}

set PROPERTIES_ORIGIN ["COM"]
properties('MP2/aug-cc-pvtz', properties = ['dipole'])
--------------------------------------------------------------------------

    Molecular point group: c1
  Charge       = 1
  Multiplicity = 1
  Basis Set: AUG-CC-PVTZ
    Blend: AUG-CC-PVTZ
  Basis Set: (AUG-CC-PVTZ AUX)
    Blend: AUG-CC-PVTZ-JKFIT

    Orbital Energies [Eh]
    ---------------------

    Doubly Occupied:

       1A    -15.864903     2A    -11.463294     3A    -11.459342
       4A    -11.404201     5A    -11.396103     6A    -11.360854
       7A     -1.492333     8A     -1.266260     9A     -1.194047
      10A     -1.098269    11A     -1.023862    12A     -0.976626
      13A     -0.936212    14A     -0.893366    15A     -0.827355
      16A     -0.791815    17A     -0.753680    18A     -0.740256
      19A     -0.719826    20A     -0.696699    21A     -0.689321
      22A     -0.653649    23A     -0.640661    24A     -0.613819

  @DF-RHF Final Energy:  -250.64296445577384

   => Energetics <=

    Nuclear Repulsion Energy =            266.2075701912849581
    One-Electron Energy =                -855.7875631966643368
    Two-Electron Energy =                 338.9370285496055430
    Total Energy =                       -250.6429644557738357
  Basis Set: (AUG-CC-PVTZ AUX)
    Blend: AUG-CC-PVTZ-RI
    Molecular point group: c1

    Geometry (in Angstrom), charge = 1, multiplicity = 1:

       Center              X                  Y                   Z               Mass
    ------------   -----------------  -----------------  -----------------  -----------------
         N           -1.448657555531    -0.724763844787     0.006476840025    14.003074004430
         C            0.798745444469     0.026065155213    -0.385449159975    12.000000000000
         C            0.005364444469    -1.176572844787     0.110684840025    12.000000000000
         C           -0.009160555531     1.195995155213     0.182487840025    12.000000000000
         C           -1.458139555531     0.808532155213    -0.081125159975    12.000000000000
         C            2.224575344469    -0.013189444787     0.149672940025    12.000000000000
         H            0.746168444469     0.055752155213    -1.482035159975     1.007825032230
         H            0.134258444469    -2.096836844787    -0.461767159975     1.007825032230
         H            0.205851444469    -1.373235844787     1.166794840025     1.007825032230
         H            0.234874444469     2.150275155213    -0.290792159975     1.007825032230
         H            0.178114444469     1.295411155213     1.257467840025     1.007825032230
         H           -1.995766555531    -1.055145844787     0.810188840025     1.007825032230
         H           -1.894636555531    -1.131760844787    -0.823848159975     1.007825032230
         H           -2.183919555531     1.193914155213     0.635780840025     1.007825032230
         H           -1.778881555531     1.066712155213    -1.091348159975     1.007825032230
         H            2.770055444469    -0.888760844787    -0.354640159975     1.007825032230
         H            2.782357444469     0.876233155213    -0.313209159975     1.007825032230
         H            2.338534444469    -0.034055844787     1.139949840025     1.007825032230

  Basis Set: AUG-CC-PVTZ
    Blend: AUG-CC-PVTZ
  Basis Set: (AUG-CC-PVTZ AUX)
    Blend: AUG-CC-PVTZ-JKFIT
	 Reference Energy          =    -250.6429644557738357 [Eh]
	 Singles Energy            =      -0.0000000000000000 [Eh]
	 Same-Spin Energy          =      -0.2613950049831942 [Eh]
	 Opposite-Spin Energy      =      -0.9381901237772773 [Eh]
	 Correlation Energy        =      -1.1995851287604715 [Eh]
	 Total Energy              =    -251.8425495845343107 [Eh]

	 ================> DF-SCS-MP2 Energies <==================
	-----------------------------------------------------------
	 SCS Same-Spin Scale       =       0.3333333333333333 [-]
	 SCS Opposite-Spin Scale   =       1.2000000000000000 [-]
	 SCS Same-Spin Energy      =      -0.0871316683277314 [Eh]
	 SCS Opposite-Spin Energy  =      -1.1258281485327326 [Eh]
	 SCS Correlation Energy    =      -1.2129598168604641 [Eh]
	 SCS Total Energy          =    -251.8559242726342973 [Eh]
	-----------------------------------------------------------

  Dipole Moment: [D]
     X:    -4.2015      Y:    -1.8604      Z:    -0.0685     Total:     4.5955

*** Psi4 exiting successfully. Buy a developer a beer!
