                               Psi4 1.4a3.dev225

  ==> Input File <==

--------------------------------------------------------------------------
#psi4
#
memory 32 gb

molecule  {
1 1
  N       -1.4684160    -0.7256290     0.0168660
  C        0.7789870     0.0252000    -0.3750600
  C       -0.0143940    -1.1774380     0.1210740
  C       -0.0289190     1.1951300     0.1928770
  C       -1.4303243     0.8203884    -0.0620809
  C        2.2387250    -0.0120120     0.0592990
  H        0.7264100     0.0548870    -1.4716460
  H        0.1145000    -2.0977020    -0.4513780
  H        0.1860930    -1.3741010     1.1771840
  H        0.2151160     2.1494100    -0.2804030
  H        0.1583560     1.2945460     1.2678570
  H       -2.0155250    -1.0560110     0.8205780
  H       -1.9143950    -1.1326260    -0.8134590
  H       -2.2036780     1.1930490     0.6461700
  H       -1.7986400     1.0658470    -1.0809590
  H        2.7502970    -0.8896260    -0.3442510
  H        2.7625990     0.8753680    -0.3028200
  H        2.3187760    -0.0349210     1.1503390
units angstrom
no_reorient  #important for SAPT in psi4, default
symmetry c1  #important for SAPT in psi4, default
}

set PROPERTIES_ORIGIN ["COM"]
properties('MP2/aug-cc-pvtz', properties = ['dipole'])
--------------------------------------------------------------------------

    Molecular point group: c1
  Charge       = 1
  Multiplicity = 1
  Basis Set: AUG-CC-PVTZ
    Blend: AUG-CC-PVTZ
  Basis Set: (AUG-CC-PVTZ AUX)
    Blend: AUG-CC-PVTZ-JKFIT

    Orbital Energies [Eh]
    ---------------------

    Doubly Occupied:

       1A    -15.863975     2A    -11.466729     3A    -11.459525
       4A    -11.403794     5A    -11.394441     6A    -11.359758
       7A     -1.490702     8A     -1.269732     9A     -1.197349
      10A     -1.099272    11A     -1.020910    12A     -0.974810
      13A     -0.935080    14A     -0.891097    15A     -0.828553
      16A     -0.789273    17A     -0.747833    18A     -0.746165
      19A     -0.711880    20A     -0.708665    21A     -0.673993
      22A     -0.657048    23A     -0.639616    24A     -0.629697

  @DF-RHF Final Energy:  -250.65358140692229

   => Energetics <=

    Nuclear Repulsion Energy =            266.3991327310600354
    One-Electron Energy =                -856.1856351813615902
    Two-Electron Energy =                 339.1329210433792696
    Total Energy =                       -250.6535814069222852
  Basis Set: (AUG-CC-PVTZ AUX)
    Blend: AUG-CC-PVTZ-RI
    Molecular point group: c1

    Geometry (in Angstrom), charge = 1, multiplicity = 1:

       Center              X                  Y                   Z               Mass
    ------------   -----------------  -----------------  -----------------  -----------------
         N           -1.460014303046    -0.726821617447     0.019314643070    14.003074004430
         C            0.787388696954     0.024007382553    -0.372611356930    12.000000000000
         C           -0.005992303046    -1.178630617447     0.123522643070    12.000000000000
         C           -0.020517303046     1.193937382553     0.195325643070    12.000000000000
         C           -1.421922603046     0.819195782553    -0.059632256930    12.000000000000
         C            2.247126696954    -0.013204617447     0.061747643070    12.000000000000
         H            0.734811696954     0.053694382553    -1.469197356930     1.007825032230
         H            0.122901696954    -2.098894617447    -0.448929356930     1.007825032230
         H            0.194494696954    -1.375293617447     1.179632643070     1.007825032230
         H            0.223517696954     2.148217382553    -0.277954356930     1.007825032230
         H            0.166757696954     1.293353382553     1.270305643070     1.007825032230
         H           -2.007123303046    -1.057203617447     0.823026643070     1.007825032230
         H           -1.905993303046    -1.133818617447    -0.811010356930     1.007825032230
         H           -2.195276303046     1.191856382553     0.648618643070     1.007825032230
         H           -1.790238303046     1.064654382553    -1.078510356930     1.007825032230
         H            2.758698696954    -0.890818617447    -0.341802356930     1.007825032230
         H            2.771000696954     0.874175382553    -0.300371356930     1.007825032230
         H            2.327177696954    -0.036113617447     1.152787643070     1.007825032230

  Basis Set: AUG-CC-PVTZ
    Blend: AUG-CC-PVTZ
  Basis Set: (AUG-CC-PVTZ AUX)
    Blend: AUG-CC-PVTZ-JKFIT
	 Reference Energy          =    -250.6535814069222852 [Eh]
	 Singles Energy            =      -0.0000000000000000 [Eh]
	 Same-Spin Energy          =      -0.2615554912829982 [Eh]
	 Opposite-Spin Energy      =      -0.9378870789641446 [Eh]
	 Correlation Energy        =      -1.1994425702471427 [Eh]
	 Total Energy              =    -251.8530239771694141 [Eh]

	 ================> DF-SCS-MP2 Energies <==================
	-----------------------------------------------------------
	 SCS Same-Spin Scale       =       0.3333333333333333 [-]
	 SCS Opposite-Spin Scale   =       1.2000000000000000 [-]
	 SCS Same-Spin Energy      =      -0.0871851637609994 [Eh]
	 SCS Opposite-Spin Energy  =      -1.1254644947569734 [Eh]
	 SCS Correlation Energy    =      -1.2126496585179729 [Eh]
	 SCS Total Energy          =    -251.8662310654402461 [Eh]
	-----------------------------------------------------------

  Dipole Moment: [D]
     X:    -4.2105      Y:    -1.8358      Z:    -0.0209     Total:     4.5934

*** Psi4 exiting successfully. Buy a developer a beer!
