                               Psi4 1.4a3.dev225

  ==> Input File <==

--------------------------------------------------------------------------
#psi4
#
memory 32 gb

molecule  {
1 1
  N       -1.4684160    -0.7256290     0.0168660
  C        0.7789870     0.0252000    -0.3750600
  C       -0.0143940    -1.1774380     0.1210740
  C       -0.0289190     1.1951300     0.1928770
  C       -1.4778980     0.8076670    -0.0707360
  C        2.2387250    -0.0120120     0.0592990
  H        0.7264100     0.0548870    -1.4716460
  H        0.1145000    -2.0977020    -0.4513780
  H        0.1860930    -1.3741010     1.1771840
  H        0.2151160     2.1494100    -0.2804030
  H        0.1583560     1.2945460     1.2678570
  H       -2.0155250    -1.0560110     0.8205780
  H       -1.9143950    -1.1326260    -0.8134590
  H       -2.2036780     1.1930490     0.6461700
  H       -1.7986400     1.0658470    -1.0809590
  H        2.7502970    -0.8896260    -0.3442510
  H        2.7625990     0.8753680    -0.3028200
  H        2.3334077    -0.0391083     1.3497591
units angstrom
no_reorient  #important for SAPT in psi4, default
symmetry c1  #important for SAPT in psi4, default
}

set PROPERTIES_ORIGIN ["COM"]
properties('MP2/aug-cc-pvtz', properties = ['dipole'])
--------------------------------------------------------------------------

    Molecular point group: c1
  Charge       = 1
  Multiplicity = 1
  Basis Set: AUG-CC-PVTZ
    Blend: AUG-CC-PVTZ
  Basis Set: (AUG-CC-PVTZ AUX)
    Blend: AUG-CC-PVTZ-JKFIT

    Orbital Energies [Eh]
    ---------------------

    Doubly Occupied:

       1A    -15.865785     2A    -11.464020     3A    -11.460161
       4A    -11.405490     5A    -11.396876     6A    -11.381906
       7A     -1.492920     8A     -1.264778     9A     -1.193800
      10A     -1.091664    11A     -1.022890    12A     -0.972707
      13A     -0.932973    14A     -0.890631    15A     -0.827731
      16A     -0.791427    17A     -0.753770    18A     -0.740194
      19A     -0.706441    20A     -0.702173    21A     -0.668538
      22A     -0.657109    23A     -0.633999    24A     -0.615124

  @DF-RHF Final Energy:  -250.63697170637096

   => Energetics <=

    Nuclear Repulsion Energy =            265.1570365769803175
    One-Electron Energy =                -853.7218037319258883
    Two-Electron Energy =                 337.9277954485746136
    Total Energy =                       -250.6369717063709572
  Basis Set: (AUG-CC-PVTZ AUX)
    Blend: AUG-CC-PVTZ-RI
    Molecular point group: c1

    Geometry (in Angstrom), charge = 1, multiplicity = 1:

       Center              X                  Y                   Z               Mass
    ------------   -----------------  -----------------  -----------------  -----------------
         N           -1.453554863439    -0.724999522456     0.018186620054    14.003074004430
         C            0.793848136561     0.025829477544    -0.373739379946    12.000000000000
         C            0.000467136561    -1.176808522456     0.122394620054    12.000000000000
         C           -0.014057863439     1.195759477544     0.194197620054    12.000000000000
         C           -1.463036863439     0.808296477544    -0.069415379946    12.000000000000
         C            2.253586136561    -0.011382522456     0.060619620054    12.000000000000
         H            0.741271136561     0.055516477544    -1.470325379946     1.007825032230
         H            0.129361136561    -2.097072522456    -0.450057379946     1.007825032230
         H            0.200954136561    -1.373471522456     1.178504620054     1.007825032230
         H            0.229977136561     2.150039477544    -0.279082379946     1.007825032230
         H            0.173217136561     1.295175477544     1.269177620054     1.007825032230
         H           -2.000663863439    -1.055381522456     0.821898620054     1.007825032230
         H           -1.899533863439    -1.131996522456    -0.812138379946     1.007825032230
         H           -2.188816863439     1.193678477544     0.647490620054     1.007825032230
         H           -1.783778863439     1.066476477544    -1.079638379946     1.007825032230
         H            2.765158136561    -0.888996522456    -0.342930379946     1.007825032230
         H            2.777460136561     0.875997477544    -0.301499379946     1.007825032230
         H            2.348268836561    -0.038478822456     1.351079720054     1.007825032230

  Basis Set: AUG-CC-PVTZ
    Blend: AUG-CC-PVTZ
  Basis Set: (AUG-CC-PVTZ AUX)
    Blend: AUG-CC-PVTZ-JKFIT
	 Reference Energy          =    -250.6369717063709572 [Eh]
	 Singles Energy            =      -0.0000000000000000 [Eh]
	 Same-Spin Energy          =      -0.2611230915374236 [Eh]
	 Opposite-Spin Energy      =      -0.9389817457084839 [Eh]
	 Correlation Energy        =      -1.2001048372459076 [Eh]
	 Total Energy              =    -251.8370765436168597 [Eh]

	 ================> DF-SCS-MP2 Energies <==================
	-----------------------------------------------------------
	 SCS Same-Spin Scale       =       0.3333333333333333 [-]
	 SCS Opposite-Spin Scale   =       1.2000000000000000 [-]
	 SCS Same-Spin Energy      =      -0.0870410305124745 [Eh]
	 SCS Opposite-Spin Energy  =      -1.1267780948501807 [Eh]
	 SCS Correlation Energy    =      -1.2138191253626551 [Eh]
	 SCS Total Energy          =    -251.8507908317336046 [Eh]
	-----------------------------------------------------------

  Dipole Moment: [D]
     X:    -4.2339      Y:    -1.8610      Z:    -0.1165     Total:     4.6263

*** Psi4 exiting successfully. Buy a developer a beer!
