                               Psi4 1.4a3.dev225

  ==> Input File <==

--------------------------------------------------------------------------
#psi4
#
memory 32 gb

molecule  {
1 1
  N       -1.4684160    -0.7256290     0.0168660
  C        0.7789870     0.0252000    -0.3750600
  C       -0.0143940    -1.1774380     0.1210740
  C       -0.0289190     1.1951300     0.1928770
  C       -1.5086638     0.8090465    -0.0268572
  C        2.2387250    -0.0120120     0.0592990
  H        0.7264100     0.0548870    -1.4716460
  H        0.1145000    -2.0977020    -0.4513780
  H        0.1860930    -1.3741010     1.1771840
  H        0.2151160     2.1494100    -0.2804030
  H        0.1583560     1.2945460     1.2678570
  H       -2.0155250    -1.0560110     0.8205780
  H       -1.9143950    -1.1326260    -0.8134590
  H       -2.2036780     1.1930490     0.6461700
  H       -1.7986400     1.0658470    -1.0809590
  H        2.7502970    -0.8896260    -0.3442510
  H        2.7625990     0.8753680    -0.3028200
  H        2.3187760    -0.0349210     1.1503390
units angstrom
no_reorient  #important for SAPT in psi4, default
symmetry c1  #important for SAPT in psi4, default
}

set PROPERTIES_ORIGIN ["COM"]
properties('MP2/aug-cc-pvtz', properties = ['dipole'])
--------------------------------------------------------------------------

    Molecular point group: c1
  Charge       = 1
  Multiplicity = 1
  Basis Set: AUG-CC-PVTZ
    Blend: AUG-CC-PVTZ
  Basis Set: (AUG-CC-PVTZ AUX)
    Blend: AUG-CC-PVTZ-JKFIT

    Orbital Energies [Eh]
    ---------------------

    Doubly Occupied:

       1A    -15.866110     2A    -11.463358     3A    -11.460473
       4A    -11.403266     5A    -11.397914     6A    -11.359874
       7A     -1.492374     8A     -1.263103     9A     -1.193113
      10A     -1.098856    11A     -1.025708    12A     -0.974113
      13A     -0.935376    14A     -0.894132    15A     -0.825905
      16A     -0.791805    17A     -0.760579    18A     -0.737792
      19A     -0.711484    20A     -0.699526    21A     -0.679084
      22A     -0.653383    23A     -0.637354    24A     -0.630996

  @DF-RHF Final Energy:  -250.65356632334829

   => Energetics <=

    Nuclear Repulsion Energy =            265.5092161938231925
    One-Electron Energy =                -854.4142094232703357
    Two-Electron Energy =                 338.2514269060989136
    Total Energy =                       -250.6535663233482865
  Basis Set: (AUG-CC-PVTZ AUX)
    Blend: AUG-CC-PVTZ-RI
    Molecular point group: c1

    Geometry (in Angstrom), charge = 1, multiplicity = 1:

       Center              X                  Y                   Z               Mass
    ------------   -----------------  -----------------  -----------------  -----------------
         N           -1.449095522141    -0.725240809283     0.014405244070    14.003074004430
         C            0.798307477859     0.025588190717    -0.377520755930    12.000000000000
         C            0.004926477859    -1.177049809283     0.118613244070    12.000000000000
         C           -0.009598522141     1.195518190717     0.190416244070    12.000000000000
         C           -1.489343322141     0.809434690717    -0.029317955930    12.000000000000
         C            2.258045477859    -0.011623809283     0.056838244070    12.000000000000
         H            0.745730477859     0.055275190717    -1.474106755930     1.007825032230
         H            0.133820477859    -2.097313809283    -0.453838755930     1.007825032230
         H            0.205413477859    -1.373712809283     1.174723244070     1.007825032230
         H            0.234436477859     2.149798190717    -0.282863755930     1.007825032230
         H            0.177676477859     1.294934190717     1.265396244070     1.007825032230
         H           -1.996204522141    -1.055622809283     0.818117244070     1.007825032230
         H           -1.895074522141    -1.132237809283    -0.815919755930     1.007825032230
         H           -2.184357522141     1.193437190717     0.643709244070     1.007825032230
         H           -1.779319522141     1.066235190717    -1.083419755930     1.007825032230
         H            2.769617477859    -0.889237809283    -0.346711755930     1.007825032230
         H            2.781919477859     0.875756190717    -0.305280755930     1.007825032230
         H            2.338096477859    -0.034532809283     1.147878244070     1.007825032230

  Basis Set: AUG-CC-PVTZ
    Blend: AUG-CC-PVTZ
  Basis Set: (AUG-CC-PVTZ AUX)
    Blend: AUG-CC-PVTZ-JKFIT
	 Reference Energy          =    -250.6535663233482865 [Eh]
	 Singles Energy            =      -0.0000000000000000 [Eh]
	 Same-Spin Energy          =      -0.2609549436980990 [Eh]
	 Opposite-Spin Energy      =      -0.9374502942083720 [Eh]
	 Correlation Energy        =      -1.1984052379064711 [Eh]
	 Total Energy              =    -251.8519715612547714 [Eh]

	 ================> DF-SCS-MP2 Energies <==================
	-----------------------------------------------------------
	 SCS Same-Spin Scale       =       0.3333333333333333 [-]
	 SCS Opposite-Spin Scale   =       1.2000000000000000 [-]
	 SCS Same-Spin Energy      =      -0.0869849812326997 [Eh]
	 SCS Opposite-Spin Energy  =      -1.1249403530500464 [Eh]
	 SCS Correlation Energy    =      -1.2119253342827461 [Eh]
	 SCS Total Energy          =    -251.8654916576310256 [Eh]
	-----------------------------------------------------------

  Dipole Moment: [D]
     X:    -4.2101      Y:    -1.8839      Z:    -0.0102     Total:     4.6124

*** Psi4 exiting successfully. Buy a developer a beer!
