                               Psi4 1.4a3.dev225

  ==> Input File <==

--------------------------------------------------------------------------
#psi4
#
memory 32 gb

molecule  {
1 1
  N       -1.4684160    -0.7256290     0.0168660
  C        0.7789870     0.0252000    -0.3750600
  C       -0.0143940    -1.1774380     0.1210740
  C       -0.0289190     1.1951300     0.1928770
  C       -1.4778980     0.8076670    -0.0707360
  C        2.2387250    -0.0120120     0.0592990
  H        0.7264100     0.0548870    -1.4716460
  H        0.1145000    -2.0977020    -0.4513780
  H        0.1860930    -1.3741010     1.1771840
  H        0.2151160     2.1494100    -0.2804030
  H        0.1925399     1.3126927     1.4640767
  H       -2.0155250    -1.0560110     0.8205780
  H       -1.9143950    -1.1326260    -0.8134590
  H       -2.2036780     1.1930490     0.6461700
  H       -1.7986400     1.0658470    -1.0809590
  H        2.7502970    -0.8896260    -0.3442510
  H        2.7625990     0.8753680    -0.3028200
  H        2.3187760    -0.0349210     1.1503390
units angstrom
no_reorient  #important for SAPT in psi4, default
symmetry c1  #important for SAPT in psi4, default
}

set PROPERTIES_ORIGIN ["COM"]
properties('MP2/aug-cc-pvtz', properties = ['dipole'])
--------------------------------------------------------------------------

    Molecular point group: c1
  Charge       = 1
  Multiplicity = 1
  Basis Set: AUG-CC-PVTZ
    Blend: AUG-CC-PVTZ
  Basis Set: (AUG-CC-PVTZ AUX)
    Blend: AUG-CC-PVTZ-JKFIT

    Orbital Energies [Eh]
    ---------------------

    Doubly Occupied:

       1A    -15.866166     2A    -11.465790     3A    -11.460268
       4A    -11.417987     5A    -11.405119     6A    -11.359605
       7A     -1.493174     8A     -1.262947     9A     -1.193069
      10A     -1.098972    11A     -1.017300    12A     -0.971276
      13A     -0.932929    14A     -0.893090    15A     -0.822304
      16A     -0.785773    17A     -0.754479    18A     -0.740375
      19A     -0.712126    20A     -0.704045    21A     -0.664886
      22A     -0.652726    23A     -0.634101    24A     -0.623215

  @DF-RHF Final Energy:  -250.63678531153494

   => Energetics <=

    Nuclear Repulsion Energy =            265.0401328606931202
    One-Electron Energy =                -853.4903925081790703
    Two-Electron Energy =                 337.8134743359510139
    Total Energy =                       -250.6367853115349362
  Basis Set: (AUG-CC-PVTZ AUX)
    Blend: AUG-CC-PVTZ-RI
    Molecular point group: c1

    Geometry (in Angstrom), charge = 1, multiplicity = 1:

       Center              X                  Y                   Z               Mass
    ------------   -----------------  -----------------  -----------------  -----------------
         N           -1.453783735553    -0.725260957477     0.018224082965    14.003074004430
         C            0.793619264447     0.025568042523    -0.373701917035    12.000000000000
         C            0.000238264447    -1.177069957477     0.122432082965    12.000000000000
         C           -0.014286735553     1.195498042523     0.194235082965    12.000000000000
         C           -1.463265735553     0.808035042523    -0.069377917035    12.000000000000
         C            2.253357264447    -0.011643957477     0.060657082965    12.000000000000
         H            0.741042264447     0.055255042523    -1.470287917035     1.007825032230
         H            0.129132264447    -2.097333957477    -0.450019917035     1.007825032230
         H            0.200725264447    -1.373732957477     1.178542082965     1.007825032230
         H            0.229748264447     2.149778042523    -0.279044917035     1.007825032230
         H            0.207172164447     1.313060742523     1.465434782965     1.007825032230
         H           -2.000892735553    -1.055642957477     0.821936082965     1.007825032230
         H           -1.899762735553    -1.132257957477    -0.812100917035     1.007825032230
         H           -2.189045735553     1.193417042523     0.647528082965     1.007825032230
         H           -1.784007735553     1.066215042523    -1.079600917035     1.007825032230
         H            2.764929264447    -0.889257957477    -0.342892917035     1.007825032230
         H            2.777231264447     0.875736042523    -0.301461917035     1.007825032230
         H            2.333408264447    -0.034552957477     1.151697082965     1.007825032230

  Basis Set: AUG-CC-PVTZ
    Blend: AUG-CC-PVTZ
  Basis Set: (AUG-CC-PVTZ AUX)
    Blend: AUG-CC-PVTZ-JKFIT
	 Reference Energy          =    -250.6367853115349362 [Eh]
	 Singles Energy            =      -0.0000000000000000 [Eh]
	 Same-Spin Energy          =      -0.2613038660127547 [Eh]
	 Opposite-Spin Energy      =      -0.9391530806654174 [Eh]
	 Correlation Energy        =      -1.2004569466781720 [Eh]
	 Total Energy              =    -251.8372422582131094 [Eh]

	 ================> DF-SCS-MP2 Energies <==================
	-----------------------------------------------------------
	 SCS Same-Spin Scale       =       0.3333333333333333 [-]
	 SCS Opposite-Spin Scale   =       1.2000000000000000 [-]
	 SCS Same-Spin Energy      =      -0.0871012886709182 [Eh]
	 SCS Opposite-Spin Energy  =      -1.1269836967985007 [Eh]
	 SCS Correlation Energy    =      -1.2140849854694189 [Eh]
	 SCS Total Energy          =    -251.8508702970043487 [Eh]
	-----------------------------------------------------------

  Dipole Moment: [D]
     X:    -4.2335      Y:    -1.8782      Z:    -0.0932     Total:     4.6323

*** Psi4 exiting successfully. Buy a developer a beer!
