                               Psi4 1.4a3.dev225

  ==> Input File <==

--------------------------------------------------------------------------
#psi4
#
memory 32 gb

molecule  {
1 1
  N       -1.4684160    -0.7256290     0.0168660
  C        0.7789870     0.0252000    -0.3750600
  C       -0.0143940    -1.1774380     0.1210740
  C       -0.0289190     1.1951300     0.1928770
  C       -1.4778980     0.8076670    -0.0707360
  C        2.2387250    -0.0120120     0.0592990
  H        0.7264100     0.0548870    -1.4716460
  H        0.1145000    -2.0977020    -0.4513780
  H        0.1860930    -1.3741010     1.1771840
  H        0.2374473     2.2367348    -0.3237122
  H        0.1583560     1.2945460     1.2678570
  H       -2.0155250    -1.0560110     0.8205780
  H       -1.9143950    -1.1326260    -0.8134590
  H       -2.2036780     1.1930490     0.6461700
  H       -1.7986400     1.0658470    -1.0809590
  H        2.7502970    -0.8896260    -0.3442510
  H        2.7625990     0.8753680    -0.3028200
  H        2.3187760    -0.0349210     1.1503390
units angstrom
no_reorient  #important for SAPT in psi4, default
symmetry c1  #important for SAPT in psi4, default
}

set PROPERTIES_ORIGIN ["COM"]
properties('MP2/aug-cc-pvtz', properties = ['dipole'])
--------------------------------------------------------------------------

    Molecular point group: c1
  Charge       = 1
  Multiplicity = 1
  Basis Set: AUG-CC-PVTZ
    Blend: AUG-CC-PVTZ
  Basis Set: (AUG-CC-PVTZ AUX)
    Blend: AUG-CC-PVTZ-JKFIT

    Orbital Energies [Eh]
    ---------------------

    Doubly Occupied:

       1A    -15.866015     2A    -11.464358     3A    -11.460604
       4A    -11.407256     5A    -11.403586     6A    -11.359603
       7A     -1.493174     8A     -1.263828     9A     -1.192913
      10A     -1.099118    11A     -1.018890    12A     -0.974695
      13A     -0.932295    14A     -0.891821    15A     -0.826636
      16A     -0.791542    17A     -0.751736    18A     -0.739129
      19A     -0.711687    20A     -0.698514    21A     -0.671820
      22A     -0.654616    23A     -0.636397    24A     -0.629675

  @DF-RHF Final Energy:  -250.65001736785209

   => Energetics <=

    Nuclear Repulsion Energy =            265.4223120925692569
    One-Electron Energy =                -854.2648397284293651
    Two-Electron Energy =                 338.1925102680079362
    Total Energy =                       -250.6500173678521151
  Basis Set: (AUG-CC-PVTZ AUX)
    Blend: AUG-CC-PVTZ-RI
    Molecular point group: c1

    Geometry (in Angstrom), charge = 1, multiplicity = 1:

       Center              X                  Y                   Z               Mass
    ------------   -----------------  -----------------  -----------------  -----------------
         N           -1.453644992618    -0.726070735304     0.021027935517    14.003074004430
         C            0.793758007382     0.024758264696    -0.370898064483    12.000000000000
         C            0.000377007382    -1.177879735304     0.125235935517    12.000000000000
         C           -0.014147992618     1.194688264696     0.197038935517    12.000000000000
         C           -1.463126992618     0.807225264696    -0.066574064483    12.000000000000
         C            2.253496007382    -0.012453735304     0.063460935517    12.000000000000
         H            0.741181007382     0.054445264696    -1.467484064483     1.007825032230
         H            0.129271007382    -2.098143735304    -0.447216064483     1.007825032230
         H            0.200864007382    -1.374542735304     1.181345935517     1.007825032230
         H            0.252218307382     2.236293064696    -0.319550264483     1.007825032230
         H            0.173127007382     1.294104264696     1.272018935517     1.007825032230
         H           -2.000753992618    -1.056452735304     0.824739935517     1.007825032230
         H           -1.899623992618    -1.133067735304    -0.809297064483     1.007825032230
         H           -2.188906992618     1.192607264696     0.650331935517     1.007825032230
         H           -1.783868992618     1.065405264696    -1.076797064483     1.007825032230
         H            2.765068007382    -0.890067735304    -0.340089064483     1.007825032230
         H            2.777370007382     0.874926264696    -0.298658064483     1.007825032230
         H            2.333547007382    -0.035362735304     1.154500935517     1.007825032230

  Basis Set: AUG-CC-PVTZ
    Blend: AUG-CC-PVTZ
  Basis Set: (AUG-CC-PVTZ AUX)
    Blend: AUG-CC-PVTZ-JKFIT
	 Reference Energy          =    -250.6500173678520866 [Eh]
	 Singles Energy            =      -0.0000000000000000 [Eh]
	 Same-Spin Energy          =      -0.2612097173583939 [Eh]
	 Opposite-Spin Energy      =      -0.9382380898677238 [Eh]
	 Correlation Energy        =      -1.1994478072261177 [Eh]
	 Total Energy              =    -251.8494651750781941 [Eh]

	 ================> DF-SCS-MP2 Energies <==================
	-----------------------------------------------------------
	 SCS Same-Spin Scale       =       0.3333333333333333 [-]
	 SCS Opposite-Spin Scale   =       1.2000000000000000 [-]
	 SCS Same-Spin Energy      =      -0.0870699057861313 [Eh]
	 SCS Opposite-Spin Energy  =      -1.1258857078412685 [Eh]
	 SCS Correlation Energy    =      -1.2129556136273998 [Eh]
	 SCS Total Energy          =    -251.8629729814794871 [Eh]
	-----------------------------------------------------------

  Dipole Moment: [D]
     X:    -4.2199      Y:    -1.8775      Z:    -0.0194     Total:     4.6188

*** Psi4 exiting successfully. Buy a developer a beer!
