                               Psi4 1.4a3.dev225

  ==> Input File <==

--------------------------------------------------------------------------
#psi4
#
memory 32 gb

molecule  {
1 1
  N       -1.4684160    -0.7256290     0.0168660
  C        0.7730071     0.0704811    -0.3478293
  C       -0.0143940    -1.1774380     0.1210740
  C       -0.0289190     1.1951300     0.1928770
  C       -1.4778980     0.8076670    -0.0707360
  C        2.2387250    -0.0120120     0.0592990
  H        0.7264100     0.0548870    -1.4716460
  H        0.1145000    -2.0977020    -0.4513780
  H        0.1860930    -1.3741010     1.1771840
  H        0.2151160     2.1494100    -0.2804030
  H        0.1583560     1.2945460     1.2678570
  H       -2.0155250    -1.0560110     0.8205780
  H       -1.9143950    -1.1326260    -0.8134590
  H       -2.2036780     1.1930490     0.6461700
  H       -1.7986400     1.0658470    -1.0809590
  H        2.7502970    -0.8896260    -0.3442510
  H        2.7625990     0.8753680    -0.3028200
  H        2.3187760    -0.0349210     1.1503390
units angstrom
no_reorient  #important for SAPT in psi4, default
symmetry c1  #important for SAPT in psi4, default
}

set PROPERTIES_ORIGIN ["COM"]
properties('MP2/aug-cc-pvtz', properties = ['dipole'])
--------------------------------------------------------------------------

    Molecular point group: c1
  Charge       = 1
  Multiplicity = 1
  Basis Set: AUG-CC-PVTZ
    Blend: AUG-CC-PVTZ
  Basis Set: (AUG-CC-PVTZ AUX)
    Blend: AUG-CC-PVTZ-JKFIT

    Orbital Energies [Eh]
    ---------------------

    Doubly Occupied:

       1A    -15.865359     2A    -11.464692     3A    -11.460019
       4A    -11.404578     5A    -11.395550     6A    -11.359824
       7A     -1.492501     8A     -1.269495     9A     -1.192667
      10A     -1.098633    11A     -1.029089    12A     -0.972398
      13A     -0.934035    14A     -0.890902    15A     -0.827298
      16A     -0.791323    17A     -0.754369    18A     -0.741932
      19A     -0.713546    20A     -0.704097    21A     -0.680662
      22A     -0.654033    23A     -0.637757    24A     -0.627539

  @DF-RHF Final Energy:  -250.65387647372006

   => Energetics <=

    Nuclear Repulsion Energy =            266.1160847997974770
    One-Electron Energy =                -855.6153242201731928
    Two-Electron Energy =                 338.8453629466556549
    Total Energy =                       -250.6538764737200609
  Basis Set: (AUG-CC-PVTZ AUX)
    Blend: AUG-CC-PVTZ-RI
    Molecular point group: c1

    Geometry (in Angstrom), charge = 1, multiplicity = 1:

       Center              X                  Y                   Z               Mass
    ------------   -----------------  -----------------  -----------------  -----------------
         N           -1.452550124374    -0.731359714201     0.016725618292    14.003074004430
         C            0.788872975626     0.064750385799    -0.347969681708    12.000000000000
         C            0.001471875626    -1.183168714201     0.120933618292    12.000000000000
         C           -0.013053124374     1.189399285799     0.192736618292    12.000000000000
         C           -1.462032124374     0.801936285799    -0.070876381708    12.000000000000
         C            2.254590875626    -0.017742714201     0.059158618292    12.000000000000
         H            0.742275875626     0.049156285799    -1.471786381708     1.007825032230
         H            0.130365875626    -2.103432714201    -0.451518381708     1.007825032230
         H            0.201958875626    -1.379831714201     1.177043618292     1.007825032230
         H            0.230981875626     2.143679285799    -0.280543381708     1.007825032230
         H            0.174221875626     1.288815285799     1.267716618292     1.007825032230
         H           -1.999659124374    -1.061741714201     0.820437618292     1.007825032230
         H           -1.898529124374    -1.138356714201    -0.813599381708     1.007825032230
         H           -2.187812124374     1.187318285799     0.646029618292     1.007825032230
         H           -1.782774124374     1.060116285799    -1.081099381708     1.007825032230
         H            2.766162875626    -0.895356714201    -0.344391381708     1.007825032230
         H            2.778464875626     0.869637285799    -0.302960381708     1.007825032230
         H            2.334641875626    -0.040651714201     1.150198618292     1.007825032230

  Basis Set: AUG-CC-PVTZ
    Blend: AUG-CC-PVTZ
  Basis Set: (AUG-CC-PVTZ AUX)
    Blend: AUG-CC-PVTZ-JKFIT
	 Reference Energy          =    -250.6538764737200609 [Eh]
	 Singles Energy            =      -0.0000000000000000 [Eh]
	 Same-Spin Energy          =      -0.2613217175013762 [Eh]
	 Opposite-Spin Energy      =      -0.9377221625160980 [Eh]
	 Correlation Energy        =      -1.1990438800174741 [Eh]
	 Total Energy              =    -251.8529203537375452 [Eh]

	 ================> DF-SCS-MP2 Energies <==================
	-----------------------------------------------------------
	 SCS Same-Spin Scale       =       0.3333333333333333 [-]
	 SCS Opposite-Spin Scale   =       1.2000000000000000 [-]
	 SCS Same-Spin Energy      =      -0.0871072391671254 [Eh]
	 SCS Opposite-Spin Energy  =      -1.1252665950193175 [Eh]
	 SCS Correlation Energy    =      -1.2123738341864430 [Eh]
	 SCS Total Energy          =    -251.8662503079065118 [Eh]
	-----------------------------------------------------------

  Dipole Moment: [D]
     X:    -4.2257      Y:    -1.8804      Z:    -0.0230     Total:     4.6253

*** Psi4 exiting successfully. Buy a developer a beer!
