                               Psi4 1.4a3.dev225

  ==> Input File <==

--------------------------------------------------------------------------
#psi4
#
memory 32 gb

molecule  {
1 1
  N       -1.4684160    -0.7256290     0.0168660
  C        0.7789870     0.0252000    -0.3750600
  C       -0.0143940    -1.1774380     0.1210740
  C       -0.0289190     1.1951300     0.1928770
  C       -1.4778980     0.8076670    -0.0707360
  C        2.2387250    -0.0120120     0.0592990
  H        0.7264100     0.0548870    -1.4716460
  H        0.1145000    -2.0977020    -0.4513780
  H        0.1860930    -1.3741010     1.1771840
  H        0.2151160     2.1494100    -0.2804030
  H        0.1583560     1.2945460     1.2678570
  H       -2.0155250    -1.0560110     0.8205780
  H       -1.9143950    -1.1326260    -0.8134590
  H       -2.2036780     1.1930490     0.6461700
  H       -1.7986400     1.0658470    -1.0809590
  H        2.7970991    -0.9699162    -0.3811705
  H        2.7625990     0.8753680    -0.3028200
  H        2.3187760    -0.0349210     1.1503390
units angstrom
no_reorient  #important for SAPT in psi4, default
symmetry c1  #important for SAPT in psi4, default
}

set PROPERTIES_ORIGIN ["COM"]
properties('MP2/aug-cc-pvtz', properties = ['dipole'])
--------------------------------------------------------------------------

    Molecular point group: c1
  Charge       = 1
  Multiplicity = 1
  Basis Set: AUG-CC-PVTZ
    Blend: AUG-CC-PVTZ
  Basis Set: (AUG-CC-PVTZ AUX)
    Blend: AUG-CC-PVTZ-JKFIT

    Orbital Energies [Eh]
    ---------------------

    Doubly Occupied:

       1A    -15.865800     2A    -11.464302     3A    -11.460152
       4A    -11.403917     5A    -11.397414     6A    -11.370856
       7A     -1.492944     8A     -1.265034     9A     -1.193924
      10A     -1.094078    11A     -1.022944    12A     -0.974343
      13A     -0.934299    14A     -0.892139    15A     -0.827492
      16A     -0.791583    17A     -0.753547    18A     -0.735742
      19A     -0.707742    20A     -0.702235    21A     -0.679889
      22A     -0.655051    23A     -0.639168    24A     -0.619872

  @DF-RHF Final Energy:  -250.65036479168631

   => Energetics <=

    Nuclear Repulsion Energy =            265.4805352254766717
    One-Electron Energy =                -854.3728720739451319
    Two-Electron Energy =                 338.2419720567820605
    Total Energy =                       -250.6503647916863429
  Basis Set: (AUG-CC-PVTZ AUX)
    Blend: AUG-CC-PVTZ-RI
    Molecular point group: c1

    Geometry (in Angstrom), charge = 1, multiplicity = 1:

       Center              X                  Y                   Z               Mass
    ------------   -----------------  -----------------  -----------------  -----------------
         N           -1.453931440370    -0.724108685023     0.020953139629    14.003074004430
         C            0.793471559630     0.026720314977    -0.370972860371    12.000000000000
         C            0.000090559630    -1.175917685023     0.125161139629    12.000000000000
         C           -0.014434440370     1.196650314977     0.196964139629    12.000000000000
         C           -1.463413440370     0.809187314977    -0.066648860371    12.000000000000
         C            2.253209559630    -0.010491685023     0.063386139629    12.000000000000
         H            0.740894559630     0.056407314977    -1.467558860371     1.007825032230
         H            0.128984559630    -2.096181685023    -0.447290860371     1.007825032230
         H            0.200577559630    -1.372580685023     1.181271139629     1.007825032230
         H            0.229600559630     2.150930314977    -0.276315860371     1.007825032230
         H            0.172840559630     1.296066314977     1.271944139629     1.007825032230
         H           -2.001040440370    -1.054490685023     0.824665139629     1.007825032230
         H           -1.899910440370    -1.131105685023    -0.809371860371     1.007825032230
         H           -2.189193440370     1.194569314977     0.650257139629     1.007825032230
         H           -1.784155440370     1.067367314977    -1.076871860371     1.007825032230
         H            2.811583659630    -0.968395885023    -0.377083360371     1.007825032230
         H            2.777083559630     0.876888314977    -0.298732860371     1.007825032230
         H            2.333260559630    -0.033400685023     1.154426139629     1.007825032230

  Basis Set: AUG-CC-PVTZ
    Blend: AUG-CC-PVTZ
  Basis Set: (AUG-CC-PVTZ AUX)
    Blend: AUG-CC-PVTZ-JKFIT
	 Reference Energy          =    -250.6503647916863144 [Eh]
	 Singles Energy            =      -0.0000000000000000 [Eh]
	 Same-Spin Energy          =      -0.2610888205573056 [Eh]
	 Opposite-Spin Energy      =      -0.9381314765108062 [Eh]
	 Correlation Energy        =      -1.1992202970681118 [Eh]
	 Total Energy              =    -251.8495850887544236 [Eh]

	 ================> DF-SCS-MP2 Energies <==================
	-----------------------------------------------------------
	 SCS Same-Spin Scale       =       0.3333333333333333 [-]
	 SCS Opposite-Spin Scale   =       1.2000000000000000 [-]
	 SCS Same-Spin Energy      =      -0.0870296068524352 [Eh]
	 SCS Opposite-Spin Energy  =      -1.1257577718129674 [Eh]
	 SCS Correlation Energy    =      -1.2127873786654026 [Eh]
	 SCS Total Energy          =    -251.8631521703517251 [Eh]
	-----------------------------------------------------------

  Dipole Moment: [D]
     X:    -4.2491      Y:    -1.8366      Z:    -0.0055     Total:     4.6290

*** Psi4 exiting successfully. Buy a developer a beer!
