                               Psi4 1.4a3.dev225

  ==> Input File <==

--------------------------------------------------------------------------
#psi4
#
memory 32 gb

molecule  {
1 1
  N       -1.4684160    -0.7256290     0.0168660
  C        0.8075575    -0.1106944    -0.4534473
  C       -0.0143940    -1.1774380     0.1210740
  C       -0.0289190     1.1951300     0.1928770
  C       -1.4778980     0.8076670    -0.0707360
  C        2.2387250    -0.0120120     0.0592990
  H        0.7264100     0.0548870    -1.4716460
  H        0.1145000    -2.0977020    -0.4513780
  H        0.1860930    -1.3741010     1.1771840
  H        0.2151160     2.1494100    -0.2804030
  H        0.1583560     1.2945460     1.2678570
  H       -2.0155250    -1.0560110     0.8205780
  H       -1.9143950    -1.1326260    -0.8134590
  H       -2.2036780     1.1930490     0.6461700
  H       -1.7986400     1.0658470    -1.0809590
  H        2.7502970    -0.8896260    -0.3442510
  H        2.7625990     0.8753680    -0.3028200
  H        2.3187760    -0.0349210     1.1503390
units angstrom
no_reorient  #important for SAPT in psi4, default
symmetry c1  #important for SAPT in psi4, default
}

set PROPERTIES_ORIGIN ["COM"]
properties('MP2/aug-cc-pvtz', properties = ['dipole'])
--------------------------------------------------------------------------

    Molecular point group: c1
  Charge       = 1
  Multiplicity = 1
  Basis Set: AUG-CC-PVTZ
    Blend: AUG-CC-PVTZ
  Basis Set: (AUG-CC-PVTZ AUX)
    Blend: AUG-CC-PVTZ-JKFIT

    Orbital Energies [Eh]
    ---------------------

    Doubly Occupied:

       1A    -15.866324     2A    -11.461626     3A    -11.460812
       4A    -11.403396     5A    -11.398737     6A    -11.361131
       7A     -1.492941     8A     -1.258529     9A     -1.195940
      10A     -1.101095    11A     -1.011704    12A     -0.982498
      13A     -0.937852    14A     -0.895500    15A     -0.831725
      16A     -0.791811    17A     -0.751628    18A     -0.741041
      19A     -0.713407    20A     -0.700658    21A     -0.677933
      22A     -0.665137    23A     -0.660204    24A     -0.585229

  @DF-RHF Final Energy:  -250.63612740848896

   => Energetics <=

    Nuclear Repulsion Energy =            265.0656472528363565
    One-Electron Energy =                -853.5098309343784422
    Two-Electron Energy =                 337.8080562730531256
    Total Energy =                       -250.6361274084889601
  Basis Set: (AUG-CC-PVTZ AUX)
    Blend: AUG-CC-PVTZ-RI
    Molecular point group: c1

    Geometry (in Angstrom), charge = 1, multiplicity = 1:

       Center              X                  Y                   Z               Mass
    ------------   -----------------  -----------------  -----------------  -----------------
         N           -1.457365680355    -0.706107886069     0.031446414336    14.003074004430
         C            0.818607819645    -0.091173286069    -0.438866885664    12.000000000000
         C           -0.003343680355    -1.157916886069     0.135654414336    12.000000000000
         C           -0.017868680355     1.214651113931     0.207457414336    12.000000000000
         C           -1.466847680355     0.827188113931    -0.056155585664    12.000000000000
         C            2.249775319645     0.007509113931     0.073879414336    12.000000000000
         H            0.737460319645     0.074408113931    -1.457065585664     1.007825032230
         H            0.125550319645    -2.078180886069    -0.436797585664     1.007825032230
         H            0.197143319645    -1.354579886069     1.191764414336     1.007825032230
         H            0.226166319645     2.168931113931    -0.265822585664     1.007825032230
         H            0.169406319645     1.314067113931     1.282437414336     1.007825032230
         H           -2.004474680355    -1.036489886069     0.835158414336     1.007825032230
         H           -1.903344680355    -1.113104886069    -0.798878585664     1.007825032230
         H           -2.192627680355     1.212570113931     0.660750414336     1.007825032230
         H           -1.787589680355     1.085368113931    -1.066378585664     1.007825032230
         H            2.761347319645    -0.870104886069    -0.329670585664     1.007825032230
         H            2.773649319645     0.894889113931    -0.288239585664     1.007825032230
         H            2.329826319645    -0.015399886069     1.164919414336     1.007825032230

  Basis Set: AUG-CC-PVTZ
    Blend: AUG-CC-PVTZ
  Basis Set: (AUG-CC-PVTZ AUX)
    Blend: AUG-CC-PVTZ-JKFIT
	 Reference Energy          =    -250.6361274084889601 [Eh]
	 Singles Energy            =      -0.0000000000000000 [Eh]
	 Same-Spin Energy          =      -0.2617128619578563 [Eh]
	 Opposite-Spin Energy      =      -0.9389219128558700 [Eh]
	 Correlation Energy        =      -1.2006347748137263 [Eh]
	 Total Energy              =    -251.8367621833026817 [Eh]

	 ================> DF-SCS-MP2 Energies <==================
	-----------------------------------------------------------
	 SCS Same-Spin Scale       =       0.3333333333333333 [-]
	 SCS Opposite-Spin Scale   =       1.2000000000000000 [-]
	 SCS Same-Spin Energy      =      -0.0872376206526188 [Eh]
	 SCS Opposite-Spin Energy  =      -1.1267062954270439 [Eh]
	 SCS Correlation Energy    =      -1.2139439160796626 [Eh]
	 SCS Total Energy          =    -251.8500713245686313 [Eh]
	-----------------------------------------------------------

  Dipole Moment: [D]
     X:    -4.1831      Y:    -1.8139      Z:     0.0161     Total:     4.5595

*** Psi4 exiting successfully. Buy a developer a beer!
