                               Psi4 1.4a3.dev225

  ==> Input File <==

--------------------------------------------------------------------------
#psi4
#
memory 32 gb

molecule  {
1 1
  N       -1.4684160    -0.7256290     0.0168660
  C        0.7789870     0.0252000    -0.3750600
  C       -0.0143940    -1.1774380     0.1210740
  C       -0.0289190     1.1951300     0.1928770
  C       -1.4778980     0.8076670    -0.0707360
  C        2.2387250    -0.0120120     0.0592990
  H        0.7264100     0.0548870    -1.4716460
  H        0.1145000    -2.0977020    -0.4513780
  H        0.1860930    -1.3741010     1.1771840
  H        0.2151160     2.1494100    -0.2804030
  H        0.1583560     1.2945460     1.2678570
  H       -2.0155250    -1.0560110     0.8205780
  H       -1.9143950    -1.1326260    -0.8134590
  H       -2.2432648     1.2205588     0.5872641
  H       -1.7986400     1.0658470    -1.0809590
  H        2.7502970    -0.8896260    -0.3442510
  H        2.7625990     0.8753680    -0.3028200
  H        2.3187760    -0.0349210     1.1503390
units angstrom
no_reorient  #important for SAPT in psi4, default
symmetry c1  #important for SAPT in psi4, default
}

set PROPERTIES_ORIGIN ["COM"]
properties('MP2/aug-cc-pvtz', properties = ['dipole'])
--------------------------------------------------------------------------

    Molecular point group: c1
  Charge       = 1
  Multiplicity = 1
  Basis Set: AUG-CC-PVTZ
    Blend: AUG-CC-PVTZ
  Basis Set: (AUG-CC-PVTZ AUX)
    Blend: AUG-CC-PVTZ-JKFIT

    Orbital Energies [Eh]
    ---------------------

    Doubly Occupied:

       1A    -15.866197     2A    -11.463439     3A    -11.460312
       4A    -11.403241     5A    -11.397165     6A    -11.359699
       7A     -1.492691     8A     -1.265072     9A     -1.193763
      10A     -1.099071    11A     -1.024976    12A     -0.974388
      13A     -0.934951    14A     -0.894157    15A     -0.827681
      16A     -0.787458    17A     -0.756020    18A     -0.740101
      19A     -0.711732    20A     -0.703565    21A     -0.677614
      22A     -0.655507    23A     -0.638622    24A     -0.629869

  @DF-RHF Final Energy:  -250.65630606747459

   => Energetics <=

    Nuclear Repulsion Energy =            265.8159170110947116
    One-Electron Energy =                -855.0298657275191090
    Two-Electron Energy =                 338.5576426489498090
    Total Energy =                       -250.6563060674745884
  Basis Set: (AUG-CC-PVTZ AUX)
    Blend: AUG-CC-PVTZ-RI
    Molecular point group: c1

    Geometry (in Angstrom), charge = 1, multiplicity = 1:

       Center              X                  Y                   Z               Mass
    ------------   -----------------  -----------------  -----------------  -----------------
         N           -1.452920198145    -0.725370559082     0.021210505750    14.003074004430
         C            0.794482801855     0.025458440918    -0.370715494250    12.000000000000
         C            0.001101801855    -1.177179559082     0.125418505750    12.000000000000
         C           -0.013423198145     1.195388440918     0.197221505750    12.000000000000
         C           -1.462402198145     0.807925440918    -0.066391494250    12.000000000000
         C            2.254220801855    -0.011753559082     0.063643505750    12.000000000000
         H            0.741905801855     0.055145440918    -1.467301494250     1.007825032230
         H            0.129995801855    -2.097443559082    -0.447033494250     1.007825032230
         H            0.201588801855    -1.373842559082     1.181528505750     1.007825032230
         H            0.230611801855     2.149668440918    -0.276058494250     1.007825032230
         H            0.173851801855     1.294804440918     1.272201505750     1.007825032230
         H           -2.000029198145    -1.055752559082     0.824922505750     1.007825032230
         H           -1.898899198145    -1.132367559082    -0.809114494250     1.007825032230
         H           -2.227768998145     1.220817240918     0.591608605750     1.007825032230
         H           -1.783144198145     1.066105440918    -1.076614494250     1.007825032230
         H            2.765792801855    -0.889367559082    -0.339906494250     1.007825032230
         H            2.778094801855     0.875626440918    -0.298475494250     1.007825032230
         H            2.334271801855    -0.034662559082     1.154683505750     1.007825032230

  Basis Set: AUG-CC-PVTZ
    Blend: AUG-CC-PVTZ
  Basis Set: (AUG-CC-PVTZ AUX)
    Blend: AUG-CC-PVTZ-JKFIT
	 Reference Energy          =    -250.6563060674745884 [Eh]
	 Singles Energy            =      -0.0000000000000000 [Eh]
	 Same-Spin Energy          =      -0.2611063540210100 [Eh]
	 Opposite-Spin Energy      =      -0.9373380726732249 [Eh]
	 Correlation Energy        =      -1.1984444266942349 [Eh]
	 Total Energy              =    -251.8547504941688260 [Eh]

	 ================> DF-SCS-MP2 Energies <==================
	-----------------------------------------------------------
	 SCS Same-Spin Scale       =       0.3333333333333333 [-]
	 SCS Opposite-Spin Scale   =       1.2000000000000000 [-]
	 SCS Same-Spin Energy      =      -0.0870354513403366 [Eh]
	 SCS Opposite-Spin Energy  =      -1.1248056872078698 [Eh]
	 SCS Correlation Energy    =      -1.2118411385482064 [Eh]
	 SCS Total Energy          =    -251.8681472060227975 [Eh]
	-----------------------------------------------------------

  Dipole Moment: [D]
     X:    -4.2383      Y:    -1.8635      Z:    -0.0317     Total:     4.6300

*** Psi4 exiting successfully. Buy a developer a beer!
