                               Psi4 1.4a3.dev225

  ==> Input File <==

--------------------------------------------------------------------------
#psi4
#
memory 32 gb

molecule  {
1 1
  N       -1.4684160    -0.7256290     0.0168660
  C        0.7789870     0.0252000    -0.3750600
  C       -0.0143940    -1.1774380     0.1210740
  C       -0.0289190     1.1951300     0.1928770
  C       -1.4778980     0.8076670    -0.0707360
  C        2.2530211    -0.0109220     0.0080928
  H        0.7264100     0.0548870    -1.4716460
  H        0.1145000    -2.0977020    -0.4513780
  H        0.1860930    -1.3741010     1.1771840
  H        0.2151160     2.1494100    -0.2804030
  H        0.1583560     1.2945460     1.2678570
  H       -2.0155250    -1.0560110     0.8205780
  H       -1.9143950    -1.1326260    -0.8134590
  H       -2.2036780     1.1930490     0.6461700
  H       -1.7986400     1.0658470    -1.0809590
  H        2.7502970    -0.8896260    -0.3442510
  H        2.7625990     0.8753680    -0.3028200
  H        2.3187760    -0.0349210     1.1503390
units angstrom
no_reorient  #important for SAPT in psi4, default
symmetry c1  #important for SAPT in psi4, default
}

set PROPERTIES_ORIGIN ["COM"]
properties('MP2/aug-cc-pvtz', properties = ['dipole'])
--------------------------------------------------------------------------

    Molecular point group: c1
  Charge       = 1
  Multiplicity = 1
  Basis Set: AUG-CC-PVTZ
    Blend: AUG-CC-PVTZ
  Basis Set: (AUG-CC-PVTZ AUX)
    Blend: AUG-CC-PVTZ-JKFIT

    Orbital Energies [Eh]
    ---------------------

    Doubly Occupied:

       1A    -15.866045     2A    -11.464178     3A    -11.460536
       4A    -11.403205     5A    -11.397167     6A    -11.360323
       7A     -1.492998     8A     -1.264784     9A     -1.194194
      10A     -1.100132    11A     -1.024120    12A     -0.974651
      13A     -0.935200    14A     -0.892525    15A     -0.827720
      16A     -0.791727    17A     -0.754024    18A     -0.743983
      19A     -0.711068    20A     -0.705261    21A     -0.675031
      22A     -0.659425    23A     -0.638587    24A     -0.624633

  @DF-RHF Final Energy:  -250.65404863982704

   => Energetics <=

    Nuclear Repulsion Energy =            265.7385690211836504
    One-Electron Energy =                -854.8622036869452359
    Two-Electron Energy =                 338.4695860259344613
    Total Energy =                       -250.6540486398270673
  Basis Set: (AUG-CC-PVTZ AUX)
    Blend: AUG-CC-PVTZ-RI
    Molecular point group: c1

    Geometry (in Angstrom), charge = 1, multiplicity = 1:

       Center              X                  Y                   Z               Mass
    ------------   -----------------  -----------------  -----------------  -----------------
         N           -1.455376147027    -0.725200459433     0.027657974588    14.003074004430
         C            0.792026852973     0.025628540567    -0.364268025412    12.000000000000
         C           -0.001354147027    -1.177009459433     0.131865974588    12.000000000000
         C           -0.015879147027     1.195558540567     0.203668974588    12.000000000000
         C           -1.464858147027     0.808095540567    -0.059944025412    12.000000000000
         C            2.266060952973    -0.010493459433     0.018884774588    12.000000000000
         H            0.739449852973     0.055315540567    -1.460854025412     1.007825032230
         H            0.127539852973    -2.097273459433    -0.440586025412     1.007825032230
         H            0.199132852973    -1.373672459433     1.187975974588     1.007825032230
         H            0.228155852973     2.149838540567    -0.269611025412     1.007825032230
         H            0.171395852973     1.294974540567     1.278648974588     1.007825032230
         H           -2.002485147027    -1.055582459433     0.831369974588     1.007825032230
         H           -1.901355147027    -1.132197459433    -0.802667025412     1.007825032230
         H           -2.190638147027     1.193477540567     0.656961974588     1.007825032230
         H           -1.785600147027     1.066275540567    -1.070167025412     1.007825032230
         H            2.763336852973    -0.889197459433    -0.333459025412     1.007825032230
         H            2.775638852973     0.875796540567    -0.292028025412     1.007825032230
         H            2.331815852973    -0.034492459433     1.161130974588     1.007825032230

  Basis Set: AUG-CC-PVTZ
    Blend: AUG-CC-PVTZ
  Basis Set: (AUG-CC-PVTZ AUX)
    Blend: AUG-CC-PVTZ-JKFIT
	 Reference Energy          =    -250.6540486398270389 [Eh]
	 Singles Energy            =      -0.0000000000000000 [Eh]
	 Same-Spin Energy          =      -0.2610953094304779 [Eh]
	 Opposite-Spin Energy      =      -0.9374565234645060 [Eh]
	 Correlation Energy        =      -1.1985518328949838 [Eh]
	 Total Energy              =    -251.8526004727220311 [Eh]

	 ================> DF-SCS-MP2 Energies <==================
	-----------------------------------------------------------
	 SCS Same-Spin Scale       =       0.3333333333333333 [-]
	 SCS Opposite-Spin Scale   =       1.2000000000000000 [-]
	 SCS Same-Spin Energy      =      -0.0870317698101593 [Eh]
	 SCS Opposite-Spin Energy  =      -1.1249478281574072 [Eh]
	 SCS Correlation Energy    =      -1.2119795979675665 [Eh]
	 SCS Total Energy          =    -251.8660282377946089 [Eh]
	-----------------------------------------------------------

  Dipole Moment: [D]
     X:    -4.2381      Y:    -1.8695      Z:    -0.0017     Total:     4.6321

*** Psi4 exiting successfully. Buy a developer a beer!
