                               Psi4 1.4a3.dev225

  ==> Input File <==

--------------------------------------------------------------------------
#psi4
#
memory 32 gb

molecule  {
1 1
  N       -1.4684160    -0.7256290     0.0168660
  C        0.7789870     0.0252000    -0.3750600
  C       -0.0143940    -1.1774380     0.1210740
  C       -0.0289190     1.1951300     0.1928770
  C       -1.4778980     0.8076670    -0.0707360
  C        2.2387250    -0.0120120     0.0592990
  H        0.7264100     0.0548870    -1.4716460
  H        0.1121381    -2.0808384    -0.4408880
  H        0.1860930    -1.3741010     1.1771840
  H        0.2151160     2.1494100    -0.2804030
  H        0.1583560     1.2945460     1.2678570
  H       -2.0155250    -1.0560110     0.8205780
  H       -1.9143950    -1.1326260    -0.8134590
  H       -2.2036780     1.1930490     0.6461700
  H       -1.7986400     1.0658470    -1.0809590
  H        2.7502970    -0.8896260    -0.3442510
  H        2.7625990     0.8753680    -0.3028200
  H        2.3187760    -0.0349210     1.1503390
units angstrom
no_reorient  #important for SAPT in psi4, default
symmetry c1  #important for SAPT in psi4, default
}

set PROPERTIES_ORIGIN ["COM"]
properties('MP2/aug-cc-pvtz', properties = ['dipole'])
--------------------------------------------------------------------------

    Molecular point group: c1
  Charge       = 1
  Multiplicity = 1
  Basis Set: AUG-CC-PVTZ
    Blend: AUG-CC-PVTZ
  Basis Set: (AUG-CC-PVTZ AUX)
    Blend: AUG-CC-PVTZ-JKFIT

    Orbital Energies [Eh]
    ---------------------

    Doubly Occupied:

       1A    -15.865536     2A    -11.463779     3A    -11.457912
       4A    -11.402979     5A    -11.396623     6A    -11.359595
       7A     -1.492757     8A     -1.265073     9A     -1.194794
      10A     -1.099696    11A     -1.024195    12A     -0.974898
      13A     -0.936041    14A     -0.893254    15A     -0.827775
      16A     -0.792190    17A     -0.755139    18A     -0.739602
      19A     -0.713069    20A     -0.703674    21A     -0.679690
      22A     -0.654829    23A     -0.638551    24A     -0.629566

  @DF-RHF Final Energy:  -250.65699926309401

   => Energetics <=

    Nuclear Repulsion Energy =            265.9816656934445405
    One-Electron Energy =                -855.3548931867460396
    Two-Electron Energy =                 338.7162282302075482
    Total Energy =                       -250.6569992630940078
  Basis Set: (AUG-CC-PVTZ AUX)
    Blend: AUG-CC-PVTZ-RI
    Molecular point group: c1

    Geometry (in Angstrom), charge = 1, multiplicity = 1:

       Center              X                  Y                   Z               Mass
    ------------   -----------------  -----------------  -----------------  -----------------
         N           -1.453355941518    -0.725245937898     0.020398178422    14.003074004430
         C            0.794047058482     0.025583062102    -0.371527821578    12.000000000000
         C            0.000666058482    -1.177054937898     0.124606178422    12.000000000000
         C           -0.013858941518     1.195513062102     0.196409178422    12.000000000000
         C           -1.462837941518     0.808050062102    -0.067203821578    12.000000000000
         C            2.253785058482    -0.011628937898     0.062831178422    12.000000000000
         H            0.741470058482     0.055270062102    -1.468113821578     1.007825032230
         H            0.127198158482    -2.080455337898    -0.437355821578     1.007825032230
         H            0.201153058482    -1.373717937898     1.180716178422     1.007825032230
         H            0.230176058482     2.149793062102    -0.276870821578     1.007825032230
         H            0.173416058482     1.294929062102     1.271389178422     1.007825032230
         H           -2.000464941518    -1.055627937898     0.824110178422     1.007825032230
         H           -1.899334941518    -1.132242937898    -0.809926821578     1.007825032230
         H           -2.188617941518     1.193432062102     0.649702178422     1.007825032230
         H           -1.783579941518     1.066230062102    -1.077426821578     1.007825032230
         H            2.765357058482    -0.889242937898    -0.340718821578     1.007825032230
         H            2.777659058482     0.875751062102    -0.299287821578     1.007825032230
         H            2.333836058482    -0.034537937898     1.153871178422     1.007825032230

  Basis Set: AUG-CC-PVTZ
    Blend: AUG-CC-PVTZ
  Basis Set: (AUG-CC-PVTZ AUX)
    Blend: AUG-CC-PVTZ-JKFIT
	 Reference Energy          =    -250.6569992630940078 [Eh]
	 Singles Energy            =      -0.0000000000000000 [Eh]
	 Same-Spin Energy          =      -0.2610668879092944 [Eh]
	 Opposite-Spin Energy      =      -0.9372555312500168 [Eh]
	 Correlation Energy        =      -1.1983224191593111 [Eh]
	 Total Energy              =    -251.8553216822533329 [Eh]

	 ================> DF-SCS-MP2 Energies <==================
	-----------------------------------------------------------
	 SCS Same-Spin Scale       =       0.3333333333333333 [-]
	 SCS Opposite-Spin Scale   =       1.2000000000000000 [-]
	 SCS Same-Spin Energy      =      -0.0870222959697648 [Eh]
	 SCS Opposite-Spin Energy  =      -1.1247066375000201 [Eh]
	 SCS Correlation Energy    =      -1.2117289334697849 [Eh]
	 SCS Total Energy          =    -251.8687281965637794 [Eh]
	-----------------------------------------------------------

  Dipole Moment: [D]
     X:    -4.2215      Y:    -1.8688      Z:    -0.0144     Total:     4.6167

*** Psi4 exiting successfully. Buy a developer a beer!
