                               Psi4 1.4a3.dev225

  ==> Input File <==

--------------------------------------------------------------------------
#psi4
#
memory 32 gb

molecule  {
1 1
  N       -1.4684160    -0.7256290     0.0168660
  C        0.7789870     0.0252000    -0.3750600
  C       -0.0143940    -1.1774380     0.1210740
  C       -0.0289190     1.1951300     0.1928770
  C       -1.5393806     0.8085563     0.0170749
  C        2.2387250    -0.0120120     0.0592990
  H        0.7264100     0.0548870    -1.4716460
  H        0.1145000    -2.0977020    -0.4513780
  H        0.1860930    -1.3741010     1.1771840
  H        0.2151160     2.1494100    -0.2804030
  H        0.1583560     1.2945460     1.2678570
  H       -2.0155250    -1.0560110     0.8205780
  H       -1.9143950    -1.1326260    -0.8134590
  H       -2.2036780     1.1930490     0.6461700
  H       -1.7986400     1.0658470    -1.0809590
  H        2.7502970    -0.8896260    -0.3442510
  H        2.7625990     0.8753680    -0.3028200
  H        2.3187760    -0.0349210     1.1503390
units angstrom
no_reorient  #important for SAPT in psi4, default
symmetry c1  #important for SAPT in psi4, default
}

set PROPERTIES_ORIGIN ["COM"]
properties('MP2/aug-cc-pvtz', properties = ['dipole'])
--------------------------------------------------------------------------

    Molecular point group: c1
  Charge       = 1
  Multiplicity = 1
  Basis Set: AUG-CC-PVTZ
    Blend: AUG-CC-PVTZ
  Basis Set: (AUG-CC-PVTZ AUX)
    Blend: AUG-CC-PVTZ-JKFIT

    Orbital Energies [Eh]
    ---------------------

    Doubly Occupied:

       1A    -15.866945     2A    -11.463421     3A    -11.461061
       4A    -11.403612     5A    -11.399536     6A    -11.360250
       7A     -1.492276     8A     -1.261576     9A     -1.192564
      10A     -1.098839    11A     -1.029314    12A     -0.972979
      13A     -0.935703    14A     -0.897701    15A     -0.824543
      16A     -0.794539    17A     -0.764304    18A     -0.735606
      19A     -0.711127    20A     -0.696858    21A     -0.677438
      22A     -0.650646    23A     -0.635392    24A     -0.632044

  @DF-RHF Final Energy:  -250.64235898130963

   => Energetics <=

    Nuclear Repulsion Energy =            265.1427449654140673
    One-Electron Energy =                -853.6536596910640355
    Two-Electron Energy =                 337.8685557443403695
    Total Energy =                       -250.6423589813095987
  Basis Set: (AUG-CC-PVTZ AUX)
    Blend: AUG-CC-PVTZ-RI
    Molecular point group: c1

    Geometry (in Angstrom), charge = 1, multiplicity = 1:

       Center              X                  Y                   Z               Mass
    ------------   -----------------  -----------------  -----------------  -----------------
         N           -1.444814284587    -0.725172486325     0.008282088132    14.003074004430
         C            0.802588715413     0.025656513675    -0.383643911868    12.000000000000
         C            0.009207715413    -1.176981486325     0.112490088132    12.000000000000
         C           -0.005317284587     1.195586513675     0.184293088132    12.000000000000
         C           -1.515778884587     0.809012813675     0.008490988132    12.000000000000
         C            2.262326715413    -0.011555486325     0.050715088132    12.000000000000
         H            0.750011715413     0.055343513675    -1.480229911868     1.007825032230
         H            0.138101715413    -2.097245486325    -0.459961911868     1.007825032230
         H            0.209694715413    -1.373644486325     1.168600088132     1.007825032230
         H            0.238717715413     2.149866513675    -0.288986911868     1.007825032230
         H            0.181957715413     1.295002513675     1.259273088132     1.007825032230
         H           -1.991923284587    -1.055554486325     0.811994088132     1.007825032230
         H           -1.890793284587    -1.132169486325    -0.822042911868     1.007825032230
         H           -2.180076284587     1.193505513675     0.637586088132     1.007825032230
         H           -1.775038284587     1.066303513675    -1.089542911868     1.007825032230
         H            2.773898715413    -0.889169486325    -0.352834911868     1.007825032230
         H            2.786200715413     0.875824513675    -0.311403911868     1.007825032230
         H            2.342377715413    -0.034464486325     1.141755088132     1.007825032230

  Basis Set: AUG-CC-PVTZ
    Blend: AUG-CC-PVTZ
  Basis Set: (AUG-CC-PVTZ AUX)
    Blend: AUG-CC-PVTZ-JKFIT
	 Reference Energy          =    -250.6423589813096271 [Eh]
	 Singles Energy            =      -0.0000000000000000 [Eh]
	 Same-Spin Energy          =      -0.2609572330035986 [Eh]
	 Opposite-Spin Energy      =      -0.9378753571846077 [Eh]
	 Correlation Energy        =      -1.1988325901882062 [Eh]
	 Total Energy              =    -251.8411915714978306 [Eh]

	 ================> DF-SCS-MP2 Energies <==================
	-----------------------------------------------------------
	 SCS Same-Spin Scale       =       0.3333333333333333 [-]
	 SCS Opposite-Spin Scale   =       1.2000000000000000 [-]
	 SCS Same-Spin Energy      =      -0.0869857443345329 [Eh]
	 SCS Opposite-Spin Energy  =      -1.1254504286215292 [Eh]
	 SCS Correlation Energy    =      -1.2124361729560620 [Eh]
	 SCS Total Energy          =    -251.8547951542657017 [Eh]
	-----------------------------------------------------------

  Dipole Moment: [D]
     X:    -4.1871      Y:    -1.9075      Z:    -0.0054     Total:     4.6011

*** Psi4 exiting successfully. Buy a developer a beer!
