                               Psi4 1.4a3.dev225

  ==> Input File <==

--------------------------------------------------------------------------
#psi4
#
memory 32 gb

molecule  {
1 1
  N       -1.4684160    -0.7256290     0.0168660
  C        0.7789870     0.0252000    -0.3750600
  C       -0.0143940    -1.1774380     0.1210740
  C       -0.0289190     1.1951300     0.1928770
  C       -1.4778980     0.8076670    -0.0707360
  C        2.2387250    -0.0120120     0.0592990
  H        0.7264100     0.0548870    -1.4716460
  H        0.1145000    -2.0977020    -0.4513780
  H        0.1860930    -1.3741010     1.1771840
  H        0.2151160     2.1494100    -0.2804030
  H        0.1583560     1.2945460     1.2678570
  H       -2.0155250    -1.0560110     0.8205780
  H       -1.9143950    -1.1326260    -0.8134590
  H       -2.1377329     1.1483083     0.7278950
  H       -1.7986400     1.0658470    -1.0809590
  H        2.7502970    -0.8896260    -0.3442510
  H        2.7625990     0.8753680    -0.3028200
  H        2.3187760    -0.0349210     1.1503390
units angstrom
no_reorient  #important for SAPT in psi4, default
symmetry c1  #important for SAPT in psi4, default
}

set PROPERTIES_ORIGIN ["COM"]
properties('MP2/aug-cc-pvtz', properties = ['dipole'])
--------------------------------------------------------------------------

    Molecular point group: c1
  Charge       = 1
  Multiplicity = 1
  Basis Set: AUG-CC-PVTZ
    Blend: AUG-CC-PVTZ
  Basis Set: (AUG-CC-PVTZ AUX)
    Blend: AUG-CC-PVTZ-JKFIT

    Orbital Energies [Eh]
    ---------------------

    Doubly Occupied:

       1A    -15.864728     2A    -11.464380     3A    -11.459637
       4A    -11.402799     5A    -11.396124     6A    -11.359436
       7A     -1.492770     8A     -1.265011     9A     -1.194620
      10A     -1.098789    11A     -1.022342    12A     -0.975833
      13A     -0.935420    14A     -0.889742    15A     -0.827957
      16A     -0.798123    17A     -0.750494    18A     -0.738338
      19A     -0.712134    20A     -0.703801    21A     -0.681898
      22A     -0.653626    23A     -0.638569    24A     -0.628402

  @DF-RHF Final Energy:  -250.65550986215686

   => Energetics <=

    Nuclear Repulsion Energy =            265.9967845960114801
    One-Electron Energy =                -855.3946440794121600
    Two-Electron Energy =                 338.7423496212438181
    Total Energy =                       -250.6555098621568618
  Basis Set: (AUG-CC-PVTZ AUX)
    Blend: AUG-CC-PVTZ-RI
    Molecular point group: c1

    Geometry (in Angstrom), charge = 1, multiplicity = 1:

       Center              X                  Y                   Z               Mass
    ------------   -----------------  -----------------  -----------------  -----------------
         N           -1.454155522514    -0.724524816673     0.019564323148    14.003074004430
         C            0.793247477486     0.026304183327    -0.372361676852    12.000000000000
         C           -0.000133522514    -1.176333816673     0.123772323148    12.000000000000
         C           -0.014658522514     1.196234183327     0.195575323148    12.000000000000
         C           -1.463637522514     0.808771183327    -0.068037676852    12.000000000000
         C            2.252985477486    -0.010907816673     0.061997323148    12.000000000000
         H            0.740670477486     0.055991183327    -1.468947676852     1.007825032230
         H            0.128760477486    -2.096597816673    -0.448679676852     1.007825032230
         H            0.200353477486    -1.372996816673     1.179882323148     1.007825032230
         H            0.229376477486     2.150514183327    -0.277704676852     1.007825032230
         H            0.172616477486     1.295650183327     1.270555323148     1.007825032230
         H           -2.001264522514    -1.054906816673     0.823276323148     1.007825032230
         H           -1.900134522514    -1.131521816673    -0.810760676852     1.007825032230
         H           -2.123472422514     1.149412483327     0.730593323148     1.007825032230
         H           -1.784379522514     1.066951183327    -1.078260676852     1.007825032230
         H            2.764557477486    -0.888521816673    -0.341552676852     1.007825032230
         H            2.776859477486     0.876472183327    -0.300121676852     1.007825032230
         H            2.333036477486    -0.033816816673     1.153037323148     1.007825032230

  Basis Set: AUG-CC-PVTZ
    Blend: AUG-CC-PVTZ
  Basis Set: (AUG-CC-PVTZ AUX)
    Blend: AUG-CC-PVTZ-JKFIT
	 Reference Energy          =    -250.6555098621568618 [Eh]
	 Singles Energy            =      -0.0000000000000000 [Eh]
	 Same-Spin Energy          =      -0.2611793192782926 [Eh]
	 Opposite-Spin Energy      =      -0.9376509982100689 [Eh]
	 Correlation Energy        =      -1.1988303174883614 [Eh]
	 Total Energy              =    -251.8543401796452201 [Eh]

	 ================> DF-SCS-MP2 Energies <==================
	-----------------------------------------------------------
	 SCS Same-Spin Scale       =       0.3333333333333333 [-]
	 SCS Opposite-Spin Scale   =       1.2000000000000000 [-]
	 SCS Same-Spin Energy      =      -0.0870597730927642 [Eh]
	 SCS Opposite-Spin Energy  =      -1.1251811978520827 [Eh]
	 SCS Correlation Energy    =      -1.2122409709448470 [Eh]
	 SCS Total Energy          =    -251.8677508331016952 [Eh]
	-----------------------------------------------------------

  Dipole Moment: [D]
     X:    -4.1916      Y:    -1.8732      Z:    -0.0010     Total:     4.5911

*** Psi4 exiting successfully. Buy a developer a beer!
