                               Psi4 1.4a3.dev225

  ==> Input File <==

--------------------------------------------------------------------------
#psi4
#
memory 32 gb

molecule  {
1 1
  N       -1.4684160    -0.7256290     0.0168660
  C        0.8266875     0.0948358    -0.4405982
  C       -0.0143940    -1.1774380     0.1210740
  C       -0.0289190     1.1951300     0.1928770
  C       -1.4778980     0.8076670    -0.0707360
  C        2.2387250    -0.0120120     0.0592990
  H        0.7264100     0.0548870    -1.4716460
  H        0.1145000    -2.0977020    -0.4513780
  H        0.1860930    -1.3741010     1.1771840
  H        0.2151160     2.1494100    -0.2804030
  H        0.1583560     1.2945460     1.2678570
  H       -2.0155250    -1.0560110     0.8205780
  H       -1.9143950    -1.1326260    -0.8134590
  H       -2.2036780     1.1930490     0.6461700
  H       -1.7986400     1.0658470    -1.0809590
  H        2.7502970    -0.8896260    -0.3442510
  H        2.7625990     0.8753680    -0.3028200
  H        2.3187760    -0.0349210     1.1503390
units angstrom
no_reorient  #important for SAPT in psi4, default
symmetry c1  #important for SAPT in psi4, default
}

set PROPERTIES_ORIGIN ["COM"]
properties('MP2/aug-cc-pvtz', properties = ['dipole'])
--------------------------------------------------------------------------

    Molecular point group: c1
  Charge       = 1
  Multiplicity = 1
  Basis Set: AUG-CC-PVTZ
    Blend: AUG-CC-PVTZ
  Basis Set: (AUG-CC-PVTZ AUX)
    Blend: AUG-CC-PVTZ-JKFIT

    Orbital Energies [Eh]
    ---------------------

    Doubly Occupied:

       1A    -15.864058     2A    -11.464086     3A    -11.458597
       4A    -11.405518     5A    -11.397333     6A    -11.358712
       7A     -1.488699     8A     -1.260813     9A     -1.188654
      10A     -1.098580    11A     -1.023698    12A     -0.977245
      13A     -0.936125    14A     -0.890606    15A     -0.823584
      16A     -0.791148    17A     -0.750968    18A     -0.739144
      19A     -0.715735    20A     -0.699981    21A     -0.684204
      22A     -0.662547    23A     -0.642791    24A     -0.611959

  @DF-RHF Final Energy:  -250.64660482328318

   => Energetics <=

    Nuclear Repulsion Energy =            264.9395300806513092
    One-Electron Energy =                -853.3026949277505082
    Two-Electron Energy =                 337.7165600238159300
    Total Energy =                       -250.6466048232832122
  Basis Set: (AUG-CC-PVTZ AUX)
    Blend: AUG-CC-PVTZ-RI
    Molecular point group: c1

    Geometry (in Angstrom), charge = 1, multiplicity = 1:

       Center              X                  Y                   Z               Mass
    ------------   -----------------  -----------------  -----------------  -----------------
         N           -1.460031976141    -0.734754216761     0.029655536073    14.003074004430
         C            0.835071523859     0.085710583239    -0.427808663927    12.000000000000
         C           -0.006009976141    -1.186563216761     0.133863536073    12.000000000000
         C           -0.020534976141     1.186004783239     0.205666536073    12.000000000000
         C           -1.469513976141     0.798541783239    -0.057946463927    12.000000000000
         C            2.247109023859    -0.021137216761     0.072088536073    12.000000000000
         H            0.734794023859     0.045761783239    -1.458856463927     1.007825032230
         H            0.122884023859    -2.106827216761    -0.438588463927     1.007825032230
         H            0.194477023859    -1.383226216761     1.189973536073     1.007825032230
         H            0.223500023859     2.140284783239    -0.267613463927     1.007825032230
         H            0.166740023859     1.285420783239     1.280646536073     1.007825032230
         H           -2.007140976141    -1.065136216761     0.833367536073     1.007825032230
         H           -1.906010976141    -1.141751216761    -0.800669463927     1.007825032230
         H           -2.195293976141     1.183923783239     0.658959536073     1.007825032230
         H           -1.790255976141     1.056721783239    -1.068169463927     1.007825032230
         H            2.758681023859    -0.898751216761    -0.331461463927     1.007825032230
         H            2.770983023859     0.866242783239    -0.290030463927     1.007825032230
         H            2.327160023859    -0.044046216761     1.163128536073     1.007825032230

  Basis Set: AUG-CC-PVTZ
    Blend: AUG-CC-PVTZ
  Basis Set: (AUG-CC-PVTZ AUX)
    Blend: AUG-CC-PVTZ-JKFIT
	 Reference Energy          =    -250.6466048232831838 [Eh]
	 Singles Energy            =      -0.0000000000000000 [Eh]
	 Same-Spin Energy          =      -0.2610175245579459 [Eh]
	 Opposite-Spin Energy      =      -0.9378181416600484 [Eh]
	 Correlation Energy        =      -1.1988356662179942 [Eh]
	 Total Energy              =    -251.8454404895011862 [Eh]

	 ================> DF-SCS-MP2 Energies <==================
	-----------------------------------------------------------
	 SCS Same-Spin Scale       =       0.3333333333333333 [-]
	 SCS Opposite-Spin Scale   =       1.2000000000000000 [-]
	 SCS Same-Spin Energy      =      -0.0870058415193153 [Eh]
	 SCS Opposite-Spin Energy  =      -1.1253817699920581 [Eh]
	 SCS Correlation Energy    =      -1.2123876115113734 [Eh]
	 SCS Total Energy          =    -251.8589924347945441 [Eh]
	-----------------------------------------------------------

  Dipole Moment: [D]
     X:    -4.2135      Y:    -1.8632      Z:    -0.0025     Total:     4.6071

*** Psi4 exiting successfully. Buy a developer a beer!
