                               Psi4 1.4a3.dev225

  ==> Input File <==

--------------------------------------------------------------------------
#psi4
#
memory 32 gb

molecule  {
1 1
  N       -1.4684160    -0.7256290     0.0168660
  C        0.7789870     0.0252000    -0.3750600
  C       -0.0143940    -1.1774380     0.1210740
  C       -0.0226068     1.1871841     0.2175959
  C       -1.4778980     0.8076670    -0.0707360
  C        2.2387250    -0.0120120     0.0592990
  H        0.7264100     0.0548870    -1.4716460
  H        0.1145000    -2.0977020    -0.4513780
  H        0.1860930    -1.3741010     1.1771840
  H        0.2151160     2.1494100    -0.2804030
  H        0.1583560     1.2945460     1.2678570
  H       -2.0155250    -1.0560110     0.8205780
  H       -1.9143950    -1.1326260    -0.8134590
  H       -2.2036780     1.1930490     0.6461700
  H       -1.7986400     1.0658470    -1.0809590
  H        2.7502970    -0.8896260    -0.3442510
  H        2.7625990     0.8753680    -0.3028200
  H        2.3187760    -0.0349210     1.1503390
units angstrom
no_reorient  #important for SAPT in psi4, default
symmetry c1  #important for SAPT in psi4, default
}

set PROPERTIES_ORIGIN ["COM"]
properties('MP2/aug-cc-pvtz', properties = ['dipole'])
--------------------------------------------------------------------------

    Molecular point group: c1
  Charge       = 1
  Multiplicity = 1
  Basis Set: AUG-CC-PVTZ
    Blend: AUG-CC-PVTZ
  Basis Set: (AUG-CC-PVTZ AUX)
    Blend: AUG-CC-PVTZ-JKFIT

    Orbital Energies [Eh]
    ---------------------

    Doubly Occupied:

       1A    -15.865132     2A    -11.464000     3A    -11.459726
       4A    -11.403073     5A    -11.396564     6A    -11.359449
       7A     -1.492354     8A     -1.264928     9A     -1.192742
      10A     -1.098830    11A     -1.024228    12A     -0.975331
      13A     -0.934531    14A     -0.891912    15A     -0.828589
      16A     -0.792556    17A     -0.752907    18A     -0.737915
      19A     -0.711870    20A     -0.701973    21A     -0.681815
      22A     -0.654093    23A     -0.639912    24A     -0.629049

  @DF-RHF Final Energy:  -250.65604371631918

   => Energetics <=

    Nuclear Repulsion Energy =            265.8809054615470586
    One-Electron Energy =                -855.1669373765932960
    Two-Electron Energy =                 338.6299881987270624
    Total Energy =                       -250.6560437163191750
  Basis Set: (AUG-CC-PVTZ AUX)
    Blend: AUG-CC-PVTZ-RI
    Molecular point group: c1

    Geometry (in Angstrom), charge = 1, multiplicity = 1:

       Center              X                  Y                   Z               Mass
    ------------   -----------------  -----------------  -----------------  -----------------
         N           -1.454263369247    -0.723941056292     0.017075707250    14.003074004430
         C            0.793139630753     0.026887943708    -0.374850292750    12.000000000000
         C           -0.000241369247    -1.175750056292     0.121283707250    12.000000000000
         C           -0.008454169247     1.188872043708     0.217805607250    12.000000000000
         C           -1.463745369247     0.809354943708    -0.070526292750    12.000000000000
         C            2.252877630753    -0.010324056292     0.059508707250    12.000000000000
         H            0.740562630753     0.056574943708    -1.471436292750     1.007825032230
         H            0.128652630753    -2.096014056292    -0.451168292750     1.007825032230
         H            0.200245630753    -1.372413056292     1.177393707250     1.007825032230
         H            0.229268630753     2.151097943708    -0.280193292750     1.007825032230
         H            0.172508630753     1.296233943708     1.268066707250     1.007825032230
         H           -2.001372369247    -1.054323056292     0.820787707250     1.007825032230
         H           -1.900242369247    -1.130938056292    -0.813249292750     1.007825032230
         H           -2.189525369247     1.194736943708     0.646379707250     1.007825032230
         H           -1.784487369247     1.067534943708    -1.080749292750     1.007825032230
         H            2.764449630753    -0.887938056292    -0.344041292750     1.007825032230
         H            2.776751630753     0.877055943708    -0.302610292750     1.007825032230
         H            2.332928630753    -0.033233056292     1.150548707250     1.007825032230

  Basis Set: AUG-CC-PVTZ
    Blend: AUG-CC-PVTZ
  Basis Set: (AUG-CC-PVTZ AUX)
    Blend: AUG-CC-PVTZ-JKFIT
	 Reference Energy          =    -250.6560437163191750 [Eh]
	 Singles Energy            =      -0.0000000000000000 [Eh]
	 Same-Spin Energy          =      -0.2611057929886436 [Eh]
	 Opposite-Spin Energy      =      -0.9374558372434869 [Eh]
	 Correlation Energy        =      -1.1985616302321305 [Eh]
	 Total Energy              =    -251.8546053465512955 [Eh]

	 ================> DF-SCS-MP2 Energies <==================
	-----------------------------------------------------------
	 SCS Same-Spin Scale       =       0.3333333333333333 [-]
	 SCS Opposite-Spin Scale   =       1.2000000000000000 [-]
	 SCS Same-Spin Energy      =      -0.0870352643295479 [Eh]
	 SCS Opposite-Spin Energy  =      -1.1249470046921843 [Eh]
	 SCS Correlation Energy    =      -1.2119822690217321 [Eh]
	 SCS Total Energy          =    -251.8680259853409211 [Eh]
	-----------------------------------------------------------

  Dipole Moment: [D]
     X:    -4.2218      Y:    -1.8571      Z:    -0.0226     Total:     4.6123

*** Psi4 exiting successfully. Buy a developer a beer!
