                               Psi4 1.4a3.dev225

  ==> Input File <==

--------------------------------------------------------------------------
#psi4
#
memory 32 gb

molecule  {
1 1
  N       -1.4684160    -0.7256290     0.0168660
  C        0.7867453    -0.0201264    -0.4017615
  C       -0.0143940    -1.1774380     0.1210740
  C       -0.0289190     1.1951300     0.1928770
  C       -1.4778980     0.8076670    -0.0707360
  C        2.2387250    -0.0120120     0.0592990
  H        0.7264100     0.0548870    -1.4716460
  H        0.1145000    -2.0977020    -0.4513780
  H        0.1860930    -1.3741010     1.1771840
  H        0.2151160     2.1494100    -0.2804030
  H        0.1583560     1.2945460     1.2678570
  H       -2.0155250    -1.0560110     0.8205780
  H       -1.9143950    -1.1326260    -0.8134590
  H       -2.2036780     1.1930490     0.6461700
  H       -1.7986400     1.0658470    -1.0809590
  H        2.7502970    -0.8896260    -0.3442510
  H        2.7625990     0.8753680    -0.3028200
  H        2.3187760    -0.0349210     1.1503390
units angstrom
no_reorient  #important for SAPT in psi4, default
symmetry c1  #important for SAPT in psi4, default
}

set PROPERTIES_ORIGIN ["COM"]
properties('MP2/aug-cc-pvtz', properties = ['dipole'])
--------------------------------------------------------------------------

    Molecular point group: c1
  Charge       = 1
  Multiplicity = 1
  Basis Set: AUG-CC-PVTZ
    Blend: AUG-CC-PVTZ
  Basis Set: (AUG-CC-PVTZ AUX)
    Blend: AUG-CC-PVTZ-JKFIT

    Orbital Energies [Eh]
    ---------------------

    Doubly Occupied:

       1A    -15.865854     2A    -11.463033     3A    -11.460138
       4A    -11.402333     5A    -11.397658     6A    -11.359752
       7A     -1.492847     8A     -1.261780     9A     -1.195048
      10A     -1.099472    11A     -1.019191    12A     -0.977480
      13A     -0.936078    14A     -0.893659    15A     -0.828698
      16A     -0.791786    17A     -0.753046    18A     -0.738518
      19A     -0.711817    20A     -0.702546    21A     -0.678955
      22A     -0.658959    23A     -0.647390    24A     -0.616088

  @DF-RHF Final Energy:  -250.65452360149374

   => Energetics <=

    Nuclear Repulsion Energy =            265.6307998306832019
    One-Electron Energy =                -854.6663976926025725
    Two-Electron Energy =                 338.3810742604255779
    Total Energy =                       -250.6545236014937359
  Basis Set: (AUG-CC-PVTZ AUX)
    Blend: AUG-CC-PVTZ-RI
    Molecular point group: c1

    Geometry (in Angstrom), charge = 1, multiplicity = 1:

       Center              X                  Y                   Z               Mass
    ------------   -----------------  -----------------  -----------------  -----------------
         N           -1.454464923369    -0.718731047425     0.024242565370    14.003074004430
         C            0.800696376631    -0.013228447425    -0.394384934630    12.000000000000
         C           -0.000442923369    -1.170540047425     0.128450565370    12.000000000000
         C           -0.014967923369     1.202027952575     0.200253565370    12.000000000000
         C           -1.463946923369     0.814564952575    -0.063359434630    12.000000000000
         C            2.252676076631    -0.005114047425     0.066675565370    12.000000000000
         H            0.740361076631     0.061784952575    -1.464269434630     1.007825032230
         H            0.128451076631    -2.090804047425    -0.444001434630     1.007825032230
         H            0.200044076631    -1.367203047425     1.184560565370     1.007825032230
         H            0.229067076631     2.156307952575    -0.273026434630     1.007825032230
         H            0.172307076631     1.301443952575     1.275233565370     1.007825032230
         H           -2.001573923369    -1.049113047425     0.827954565370     1.007825032230
         H           -1.900443923369    -1.125728047425    -0.806082434630     1.007825032230
         H           -2.189726923369     1.199946952575     0.653546565370     1.007825032230
         H           -1.784688923369     1.072744952575    -1.073582434630     1.007825032230
         H            2.764248076631    -0.882728047425    -0.336874434630     1.007825032230
         H            2.776550076631     0.882265952575    -0.295443434630     1.007825032230
         H            2.332727076631    -0.028023047425     1.157715565370     1.007825032230

  Basis Set: AUG-CC-PVTZ
    Blend: AUG-CC-PVTZ
  Basis Set: (AUG-CC-PVTZ AUX)
    Blend: AUG-CC-PVTZ-JKFIT
	 Reference Energy          =    -250.6545236014937359 [Eh]
	 Singles Energy            =      -0.0000000000000000 [Eh]
	 Same-Spin Energy          =      -0.2610924906783335 [Eh]
	 Opposite-Spin Energy      =      -0.9375091293342843 [Eh]
	 Correlation Energy        =      -1.1986016200126177 [Eh]
	 Total Energy              =    -251.8531252215063603 [Eh]

	 ================> DF-SCS-MP2 Energies <==================
	-----------------------------------------------------------
	 SCS Same-Spin Scale       =       0.3333333333333333 [-]
	 SCS Opposite-Spin Scale   =       1.2000000000000000 [-]
	 SCS Same-Spin Energy      =      -0.0870308302261111 [Eh]
	 SCS Opposite-Spin Energy  =      -1.1250109552011411 [Eh]
	 SCS Correlation Energy    =      -1.2120417854272523 [Eh]
	 SCS Total Energy          =    -251.8665653869209962 [Eh]
	-----------------------------------------------------------

  Dipole Moment: [D]
     X:    -4.2117      Y:    -1.8514      Z:    -0.0065     Total:     4.6007

*** Psi4 exiting successfully. Buy a developer a beer!
