                               Psi4 1.4a3.dev225

  ==> Input File <==

--------------------------------------------------------------------------
#psi4
#
memory 32 gb

molecule  {
1 1
  N       -1.4684160    -0.7256290     0.0168660
  C        0.7789870     0.0252000    -0.3750600
  C       -0.0143940    -1.1774380     0.1210740
  C       -0.0289190     1.1951300     0.1928770
  C       -1.4778980     0.8076670    -0.0707360
  C        2.2387250    -0.0120120     0.0592990
  H        0.7264100     0.0548870    -1.4716460
  H        0.1263097    -2.1820199    -0.5038281
  H        0.1860930    -1.3741010     1.1771840
  H        0.2151160     2.1494100    -0.2804030
  H        0.1583560     1.2945460     1.2678570
  H       -2.0155250    -1.0560110     0.8205780
  H       -1.9143950    -1.1326260    -0.8134590
  H       -2.2036780     1.1930490     0.6461700
  H       -1.7986400     1.0658470    -1.0809590
  H        2.7502970    -0.8896260    -0.3442510
  H        2.7625990     0.8753680    -0.3028200
  H        2.3187760    -0.0349210     1.1503390
units angstrom
no_reorient  #important for SAPT in psi4, default
symmetry c1  #important for SAPT in psi4, default
}

set PROPERTIES_ORIGIN ["COM"]
properties('MP2/aug-cc-pvtz', properties = ['dipole'])
--------------------------------------------------------------------------

    Molecular point group: c1
  Charge       = 1
  Multiplicity = 1
  Basis Set: AUG-CC-PVTZ
    Blend: AUG-CC-PVTZ
  Basis Set: (AUG-CC-PVTZ AUX)
    Blend: AUG-CC-PVTZ-JKFIT

    Orbital Energies [Eh]
    ---------------------

    Doubly Occupied:

       1A    -15.866066     2A    -11.470123     3A    -11.464114
       4A    -11.403586     5A    -11.397216     6A    -11.359611
       7A     -1.492610     8A     -1.265029     9A     -1.191066
      10A     -1.096010    11A     -1.022457    12A     -0.975094
      13A     -0.931406    14A     -0.888341    15A     -0.827709
      16A     -0.789552    17A     -0.747465    18A     -0.739630
      19A     -0.705793    20A     -0.702021    21A     -0.679589
      22A     -0.654522    23A     -0.638855    24A     -0.628347

  @DF-RHF Final Energy:  -250.64984745672248

   => Energetics <=

    Nuclear Repulsion Energy =            265.4164653361150386
    One-Electron Energy =                -854.2601997292359783
    Two-Electron Energy =                 338.1938869363984281
    Total Energy =                       -250.6498474567225117
  Basis Set: (AUG-CC-PVTZ AUX)
    Blend: AUG-CC-PVTZ-RI
    Molecular point group: c1

    Geometry (in Angstrom), charge = 1, multiplicity = 1:

       Center              X                  Y                   Z               Mass
    ------------   -----------------  -----------------  -----------------  -----------------
         N           -1.453521829964    -0.724061537990     0.021134936116    14.003074004430
         C            0.793881170036     0.026767462010    -0.370791063884    12.000000000000
         C            0.000500170036    -1.175870537990     0.125342936116    12.000000000000
         C           -0.014024829964     1.196697462010     0.197145936116    12.000000000000
         C           -1.463003829964     0.809234462010    -0.066467063884    12.000000000000
         C            2.253619170036    -0.010444537990     0.063567936116    12.000000000000
         H            0.741304170036     0.056454462010    -1.467377063884     1.007825032230
         H            0.141203870036    -2.180452437990    -0.499559163884     1.007825032230
         H            0.200987170036    -1.372533537990     1.181452936116     1.007825032230
         H            0.230010170036     2.150977462010    -0.276134063884     1.007825032230
         H            0.173250170036     1.296113462010     1.272125936116     1.007825032230
         H           -2.000630829964    -1.054443537990     0.824846936116     1.007825032230
         H           -1.899500829964    -1.131058537990    -0.809190063884     1.007825032230
         H           -2.188783829964     1.194616462010     0.650438936116     1.007825032230
         H           -1.783745829964     1.067414462010    -1.076690063884     1.007825032230
         H            2.765191170036    -0.888058537990    -0.339982063884     1.007825032230
         H            2.777493170036     0.876935462010    -0.298551063884     1.007825032230
         H            2.333670170036    -0.033353537990     1.154607936116     1.007825032230

  Basis Set: AUG-CC-PVTZ
    Blend: AUG-CC-PVTZ
  Basis Set: (AUG-CC-PVTZ AUX)
    Blend: AUG-CC-PVTZ-JKFIT
	 Reference Energy          =    -250.6498474567224832 [Eh]
	 Singles Energy            =      -0.0000000000000000 [Eh]
	 Same-Spin Energy          =      -0.2612696164239874 [Eh]
	 Opposite-Spin Energy      =      -0.9383021723913811 [Eh]
	 Correlation Energy        =      -1.1995717888153685 [Eh]
	 Total Energy              =    -251.8494192455378595 [Eh]

	 ================> DF-SCS-MP2 Energies <==================
	-----------------------------------------------------------
	 SCS Same-Spin Scale       =       0.3333333333333333 [-]
	 SCS Opposite-Spin Scale   =       1.2000000000000000 [-]
	 SCS Same-Spin Energy      =      -0.0870898721413291 [Eh]
	 SCS Opposite-Spin Energy  =      -1.1259626068696573 [Eh]
	 SCS Correlation Energy    =      -1.2130524790109865 [Eh]
	 SCS Total Energy          =    -251.8628999357334806 [Eh]
	-----------------------------------------------------------

  Dipole Moment: [D]
     X:    -4.2176      Y:    -1.8557      Z:    -0.0229     Total:     4.6078

*** Psi4 exiting successfully. Buy a developer a beer!
