                               Psi4 1.4a3.dev225

  ==> Input File <==

--------------------------------------------------------------------------
#psi4
#
memory 32 gb

molecule  {
1 1
  N       -1.4279133    -0.6021078     0.1097150
  C        0.7789870     0.0252000    -0.3750600
  C       -0.0143940    -1.1774380     0.1210740
  C       -0.0289190     1.1951300     0.1928770
  C       -1.4778980     0.8076670    -0.0707360
  C        2.2387250    -0.0120120     0.0592990
  H        0.7264100     0.0548870    -1.4716460
  H        0.1145000    -2.0977020    -0.4513780
  H        0.1860930    -1.3741010     1.1771840
  H        0.2151160     2.1494100    -0.2804030
  H        0.1583560     1.2945460     1.2678570
  H       -2.0155250    -1.0560110     0.8205780
  H       -1.9143950    -1.1326260    -0.8134590
  H       -2.2036780     1.1930490     0.6461700
  H       -1.7986400     1.0658470    -1.0809590
  H        2.7502970    -0.8896260    -0.3442510
  H        2.7625990     0.8753680    -0.3028200
  H        2.3187760    -0.0349210     1.1503390
units angstrom
no_reorient  #important for SAPT in psi4, default
symmetry c1  #important for SAPT in psi4, default
}

set PROPERTIES_ORIGIN ["COM"]
properties('MP2/aug-cc-pvtz', properties = ['dipole'])
--------------------------------------------------------------------------

    Molecular point group: c1
  Charge       = 1
  Multiplicity = 1
  Basis Set: AUG-CC-PVTZ
    Blend: AUG-CC-PVTZ
  Basis Set: (AUG-CC-PVTZ AUX)
    Blend: AUG-CC-PVTZ-JKFIT

    Orbital Energies [Eh]
    ---------------------

    Doubly Occupied:

       1A    -15.876639     2A    -11.461452     3A    -11.453370
       4A    -11.401830     5A    -11.393946     6A    -11.358763
       7A     -1.506888     8A     -1.259840     9A     -1.203875
      10A     -1.097592    11A     -1.025515    12A     -0.967169
      13A     -0.919014    14A     -0.911466    15A     -0.819081
      16A     -0.795432    17A     -0.766343    18A     -0.734711
      19A     -0.710206    20A     -0.689075    21A     -0.672907
      22A     -0.654155    23A     -0.637653    24A     -0.627886

  @DF-RHF Final Energy:  -250.62531296394371

   => Energetics <=

    Nuclear Repulsion Energy =            267.6989417215524441
    One-Electron Energy =                -858.7588869788305601
    Two-Electron Energy =                 340.4346322933343458
    Total Energy =                       -250.6253129639437134
  Basis Set: (AUG-CC-PVTZ AUX)
    Blend: AUG-CC-PVTZ-RI
    Molecular point group: c1

    Geometry (in Angstrom), charge = 1, multiplicity = 1:

       Center              X                  Y                   Z               Mass
    ------------   -----------------  -----------------  -----------------  -----------------
         N           -1.419468371626    -0.621617201699     0.098268727172    14.003074004430
         C            0.787431928374     0.005690598301    -0.386506272828    12.000000000000
         C           -0.005949071626    -1.196947401699     0.109627727172    12.000000000000
         C           -0.020474071626     1.175620598301     0.181430727172    12.000000000000
         C           -1.469453071626     0.788157598301    -0.082182272828    12.000000000000
         C            2.247169928374    -0.031521401699     0.047852727172    12.000000000000
         H            0.734854928374     0.035377598301    -1.483092272828     1.007825032230
         H            0.122944928374    -2.117211401699    -0.462824272828     1.007825032230
         H            0.194537928374    -1.393610401699     1.165737727172     1.007825032230
         H            0.223560928374     2.129900598301    -0.291849272828     1.007825032230
         H            0.166800928374     1.275036598301     1.256410727172     1.007825032230
         H           -2.007080071626    -1.075520401699     0.809131727172     1.007825032230
         H           -1.905950071626    -1.152135401699    -0.824905272828     1.007825032230
         H           -2.195233071626     1.173539598301     0.634723727172     1.007825032230
         H           -1.790195071626     1.046337598301    -1.092405272828     1.007825032230
         H            2.758741928374    -0.909135401699    -0.355697272828     1.007825032230
         H            2.771043928374     0.855858598301    -0.314266272828     1.007825032230
         H            2.327220928374    -0.054430401699     1.138892727172     1.007825032230

  Basis Set: AUG-CC-PVTZ
    Blend: AUG-CC-PVTZ
  Basis Set: (AUG-CC-PVTZ AUX)
    Blend: AUG-CC-PVTZ-JKFIT
	 Reference Energy          =    -250.6253129639437134 [Eh]
	 Singles Energy            =      -0.0000000000000000 [Eh]
	 Same-Spin Energy          =      -0.2633961726130403 [Eh]
	 Opposite-Spin Energy      =      -0.9410475746988202 [Eh]
	 Correlation Energy        =      -1.2044437473118603 [Eh]
	 Total Energy              =    -251.8297567112555839 [Eh]

	 ================> DF-SCS-MP2 Energies <==================
	-----------------------------------------------------------
	 SCS Same-Spin Scale       =       0.3333333333333333 [-]
	 SCS Opposite-Spin Scale   =       1.2000000000000000 [-]
	 SCS Same-Spin Energy      =      -0.0877987242043468 [Eh]
	 SCS Opposite-Spin Energy  =      -1.1292570896385841 [Eh]
	 SCS Correlation Energy    =      -1.2170558138429308 [Eh]
	 SCS Total Energy          =    -251.8423687777866462 [Eh]
	-----------------------------------------------------------

  Dipole Moment: [D]
     X:    -4.3222      Y:    -2.1203      Z:    -0.1064     Total:     4.8154

*** Psi4 exiting successfully. Buy a developer a beer!
