                               Psi4 1.4a3.dev225

  ==> Input File <==

--------------------------------------------------------------------------
#psi4
#
memory 32 gb

molecule  {
1 1
  N       -1.4865877    -0.8108124    -0.0444614
  C        0.7789870     0.0252000    -0.3750600
  C       -0.0143940    -1.1774380     0.1210740
  C       -0.0289190     1.1951300     0.1928770
  C       -1.4778980     0.8076670    -0.0707360
  C        2.2387250    -0.0120120     0.0592990
  H        0.7264100     0.0548870    -1.4716460
  H        0.1145000    -2.0977020    -0.4513780
  H        0.1860930    -1.3741010     1.1771840
  H        0.2151160     2.1494100    -0.2804030
  H        0.1583560     1.2945460     1.2678570
  H       -2.0155250    -1.0560110     0.8205780
  H       -1.9143950    -1.1326260    -0.8134590
  H       -2.2036780     1.1930490     0.6461700
  H       -1.7986400     1.0658470    -1.0809590
  H        2.7502970    -0.8896260    -0.3442510
  H        2.7625990     0.8753680    -0.3028200
  H        2.3187760    -0.0349210     1.1503390
units angstrom
no_reorient  #important for SAPT in psi4, default
symmetry c1  #important for SAPT in psi4, default
}

set PROPERTIES_ORIGIN ["COM"]
properties('MP2/aug-cc-pvtz', properties = ['dipole'])
--------------------------------------------------------------------------

    Molecular point group: c1
  Charge       = 1
  Multiplicity = 1
  Basis Set: AUG-CC-PVTZ
    Blend: AUG-CC-PVTZ
  Basis Set: (AUG-CC-PVTZ AUX)
    Blend: AUG-CC-PVTZ-JKFIT

    Orbital Energies [Eh]
    ---------------------

    Doubly Occupied:

       1A    -15.856459     2A    -11.471975     3A    -11.459768
       4A    -11.404050     5A    -11.399307     6A    -11.360223
       7A     -1.486947     8A     -1.269428     9A     -1.189430
      10A     -1.101842    11A     -1.026322    12A     -0.981604
      13A     -0.940545    14A     -0.878574    15A     -0.835621
      16A     -0.793808    17A     -0.746044    18A     -0.732315
      19A     -0.715414    20A     -0.706848    21A     -0.681420
      22A     -0.654956    23A     -0.639274    24A     -0.630537

  @DF-RHF Final Energy:  -250.64517973638084

   => Energetics <=

    Nuclear Repulsion Energy =            264.7577862765721761
    One-Electron Energy =                -852.8805084457301291
    Two-Electron Energy =                 337.4775424327770565
    Total Energy =                       -250.6451797363808396
  Basis Set: (AUG-CC-PVTZ AUX)
    Blend: AUG-CC-PVTZ-RI
    Molecular point group: c1

    Geometry (in Angstrom), charge = 1, multiplicity = 1:

       Center              X                  Y                   Z               Mass
    ------------   -----------------  -----------------  -----------------  -----------------
         N           -1.468599788598    -0.796377450234    -0.030831953800    14.003074004430
         C            0.796974911402     0.039634949766    -0.361430553800    12.000000000000
         C            0.003593911402    -1.163003050234     0.134703446200    12.000000000000
         C           -0.010931088598     1.209564949766     0.206506446200    12.000000000000
         C           -1.459910088598     0.822101949766    -0.057106553800    12.000000000000
         C            2.256712911402     0.002422949766     0.072928446200    12.000000000000
         H            0.744397911402     0.069321949766    -1.458016553800     1.007825032230
         H            0.132487911402    -2.083267050234    -0.437748553800     1.007825032230
         H            0.204080911402    -1.359666050234     1.190813446200     1.007825032230
         H            0.233103911402     2.163844949766    -0.266773553800     1.007825032230
         H            0.176343911402     1.308980949766     1.281486446200     1.007825032230
         H           -1.997537088598    -1.041576050234     0.834207446200     1.007825032230
         H           -1.896407088598    -1.118191050234    -0.799829553800     1.007825032230
         H           -2.185690088598     1.207483949766     0.659799446200     1.007825032230
         H           -1.780652088598     1.080281949766    -1.067329553800     1.007825032230
         H            2.768284911402    -0.875191050234    -0.330621553800     1.007825032230
         H            2.780586911402     0.889802949766    -0.289190553800     1.007825032230
         H            2.336763911402    -0.020486050234     1.163968446200     1.007825032230

  Basis Set: AUG-CC-PVTZ
    Blend: AUG-CC-PVTZ
  Basis Set: (AUG-CC-PVTZ AUX)
    Blend: AUG-CC-PVTZ-JKFIT
	 Reference Energy          =    -250.6451797363808396 [Eh]
	 Singles Energy            =      -0.0000000000000000 [Eh]
	 Same-Spin Energy          =      -0.2606148733849326 [Eh]
	 Opposite-Spin Energy      =      -0.9370770483258617 [Eh]
	 Correlation Energy        =      -1.1976919217107942 [Eh]
	 Total Energy              =    -251.8428716580916387 [Eh]

	 ================> DF-SCS-MP2 Energies <==================
	-----------------------------------------------------------
	 SCS Same-Spin Scale       =       0.3333333333333333 [-]
	 SCS Opposite-Spin Scale   =       1.2000000000000000 [-]
	 SCS Same-Spin Energy      =      -0.0868716244616442 [Eh]
	 SCS Opposite-Spin Energy  =      -1.1244924579910340 [Eh]
	 SCS Correlation Energy    =      -1.2113640824526781 [Eh]
	 SCS Total Energy          =    -251.8565438188335293 [Eh]
	-----------------------------------------------------------

  Dipole Moment: [D]
     X:    -4.1402      Y:    -1.6528      Z:     0.0602     Total:     4.4583

*** Psi4 exiting successfully. Buy a developer a beer!
