                               Psi4 1.4a3.dev225

  ==> Input File <==

--------------------------------------------------------------------------
#psi4
#
memory 32 gb

molecule  {
1 1
  N       -1.4684160    -0.7256290     0.0168660
  C        0.7789870     0.0252000    -0.3750600
  C       -0.0143940    -1.1774380     0.1210740
  C       -0.0289190     1.1951300     0.1928770
  C       -1.4778980     0.8076670    -0.0707360
  C        2.2387250    -0.0120120     0.0592990
  H        0.7311974     0.0521839    -1.3717972
  H        0.1145000    -2.0977020    -0.4513780
  H        0.1860930    -1.3741010     1.1771840
  H        0.2151160     2.1494100    -0.2804030
  H        0.1583560     1.2945460     1.2678570
  H       -2.0155250    -1.0560110     0.8205780
  H       -1.9143950    -1.1326260    -0.8134590
  H       -2.2036780     1.1930490     0.6461700
  H       -1.7986400     1.0658470    -1.0809590
  H        2.7502970    -0.8896260    -0.3442510
  H        2.7625990     0.8753680    -0.3028200
  H        2.3187760    -0.0349210     1.1503390
units angstrom
no_reorient  #important for SAPT in psi4, default
symmetry c1  #important for SAPT in psi4, default
}

set PROPERTIES_ORIGIN ["COM"]
properties('MP2/aug-cc-pvtz', properties = ['dipole'])
--------------------------------------------------------------------------

    Molecular point group: c1
  Charge       = 1
  Multiplicity = 1
  Basis Set: AUG-CC-PVTZ
    Blend: AUG-CC-PVTZ
  Basis Set: (AUG-CC-PVTZ AUX)
    Blend: AUG-CC-PVTZ-JKFIT

    Orbital Energies [Eh]
    ---------------------

    Doubly Occupied:

       1A    -15.865560     2A    -11.463844     3A    -11.459335
       4A    -11.396026     5A    -11.390849     6A    -11.358783
       7A     -1.492791     8A     -1.268657     9A     -1.194368
      10A     -1.098846    11A     -1.023784    12A     -0.982487
      13A     -0.939566    14A     -0.894785    15A     -0.832190
      16A     -0.792396    17A     -0.753578    18A     -0.739505
      19A     -0.713198    20A     -0.703580    21A     -0.679511
      22A     -0.654022    23A     -0.647309    24A     -0.629754

  @DF-RHF Final Energy:  -250.65120446016840

   => Energetics <=

    Nuclear Repulsion Energy =            266.4082872891705165
    One-Electron Energy =                -856.1695368698922266
    Two-Electron Energy =                 339.1100451205533091
    Total Energy =                       -250.6512044601684011
  Basis Set: (AUG-CC-PVTZ AUX)
    Blend: AUG-CC-PVTZ-RI
    Molecular point group: c1

    Geometry (in Angstrom), charge = 1, multiplicity = 1:

       Center              X                  Y                   Z               Mass
    ------------   -----------------  -----------------  -----------------  -----------------
         N           -1.453439629053    -0.725016896051     0.019352171450    14.003074004430
         C            0.793963370947     0.025812103949    -0.372573828550    12.000000000000
         C            0.000582370947    -1.176825896051     0.123560171450    12.000000000000
         C           -0.013942629053     1.195742103949     0.195363171450    12.000000000000
         C           -1.462921629053     0.808279103949    -0.068249828550    12.000000000000
         C            2.253701370947    -0.011399896051     0.061785171450    12.000000000000
         H            0.746173770947     0.052796003949    -1.369311028550     1.007825032230
         H            0.129476370947    -2.097089896051    -0.448891828550     1.007825032230
         H            0.201069370947    -1.373488896051     1.179670171450     1.007825032230
         H            0.230092370947     2.150022103949    -0.277916828550     1.007825032230
         H            0.173332370947     1.295158103949     1.270343171450     1.007825032230
         H           -2.000548629053    -1.055398896051     0.823064171450     1.007825032230
         H           -1.899418629053    -1.132013896051    -0.810972828550     1.007825032230
         H           -2.188701629053     1.193661103949     0.648656171450     1.007825032230
         H           -1.783663629053     1.066459103949    -1.078472828550     1.007825032230
         H            2.765273370947    -0.889013896051    -0.341764828550     1.007825032230
         H            2.777575370947     0.875980103949    -0.300333828550     1.007825032230
         H            2.333752370947    -0.034308896051     1.152825171450     1.007825032230

  Basis Set: AUG-CC-PVTZ
    Blend: AUG-CC-PVTZ
  Basis Set: (AUG-CC-PVTZ AUX)
    Blend: AUG-CC-PVTZ-JKFIT
	 Reference Energy          =    -250.6512044601684011 [Eh]
	 Singles Energy            =      -0.0000000000000000 [Eh]
	 Same-Spin Energy          =      -0.2610401770469355 [Eh]
	 Opposite-Spin Energy      =      -0.9368552595018557 [Eh]
	 Correlation Energy        =      -1.1978954365487913 [Eh]
	 Total Energy              =    -251.8490998967172061 [Eh]

	 ================> DF-SCS-MP2 Energies <==================
	-----------------------------------------------------------
	 SCS Same-Spin Scale       =       0.3333333333333333 [-]
	 SCS Opposite-Spin Scale   =       1.2000000000000000 [-]
	 SCS Same-Spin Energy      =      -0.0870133923489785 [Eh]
	 SCS Opposite-Spin Energy  =      -1.1242263114022268 [Eh]
	 SCS Correlation Energy    =      -1.2112397037512053 [Eh]
	 SCS Total Energy          =    -251.8624441639196050 [Eh]
	-----------------------------------------------------------

  Dipole Moment: [D]
     X:    -4.2391      Y:    -1.8701      Z:    -0.0514     Total:     4.6336

*** Psi4 exiting successfully. Buy a developer a beer!
