                               Psi4 1.4a3.dev225

  ==> Input File <==

--------------------------------------------------------------------------
#psi4
#
memory 32 gb

molecule  {
1 1
  N       -1.4684160    -0.7256290     0.0168660
  C        0.7789870     0.0252000    -0.3750600
  C       -0.0143940    -1.1774380     0.1210740
  C       -0.0289190     1.1951300     0.1928770
  C       -1.5028410     0.8038733    -0.1180355
  C        2.2387250    -0.0120120     0.0592990
  H        0.7264100     0.0548870    -1.4716460
  H        0.1145000    -2.0977020    -0.4513780
  H        0.1860930    -1.3741010     1.1771840
  H        0.2151160     2.1494100    -0.2804030
  H        0.1583560     1.2945460     1.2678570
  H       -2.0155250    -1.0560110     0.8205780
  H       -1.9143950    -1.1326260    -0.8134590
  H       -2.2036780     1.1930490     0.6461700
  H       -1.7986400     1.0658470    -1.0809590
  H        2.7502970    -0.8896260    -0.3442510
  H        2.7625990     0.8753680    -0.3028200
  H        2.3187760    -0.0349210     1.1503390
units angstrom
no_reorient  #important for SAPT in psi4, default
symmetry c1  #important for SAPT in psi4, default
}

set PROPERTIES_ORIGIN ["COM"]
properties('MP2/aug-cc-pvtz', properties = ['dipole'])
--------------------------------------------------------------------------

    Molecular point group: c1
  Charge       = 1
  Multiplicity = 1
  Basis Set: AUG-CC-PVTZ
    Blend: AUG-CC-PVTZ
  Basis Set: (AUG-CC-PVTZ AUX)
    Blend: AUG-CC-PVTZ-JKFIT

    Orbital Energies [Eh]
    ---------------------

    Doubly Occupied:

       1A    -15.865885     2A    -11.462548     3A    -11.459902
       4A    -11.402506     5A    -11.398522     6A    -11.359369
       7A     -1.492276     8A     -1.262749     9A     -1.192106
      10A     -1.098350    11A     -1.026775    12A     -0.974654
      13A     -0.934028    14A     -0.891841    15A     -0.828712
      16A     -0.797453    17A     -0.752792    18A     -0.734600
      19A     -0.712505    20A     -0.702215    21A     -0.684084
      22A     -0.652329    23A     -0.638507    24A     -0.627279

  @DF-RHF Final Energy:  -250.65383023703177

   => Energetics <=

    Nuclear Repulsion Energy =            265.5137570500741617
    One-Electron Energy =                -854.4312026074610458
    Two-Electron Energy =                 338.2636153203550293
    Total Energy =                       -250.6538302370317979
  Basis Set: (AUG-CC-PVTZ AUX)
    Blend: AUG-CC-PVTZ-RI
    Molecular point group: c1

    Geometry (in Angstrom), charge = 1, multiplicity = 1:

       Center              X                  Y                   Z               Mass
    ------------   -----------------  -----------------  -----------------  -----------------
         N           -1.449907090730    -0.724519780461     0.027113467649    14.003074004430
         C            0.797495909270     0.026309219539    -0.364812532351    12.000000000000
         C            0.004114909270    -1.176328780461     0.131321467649    12.000000000000
         C           -0.010410090730     1.196239219539     0.203124467649    12.000000000000
         C           -1.484332090730     0.804982519539    -0.107788032351    12.000000000000
         C            2.257233909270    -0.010902780461     0.069546467649    12.000000000000
         H            0.744918909270     0.055996219539    -1.461398532351     1.007825032230
         H            0.133008909270    -2.096592780461    -0.441130532351     1.007825032230
         H            0.204601909270    -1.372991780461     1.187431467649     1.007825032230
         H            0.233624909270     2.150519219539    -0.270155532351     1.007825032230
         H            0.176864909270     1.295655219539     1.278104467649     1.007825032230
         H           -1.997016090730    -1.054901780461     0.830825467649     1.007825032230
         H           -1.895886090730    -1.131516780461    -0.803211532351     1.007825032230
         H           -2.185169090730     1.194158219539     0.656417467649     1.007825032230
         H           -1.780131090730     1.066956219539    -1.070711532351     1.007825032230
         H            2.768805909270    -0.888516780461    -0.334003532351     1.007825032230
         H            2.781107909270     0.876477219539    -0.292572532351     1.007825032230
         H            2.337284909270    -0.033811780461     1.160586467649     1.007825032230

  Basis Set: AUG-CC-PVTZ
    Blend: AUG-CC-PVTZ
  Basis Set: (AUG-CC-PVTZ AUX)
    Blend: AUG-CC-PVTZ-JKFIT
	 Reference Energy          =    -250.6538302370317695 [Eh]
	 Singles Energy            =      -0.0000000000000000 [Eh]
	 Same-Spin Energy          =      -0.2609375642493130 [Eh]
	 Opposite-Spin Energy      =      -0.9374077678249952 [Eh]
	 Correlation Energy        =      -1.1983453320743083 [Eh]
	 Total Energy              =    -251.8521755691060662 [Eh]

	 ================> DF-SCS-MP2 Energies <==================
	-----------------------------------------------------------
	 SCS Same-Spin Scale       =       0.3333333333333333 [-]
	 SCS Opposite-Spin Scale   =       1.2000000000000000 [-]
	 SCS Same-Spin Energy      =      -0.0869791880831043 [Eh]
	 SCS Opposite-Spin Energy  =      -1.1248893213899942 [Eh]
	 SCS Correlation Energy    =      -1.2118685094730985 [Eh]
	 SCS Total Energy          =    -251.8656987465048758 [Eh]
	-----------------------------------------------------------

  Dipole Moment: [D]
     X:    -4.2179      Y:    -1.8690      Z:    -0.0133     Total:     4.6135

*** Psi4 exiting successfully. Buy a developer a beer!
