                               Psi4 1.4a3.dev225

  ==> Input File <==

--------------------------------------------------------------------------
#psi4
#
memory 32 gb

molecule  {
1 1
  N       -1.4684160    -0.7256290     0.0168660
  C        0.7664374     0.0086690    -0.3582303
  C       -0.0143940    -1.1774380     0.1210740
  C       -0.0289190     1.1951300     0.1928770
  C       -1.4778980     0.8076670    -0.0707360
  C        2.2387250    -0.0120120     0.0592990
  H        0.7264100     0.0548870    -1.4716460
  H        0.1145000    -2.0977020    -0.4513780
  H        0.1860930    -1.3741010     1.1771840
  H        0.2151160     2.1494100    -0.2804030
  H        0.1583560     1.2945460     1.2678570
  H       -2.0155250    -1.0560110     0.8205780
  H       -1.9143950    -1.1326260    -0.8134590
  H       -2.2036780     1.1930490     0.6461700
  H       -1.7986400     1.0658470    -1.0809590
  H        2.7502970    -0.8896260    -0.3442510
  H        2.7625990     0.8753680    -0.3028200
  H        2.3187760    -0.0349210     1.1503390
units angstrom
no_reorient  #important for SAPT in psi4, default
symmetry c1  #important for SAPT in psi4, default
}

set PROPERTIES_ORIGIN ["COM"]
properties('MP2/aug-cc-pvtz', properties = ['dipole'])
--------------------------------------------------------------------------

    Molecular point group: c1
  Charge       = 1
  Multiplicity = 1
  Basis Set: AUG-CC-PVTZ
    Blend: AUG-CC-PVTZ
  Basis Set: (AUG-CC-PVTZ AUX)
    Blend: AUG-CC-PVTZ-JKFIT

    Orbital Energies [Eh]
    ---------------------

    Doubly Occupied:

       1A    -15.865894     2A    -11.463751     3A    -11.459996
       4A    -11.402901     5A    -11.396818     6A    -11.360176
       7A     -1.493740     8A     -1.266620     9A     -1.195598
      10A     -1.098884    11A     -1.024039    12A     -0.974552
      13A     -0.935156    14A     -0.892801    15A     -0.828630
      16A     -0.791944    17A     -0.754555    18A     -0.739920
      19A     -0.710900    20A     -0.704785    21A     -0.679096
      22A     -0.658313    23A     -0.636370    24A     -0.627379

  @DF-RHF Final Energy:  -250.65596456951783

   => Energetics <=

    Nuclear Repulsion Energy =            266.1231005797725970
    One-Electron Energy =                -855.6324988051076161
    Two-Electron Energy =                 338.8534336558171276
    Total Energy =                       -250.6559645695178347
  Basis Set: (AUG-CC-PVTZ AUX)
    Blend: AUG-CC-PVTZ-RI
    Molecular point group: c1

    Geometry (in Angstrom), charge = 1, multiplicity = 1:

       Center              X                  Y                   Z               Mass
    ------------   -----------------  -----------------  -----------------  -----------------
         N           -1.451634454566    -0.722744484627     0.018175285959    14.003074004430
         C            0.783218945434     0.011553515373    -0.356921014041    12.000000000000
         C            0.002387545434    -1.174553484627     0.122383285959    12.000000000000
         C           -0.012137454566     1.198014515373     0.194186285959    12.000000000000
         C           -1.461116454566     0.810551515373    -0.069426714041    12.000000000000
         C            2.255506545434    -0.009127484627     0.060608285959    12.000000000000
         H            0.743191545434     0.057771515373    -1.470336714041     1.007825032230
         H            0.131281545434    -2.094817484627    -0.450068714041     1.007825032230
         H            0.202874545434    -1.371216484627     1.178493285959     1.007825032230
         H            0.231897545434     2.152294515373    -0.279093714041     1.007825032230
         H            0.175137545434     1.297430515373     1.269166285959     1.007825032230
         H           -1.998743454566    -1.053126484627     0.821887285959     1.007825032230
         H           -1.897613454566    -1.129741484627    -0.812149714041     1.007825032230
         H           -2.186896454566     1.195933515373     0.647479285959     1.007825032230
         H           -1.781858454566     1.068731515373    -1.079649714041     1.007825032230
         H            2.767078545434    -0.886741484627    -0.342941714041     1.007825032230
         H            2.779380545434     0.878252515373    -0.301510714041     1.007825032230
         H            2.335557545434    -0.032036484627     1.151648285959     1.007825032230

  Basis Set: AUG-CC-PVTZ
    Blend: AUG-CC-PVTZ
  Basis Set: (AUG-CC-PVTZ AUX)
    Blend: AUG-CC-PVTZ-JKFIT
	 Reference Energy          =    -250.6559645695178347 [Eh]
	 Singles Energy            =      -0.0000000000000000 [Eh]
	 Same-Spin Energy          =      -0.2612372706306663 [Eh]
	 Opposite-Spin Energy      =      -0.9375440519238994 [Eh]
	 Correlation Energy        =      -1.1987813225545658 [Eh]
	 Total Energy              =    -251.8547458920724011 [Eh]

	 ================> DF-SCS-MP2 Energies <==================
	-----------------------------------------------------------
	 SCS Same-Spin Scale       =       0.3333333333333333 [-]
	 SCS Opposite-Spin Scale   =       1.2000000000000000 [-]
	 SCS Same-Spin Energy      =      -0.0870790902102221 [Eh]
	 SCS Opposite-Spin Energy  =      -1.1250528623086793 [Eh]
	 SCS Correlation Energy    =      -1.2121319525189014 [Eh]
	 SCS Total Energy          =    -251.8680965220367227 [Eh]
	-----------------------------------------------------------

  Dipole Moment: [D]
     X:    -4.2157      Y:    -1.8630      Z:    -0.0193     Total:     4.6090

*** Psi4 exiting successfully. Buy a developer a beer!
