                               Psi4 1.4a3.dev225

  ==> Input File <==

--------------------------------------------------------------------------
#psi4
#
memory 32 gb

molecule  {
1 1
  N       -1.4684160    -0.7256290     0.0168660
  C        0.7664097     0.1606867    -0.2919137
  C       -0.0143940    -1.1774380     0.1210740
  C       -0.0289190     1.1951300     0.1928770
  C       -1.4778980     0.8076670    -0.0707360
  C        2.2387250    -0.0120120     0.0592990
  H        0.7264100     0.0548870    -1.4716460
  H        0.1145000    -2.0977020    -0.4513780
  H        0.1860930    -1.3741010     1.1771840
  H        0.2151160     2.1494100    -0.2804030
  H        0.1583560     1.2945460     1.2678570
  H       -2.0155250    -1.0560110     0.8205780
  H       -1.9143950    -1.1326260    -0.8134590
  H       -2.2036780     1.1930490     0.6461700
  H       -1.7986400     1.0658470    -1.0809590
  H        2.7502970    -0.8896260    -0.3442510
  H        2.7625990     0.8753680    -0.3028200
  H        2.3187760    -0.0349210     1.1503390
units angstrom
no_reorient  #important for SAPT in psi4, default
symmetry c1  #important for SAPT in psi4, default
}

set PROPERTIES_ORIGIN ["COM"]
properties('MP2/aug-cc-pvtz', properties = ['dipole'])
--------------------------------------------------------------------------

    Molecular point group: c1
  Charge       = 1
  Multiplicity = 1
  Basis Set: AUG-CC-PVTZ
    Blend: AUG-CC-PVTZ
  Basis Set: (AUG-CC-PVTZ AUX)
    Blend: AUG-CC-PVTZ-JKFIT

    Orbital Energies [Eh]
    ---------------------

    Doubly Occupied:

       1A    -15.864877     2A    -11.466751     3A    -11.459962
       4A    -11.409731     5A    -11.392955     6A    -11.361525
       7A     -1.491948     8A     -1.282177     9A     -1.189345
      10A     -1.098570    11A     -1.041194    12A     -0.967773
      13A     -0.931610    14A     -0.887488    15A     -0.828278
      16A     -0.790055    17A     -0.755654    18A     -0.748831
      19A     -0.721255    20A     -0.704280    21A     -0.683421
      22A     -0.671377    23A     -0.627151    24A     -0.602816

  @DF-RHF Final Energy:  -250.62965152713582

   => Energetics <=

    Nuclear Repulsion Energy =            266.5399922064865450
    One-Electron Energy =                -856.3812373569195415
    Two-Electron Energy =                 339.2115936232971762
    Total Energy =                       -250.6296515271358203
  Basis Set: (AUG-CC-PVTZ AUX)
    Blend: AUG-CC-PVTZ-RI
    Molecular point group: c1

    Geometry (in Angstrom), charge = 1, multiplicity = 1:

       Center              X                  Y                   Z               Mass
    ------------   -----------------  -----------------  -----------------  -----------------
         N           -1.451630593803    -0.743932365071     0.008932229445    14.003074004430
         C            0.783195106197     0.142383334929    -0.299847470555    12.000000000000
         C            0.002391406197    -1.195741365071     0.113140229445    12.000000000000
         C           -0.012133593803     1.176826634929     0.184943229445    12.000000000000
         C           -1.461112593803     0.789363634929    -0.078669770555    12.000000000000
         C            2.255510406197    -0.030315365071     0.051365229445    12.000000000000
         H            0.743195406197     0.036583634929    -1.479579770555     1.007825032230
         H            0.131285406197    -2.116005365071    -0.459311770555     1.007825032230
         H            0.202878406197    -1.392404365071     1.169250229445     1.007825032230
         H            0.231901406197     2.131106634929    -0.288336770555     1.007825032230
         H            0.175141406197     1.276242634929     1.259923229445     1.007825032230
         H           -1.998739593803    -1.074314365071     0.812644229445     1.007825032230
         H           -1.897609593803    -1.150929365071    -0.821392770555     1.007825032230
         H           -2.186892593803     1.174745634929     0.638236229445     1.007825032230
         H           -1.781854593803     1.047543634929    -1.088892770555     1.007825032230
         H            2.767082406197    -0.907929365071    -0.352184770555     1.007825032230
         H            2.779384406197     0.857064634929    -0.310753770555     1.007825032230
         H            2.335561406197    -0.053224365071     1.142405229445     1.007825032230

  Basis Set: AUG-CC-PVTZ
    Blend: AUG-CC-PVTZ
  Basis Set: (AUG-CC-PVTZ AUX)
    Blend: AUG-CC-PVTZ-JKFIT
	 Reference Energy          =    -250.6296515271358203 [Eh]
	 Singles Energy            =      -0.0000000000000000 [Eh]
	 Same-Spin Energy          =      -0.2624630784030765 [Eh]
	 Opposite-Spin Energy      =      -0.9396334623901597 [Eh]
	 Correlation Energy        =      -1.2020965407932362 [Eh]
	 Total Energy              =    -251.8317480679290554 [Eh]

	 ================> DF-SCS-MP2 Energies <==================
	-----------------------------------------------------------
	 SCS Same-Spin Scale       =       0.3333333333333333 [-]
	 SCS Opposite-Spin Scale   =       1.2000000000000000 [-]
	 SCS Same-Spin Energy      =      -0.0874876928010255 [Eh]
	 SCS Opposite-Spin Energy  =      -1.1275601548681915 [Eh]
	 SCS Correlation Energy    =      -1.2150478476692170 [Eh]
	 SCS Total Energy          =    -251.8446993748050318 [Eh]
	-----------------------------------------------------------

  Dipole Moment: [D]
     X:    -4.2246      Y:    -1.8921      Z:    -0.0251     Total:     4.6290

*** Psi4 exiting successfully. Buy a developer a beer!
