                               Psi4 1.4a3.dev225

  ==> Input File <==

--------------------------------------------------------------------------
#psi4
#
memory 32 gb

molecule  {
1 1
  N       -1.4684160    -0.7256290     0.0168660
  C        0.7789870     0.0252000    -0.3750600
  C       -0.0143940    -1.1774380     0.1210740
  C       -0.0289190     1.1951300     0.1928770
  C       -1.4778980     0.8076670    -0.0707360
  C        2.2387250    -0.0120120     0.0592990
  H        0.7264100     0.0548870    -1.4716460
  H        0.1145000    -2.0977020    -0.4513780
  H        0.1860930    -1.3741010     1.1771840
  H        0.2151160     2.1494100    -0.2804030
  H        0.1583560     1.2945460     1.2678570
  H       -2.0155250    -1.0560110     0.8205780
  H       -1.9143950    -1.1326260    -0.8134590
  H       -2.2616713     1.2335673     0.5565904
  H       -1.7986400     1.0658470    -1.0809590
  H        2.7502970    -0.8896260    -0.3442510
  H        2.7625990     0.8753680    -0.3028200
  H        2.3187760    -0.0349210     1.1503390
units angstrom
no_reorient  #important for SAPT in psi4, default
symmetry c1  #important for SAPT in psi4, default
}

set PROPERTIES_ORIGIN ["COM"]
properties('MP2/aug-cc-pvtz', properties = ['dipole'])
--------------------------------------------------------------------------

    Molecular point group: c1
  Charge       = 1
  Multiplicity = 1
  Basis Set: AUG-CC-PVTZ
    Blend: AUG-CC-PVTZ
  Basis Set: (AUG-CC-PVTZ AUX)
    Blend: AUG-CC-PVTZ-JKFIT

    Orbital Energies [Eh]
    ---------------------

    Doubly Occupied:

       1A    -15.866492     2A    -11.463246     3A    -11.460451
       4A    -11.403327     5A    -11.397411     6A    -11.359750
       7A     -1.492692     8A     -1.265096     9A     -1.193678
      10A     -1.099129    11A     -1.025596    12A     -0.974149
      13A     -0.934897    14A     -0.895038    15A     -0.827669
      16A     -0.785487    17A     -0.757133    18A     -0.740274
      19A     -0.711667    20A     -0.703514    21A     -0.676384
      22A     -0.655843    23A     -0.638642    24A     -0.630040

  @DF-RHF Final Energy:  -250.65556060711802

   => Energetics <=

    Nuclear Repulsion Energy =            265.7858711333500992
    One-Electron Energy =                -854.9676519261574867
    Two-Electron Energy =                 338.5262201856893398
    Total Energy =                       -250.6555606071179909
  Basis Set: (AUG-CC-PVTZ AUX)
    Blend: AUG-CC-PVTZ-RI
    Molecular point group: c1

    Geometry (in Angstrom), charge = 1, multiplicity = 1:

       Center              X                  Y                   Z               Mass
    ------------   -----------------  -----------------  -----------------  -----------------
         N           -1.452704737247    -0.725522832632     0.021569562766    14.003074004430
         C            0.794698262753     0.025306167368    -0.370356437234    12.000000000000
         C            0.001317262753    -1.177331832632     0.125777562766    12.000000000000
         C           -0.013207737247     1.195236167368     0.197580562766    12.000000000000
         C           -1.462186737247     0.807773167368    -0.066032437234    12.000000000000
         C            2.254436262753    -0.011905832632     0.064002562766    12.000000000000
         H            0.742121262753     0.054993167368    -1.466942437234     1.007825032230
         H            0.130211262753    -2.097595832632    -0.446674437234     1.007825032230
         H            0.201804262753    -1.373994832632     1.181887562766     1.007825032230
         H            0.230827262753     2.149516167368    -0.275699437234     1.007825032230
         H            0.174067262753     1.294652167368     1.272560562766     1.007825032230
         H           -1.999813737247    -1.055904832632     0.825281562766     1.007825032230
         H           -1.898683737247    -1.132519832632    -0.808755437234     1.007825032230
         H           -2.245960037247     1.233673467368     0.561293962766     1.007825032230
         H           -1.782928737247     1.065953167368    -1.076255437234     1.007825032230
         H            2.766008262753    -0.889519832632    -0.339547437234     1.007825032230
         H            2.778310262753     0.875474167368    -0.298116437234     1.007825032230
         H            2.334487262753    -0.034814832632     1.155042562766     1.007825032230

  Basis Set: AUG-CC-PVTZ
    Blend: AUG-CC-PVTZ
  Basis Set: (AUG-CC-PVTZ AUX)
    Blend: AUG-CC-PVTZ-JKFIT
	 Reference Energy          =    -250.6555606071180193 [Eh]
	 Singles Energy            =      -0.0000000000000000 [Eh]
	 Same-Spin Energy          =      -0.2611309193872284 [Eh]
	 Opposite-Spin Energy      =      -0.9373336098123422 [Eh]
	 Correlation Energy        =      -1.1984645291995706 [Eh]
	 Total Energy              =    -251.8540251363176026 [Eh]

	 ================> DF-SCS-MP2 Energies <==================
	-----------------------------------------------------------
	 SCS Same-Spin Scale       =       0.3333333333333333 [-]
	 SCS Opposite-Spin Scale   =       1.2000000000000000 [-]
	 SCS Same-Spin Energy      =      -0.0870436397957428 [Eh]
	 SCS Opposite-Spin Energy  =      -1.1248003317748105 [Eh]
	 SCS Correlation Energy    =      -1.2118439715705533 [Eh]
	 SCS Total Energy          =    -251.8674045786885642 [Eh]
	-----------------------------------------------------------

  Dipole Moment: [D]
     X:    -4.2467      Y:    -1.8616      Z:    -0.0415     Total:     4.6370

*** Psi4 exiting successfully. Buy a developer a beer!
