                               Psi4 1.4a3.dev225

  ==> Input File <==

--------------------------------------------------------------------------
#psi4
#
memory 32 gb

molecule  {
1 1
  N       -1.4684160    -0.7256290     0.0168660
  C        0.7789870     0.0252000    -0.3750600
  C       -0.0143940    -1.1774380     0.1210740
  C        0.0125755     1.1421975     0.3383339
  C       -1.4778980     0.8076670    -0.0707360
  C        2.2387250    -0.0120120     0.0592990
  H        0.7264100     0.0548870    -1.4716460
  H        0.1145000    -2.0977020    -0.4513780
  H        0.1860930    -1.3741010     1.1771840
  H        0.2151160     2.1494100    -0.2804030
  H        0.1583560     1.2945460     1.2678570
  H       -2.0155250    -1.0560110     0.8205780
  H       -1.9143950    -1.1326260    -0.8134590
  H       -2.2036780     1.1930490     0.6461700
  H       -1.7986400     1.0658470    -1.0809590
  H        2.7502970    -0.8896260    -0.3442510
  H        2.7625990     0.8753680    -0.3028200
  H        2.3187760    -0.0349210     1.1503390
units angstrom
no_reorient  #important for SAPT in psi4, default
symmetry c1  #important for SAPT in psi4, default
}

set PROPERTIES_ORIGIN ["COM"]
properties('MP2/aug-cc-pvtz', properties = ['dipole'])
--------------------------------------------------------------------------

    Molecular point group: c1
  Charge       = 1
  Multiplicity = 1
  Basis Set: AUG-CC-PVTZ
    Blend: AUG-CC-PVTZ
  Basis Set: (AUG-CC-PVTZ AUX)
    Blend: AUG-CC-PVTZ-JKFIT

    Orbital Energies [Eh]
    ---------------------

    Doubly Occupied:

       1A    -15.863212     2A    -11.466172     3A    -11.458685
       4A    -11.404857     5A    -11.398730     6A    -11.359071
       7A     -1.490978     8A     -1.265682     9A     -1.186690
      10A     -1.098682    11A     -1.031352    12A     -0.978171
      13A     -0.934976    14A     -0.889958    15A     -0.830978
      16A     -0.799102    17A     -0.749605    18A     -0.733182
      19A     -0.719865    20A     -0.712751    21A     -0.670418
      22A     -0.650970    23A     -0.638654    24A     -0.619448

  @DF-RHF Final Energy:  -250.62385476329416

   => Energetics <=

    Nuclear Repulsion Energy =            265.8732491060416123
    One-Electron Energy =                -855.0898304938996262
    Two-Electron Energy =                 338.5927266245638521
    Total Energy =                       -250.6238547632941618
  Basis Set: (AUG-CC-PVTZ AUX)
    Blend: AUG-CC-PVTZ-RI
    Molecular point group: c1

    Geometry (in Angstrom), charge = 1, multiplicity = 1:

       Center              X                  Y                   Z               Mass
    ------------   -----------------  -----------------  -----------------  -----------------
         N           -1.459166998010    -0.717670926548     0.000247520078    14.003074004430
         C            0.788236001990     0.033158073452    -0.391678479922    12.000000000000
         C           -0.005144998010    -1.169479926548     0.104455520078    12.000000000000
         C            0.021824501990     1.150155573452     0.321715420078    12.000000000000
         C           -1.468648998010     0.815625073452    -0.087354479922    12.000000000000
         C            2.247974001990    -0.004053926548     0.042680520078    12.000000000000
         H            0.735659001990     0.062845073452    -1.488264479922     1.007825032230
         H            0.123749001990    -2.089743926548    -0.467996479922     1.007825032230
         H            0.195342001990    -1.366142926548     1.160565520078     1.007825032230
         H            0.224365001990     2.157368073452    -0.297021479922     1.007825032230
         H            0.167605001990     1.302504073452     1.251238520078     1.007825032230
         H           -2.006275998010    -1.048052926548     0.803959520078     1.007825032230
         H           -1.905145998010    -1.124667926548    -0.830077479922     1.007825032230
         H           -2.194428998010     1.201007073452     0.629551520078     1.007825032230
         H           -1.789390998010     1.073805073452    -1.097577479922     1.007825032230
         H            2.759546001990    -0.881667926548    -0.360869479922     1.007825032230
         H            2.771848001990     0.883326073452    -0.319438479922     1.007825032230
         H            2.328025001990    -0.026962926548     1.133720520078     1.007825032230

  Basis Set: AUG-CC-PVTZ
    Blend: AUG-CC-PVTZ
  Basis Set: (AUG-CC-PVTZ AUX)
    Blend: AUG-CC-PVTZ-JKFIT
	 Reference Energy          =    -250.6238547632941618 [Eh]
	 Singles Energy            =      -0.0000000000000000 [Eh]
	 Same-Spin Energy          =      -0.2616028822850704 [Eh]
	 Opposite-Spin Energy      =      -0.9390729627663570 [Eh]
	 Correlation Energy        =      -1.2006758450514274 [Eh]
	 Total Energy              =    -251.8245306083455830 [Eh]

	 ================> DF-SCS-MP2 Energies <==================
	-----------------------------------------------------------
	 SCS Same-Spin Scale       =       0.3333333333333333 [-]
	 SCS Opposite-Spin Scale   =       1.2000000000000000 [-]
	 SCS Same-Spin Energy      =      -0.0872009607616901 [Eh]
	 SCS Opposite-Spin Energy  =      -1.1268875553196283 [Eh]
	 SCS Correlation Energy    =      -1.2140885160813184 [Eh]
	 SCS Total Energy          =    -251.8379432793754802 [Eh]
	-----------------------------------------------------------

  Dipole Moment: [D]
     X:    -4.2297      Y:    -1.8270      Z:    -0.0823     Total:     4.6082

*** Psi4 exiting successfully. Buy a developer a beer!
