                               Psi4 1.4a3.dev225

  ==> Input File <==

--------------------------------------------------------------------------
#psi4
#
memory 32 gb

molecule  {
1 1
  N       -1.4684160    -0.7256290     0.0168660
  C        0.7789870     0.0252000    -0.3750600
  C       -0.0066431    -1.1194096     0.2100690
  C       -0.0289190     1.1951300     0.1928770
  C       -1.4778980     0.8076670    -0.0707360
  C        2.2387250    -0.0120120     0.0592990
  H        0.7264100     0.0548870    -1.4716460
  H        0.1145000    -2.0977020    -0.4513780
  H        0.1860930    -1.3741010     1.1771840
  H        0.2151160     2.1494100    -0.2804030
  H        0.1583560     1.2945460     1.2678570
  H       -2.0155250    -1.0560110     0.8205780
  H       -1.9143950    -1.1326260    -0.8134590
  H       -2.2036780     1.1930490     0.6461700
  H       -1.7986400     1.0658470    -1.0809590
  H        2.7502970    -0.8896260    -0.3442510
  H        2.7625990     0.8753680    -0.3028200
  H        2.3187760    -0.0349210     1.1503390
units angstrom
no_reorient  #important for SAPT in psi4, default
symmetry c1  #important for SAPT in psi4, default
}

set PROPERTIES_ORIGIN ["COM"]
properties('MP2/aug-cc-pvtz', properties = ['dipole'])
--------------------------------------------------------------------------

    Molecular point group: c1
  Charge       = 1
  Multiplicity = 1
  Basis Set: AUG-CC-PVTZ
    Blend: AUG-CC-PVTZ
  Basis Set: (AUG-CC-PVTZ AUX)
    Blend: AUG-CC-PVTZ-JKFIT

    Orbital Energies [Eh]
    ---------------------

    Doubly Occupied:

       1A    -15.865937     2A    -11.463042     3A    -11.461831
       4A    -11.402889     5A    -11.396248     6A    -11.360028
       7A     -1.493857     8A     -1.269487     9A     -1.193079
      10A     -1.100670    11A     -1.024082    12A     -0.981432
      13A     -0.929696    14A     -0.892189    15A     -0.836323
      16A     -0.796178    17A     -0.747710    18A     -0.741034
      19A     -0.715524    20A     -0.695537    21A     -0.679060
      22A     -0.654094    23A     -0.644970    24A     -0.622794

  @DF-RHF Final Energy:  -250.64287441444176

   => Energetics <=

    Nuclear Repulsion Energy =            266.4603494122363259
    One-Electron Energy =                -856.2710626113857870
    Two-Electron Energy =                 339.1678387847076692
    Total Energy =                       -250.6428744144417351
  Basis Set: (AUG-CC-PVTZ AUX)
    Blend: AUG-CC-PVTZ-RI
    Molecular point group: c1

    Geometry (in Angstrom), charge = 1, multiplicity = 1:

       Center              X                  Y                   Z               Mass
    ------------   -----------------  -----------------  -----------------  -----------------
         N           -1.454463891973    -0.733136403813     0.008117050974    14.003074004430
         C            0.792939108027     0.017692596187    -0.383808949026    12.000000000000
         C            0.007309008027    -1.126917003813     0.201320050974    12.000000000000
         C           -0.014966891973     1.187622596187     0.184128050974    12.000000000000
         C           -1.463945891973     0.800159596187    -0.079484949026    12.000000000000
         C            2.252677108027    -0.019519403813     0.050550050974    12.000000000000
         H            0.740362108027     0.047379596187    -1.480394949026     1.007825032230
         H            0.128452108027    -2.105209403813    -0.460126949026     1.007825032230
         H            0.200045108027    -1.381608403813     1.168435050974     1.007825032230
         H            0.229068108027     2.141902596187    -0.289151949026     1.007825032230
         H            0.172308108027     1.287038596187     1.259108050974     1.007825032230
         H           -2.001572891973    -1.063518403813     0.811829050974     1.007825032230
         H           -1.900442891973    -1.140133403813    -0.822207949026     1.007825032230
         H           -2.189725891973     1.185541596187     0.637421050974     1.007825032230
         H           -1.784687891973     1.058339596187    -1.089707949026     1.007825032230
         H            2.764249108027    -0.897133403813    -0.352999949026     1.007825032230
         H            2.776551108027     0.867860596187    -0.311568949026     1.007825032230
         H            2.332728108027    -0.042428403813     1.141590050974     1.007825032230

  Basis Set: AUG-CC-PVTZ
    Blend: AUG-CC-PVTZ
  Basis Set: (AUG-CC-PVTZ AUX)
    Blend: AUG-CC-PVTZ-JKFIT
	 Reference Energy          =    -250.6428744144417635 [Eh]
	 Singles Energy            =      -0.0000000000000000 [Eh]
	 Same-Spin Energy          =      -0.2616214158415390 [Eh]
	 Opposite-Spin Energy      =      -0.9383341438619968 [Eh]
	 Correlation Energy        =      -1.1999555597035356 [Eh]
	 Total Energy              =    -251.8428299741453031 [Eh]

	 ================> DF-SCS-MP2 Energies <==================
	-----------------------------------------------------------
	 SCS Same-Spin Scale       =       0.3333333333333333 [-]
	 SCS Opposite-Spin Scale   =       1.2000000000000000 [-]
	 SCS Same-Spin Energy      =      -0.0872071386138463 [Eh]
	 SCS Opposite-Spin Energy  =      -1.1260009726343960 [Eh]
	 SCS Correlation Energy    =      -1.2132081112482422 [Eh]
	 SCS Total Energy          =    -251.8560825256899989 [Eh]
	-----------------------------------------------------------

  Dipole Moment: [D]
     X:    -4.2060      Y:    -1.8643      Z:    -0.0089     Total:     4.6006

*** Psi4 exiting successfully. Buy a developer a beer!
