                               Psi4 1.4a3.dev225

  ==> Input File <==

--------------------------------------------------------------------------
#psi4
#
memory 32 gb

molecule  {
1 1
  N       -1.4684160    -0.7256290     0.0168660
  C        0.7789870     0.0252000    -0.3750600
  C       -0.0174408    -1.1916120     0.0987289
  C       -0.0289190     1.1951300     0.1928770
  C       -1.4778980     0.8076670    -0.0707360
  C        2.2387250    -0.0120120     0.0592990
  H        0.7264100     0.0548870    -1.4716460
  H        0.1145000    -2.0977020    -0.4513780
  H        0.1860930    -1.3741010     1.1771840
  H        0.2151160     2.1494100    -0.2804030
  H        0.1583560     1.2945460     1.2678570
  H       -2.0155250    -1.0560110     0.8205780
  H       -1.9143950    -1.1326260    -0.8134590
  H       -2.2036780     1.1930490     0.6461700
  H       -1.7986400     1.0658470    -1.0809590
  H        2.7502970    -0.8896260    -0.3442510
  H        2.7625990     0.8753680    -0.3028200
  H        2.3187760    -0.0349210     1.1503390
units angstrom
no_reorient  #important for SAPT in psi4, default
symmetry c1  #important for SAPT in psi4, default
}

set PROPERTIES_ORIGIN ["COM"]
properties('MP2/aug-cc-pvtz', properties = ['dipole'])
--------------------------------------------------------------------------

    Molecular point group: c1
  Charge       = 1
  Multiplicity = 1
  Basis Set: AUG-CC-PVTZ
    Blend: AUG-CC-PVTZ
  Basis Set: (AUG-CC-PVTZ AUX)
    Blend: AUG-CC-PVTZ-JKFIT

    Orbital Energies [Eh]
    ---------------------

    Doubly Occupied:

       1A    -15.865753     2A    -11.464121     3A    -11.459971
       4A    -11.403441     5A    -11.396921     6A    -11.359517
       7A     -1.492570     8A     -1.263976     9A     -1.194425
      10A     -1.098880    11A     -1.024102    12A     -0.973399
      13A     -0.936893    14A     -0.893390    15A     -0.825465
      16A     -0.790672    17A     -0.757377    18A     -0.739012
      19A     -0.712426    20A     -0.701879    21A     -0.679688
      22A     -0.655056    23A     -0.636508    24A     -0.630400

  @DF-RHF Final Energy:  -250.65609883604864

   => Energetics <=

    Nuclear Repulsion Energy =            265.7305671934102520
    One-Electron Energy =                -854.8616448562843289
    Two-Electron Energy =                 338.4749788268254065
    Total Energy =                       -250.6560988360486704
  Basis Set: (AUG-CC-PVTZ AUX)
    Blend: AUG-CC-PVTZ-RI
    Molecular point group: c1

    Geometry (in Angstrom), charge = 1, multiplicity = 1:

       Center              X                  Y                   Z               Mass
    ------------   -----------------  -----------------  -----------------  -----------------
         N           -1.452958933165    -0.723072997913     0.023635380270    14.003074004430
         C            0.794444066835     0.027756002087    -0.368290619730    12.000000000000
         C           -0.001983733165    -1.189055997913     0.105498280270    12.000000000000
         C           -0.013461933165     1.197686002087     0.199646380270    12.000000000000
         C           -1.462440933165     0.810223002087    -0.063966619730    12.000000000000
         C            2.254182066835    -0.009455997913     0.066068380270    12.000000000000
         H            0.741867066835     0.057443002087    -1.464876619730     1.007825032230
         H            0.129957066835    -2.095145997913    -0.444608619730     1.007825032230
         H            0.201550066835    -1.371544997913     1.183953380270     1.007825032230
         H            0.230573066835     2.151966002087    -0.273633619730     1.007825032230
         H            0.173813066835     1.297102002087     1.274626380270     1.007825032230
         H           -2.000067933165    -1.053454997913     0.827347380270     1.007825032230
         H           -1.898937933165    -1.130069997913    -0.806689619730     1.007825032230
         H           -2.188220933165     1.195605002087     0.652939380270     1.007825032230
         H           -1.783182933165     1.068403002087    -1.074189619730     1.007825032230
         H            2.765754066835    -0.887069997913    -0.337481619730     1.007825032230
         H            2.778056066835     0.877924002087    -0.296050619730     1.007825032230
         H            2.334233066835    -0.032364997913     1.157108380270     1.007825032230

  Basis Set: AUG-CC-PVTZ
    Blend: AUG-CC-PVTZ
  Basis Set: (AUG-CC-PVTZ AUX)
    Blend: AUG-CC-PVTZ-JKFIT
	 Reference Energy          =    -250.6560988360486419 [Eh]
	 Singles Energy            =      -0.0000000000000000 [Eh]
	 Same-Spin Energy          =      -0.2610425336138949 [Eh]
	 Opposite-Spin Energy      =      -0.9373960541133672 [Eh]
	 Correlation Energy        =      -1.1984385877272621 [Eh]
	 Total Energy              =    -251.8545374237758949 [Eh]

	 ================> DF-SCS-MP2 Energies <==================
	-----------------------------------------------------------
	 SCS Same-Spin Scale       =       0.3333333333333333 [-]
	 SCS Opposite-Spin Scale   =       1.2000000000000000 [-]
	 SCS Same-Spin Energy      =      -0.0870141778712983 [Eh]
	 SCS Opposite-Spin Energy  =      -1.1248752649360407 [Eh]
	 SCS Correlation Energy    =      -1.2118894428073390 [Eh]
	 SCS Total Energy          =    -251.8679882788559894 [Eh]
	-----------------------------------------------------------

  Dipole Moment: [D]
     X:    -4.2264      Y:    -1.8609      Z:    -0.0197     Total:     4.6179

*** Psi4 exiting successfully. Buy a developer a beer!
