                               Psi4 1.4a3.dev225

  ==> Input File <==

--------------------------------------------------------------------------
#psi4
#
memory 32 gb

molecule  {
1 1
  N       -1.4684160    -0.7256290     0.0168660
  C        0.7789870     0.0252000    -0.3750600
  C       -0.0143940    -1.1774380     0.1210740
  C       -0.0289190     1.1951300     0.1928770
  C       -1.4766632     0.6079964    -0.0593282
  C        2.2387250    -0.0120120     0.0592990
  H        0.7264100     0.0548870    -1.4716460
  H        0.1145000    -2.0977020    -0.4513780
  H        0.1860930    -1.3741010     1.1771840
  H        0.2151160     2.1494100    -0.2804030
  H        0.1583560     1.2945460     1.2678570
  H       -2.0155250    -1.0560110     0.8205780
  H       -1.9143950    -1.1326260    -0.8134590
  H       -2.2036780     1.1930490     0.6461700
  H       -1.7986400     1.0658470    -1.0809590
  H        2.7502970    -0.8896260    -0.3442510
  H        2.7625990     0.8753680    -0.3028200
  H        2.3187760    -0.0349210     1.1503390
units angstrom
no_reorient  #important for SAPT in psi4, default
symmetry c1  #important for SAPT in psi4, default
}

set PROPERTIES_ORIGIN ["COM"]
properties('MP2/aug-cc-pvtz', properties = ['dipole'])
--------------------------------------------------------------------------

    Molecular point group: c1
  Charge       = 1
  Multiplicity = 1
  Basis Set: AUG-CC-PVTZ
    Blend: AUG-CC-PVTZ
  Basis Set: (AUG-CC-PVTZ AUX)
    Blend: AUG-CC-PVTZ-JKFIT

    Orbital Energies [Eh]
    ---------------------

    Doubly Occupied:

       1A    -15.877788     2A    -11.466048     3A    -11.458413
       4A    -11.401935     5A    -11.397595     6A    -11.359358
       7A     -1.549466     8A     -1.268057     9A     -1.188925
      10A     -1.104891    11A     -1.028178    12A     -0.993957
      13A     -0.948050    14A     -0.914144    15A     -0.838681
      16A     -0.793055    17A     -0.768393    18A     -0.723102
      19A     -0.711483    20A     -0.695343    21A     -0.657631
      22A     -0.649165    23A     -0.635058    24A     -0.613670

  @DF-RHF Final Energy:  -250.61750852766755

   => Energetics <=

    Nuclear Repulsion Energy =            268.2673712595631628
    One-Electron Energy =                -859.6849884768892025
    Two-Electron Energy =                 340.8001086896585434
    Total Energy =                       -250.6175085276675532
  Basis Set: (AUG-CC-PVTZ AUX)
    Blend: AUG-CC-PVTZ-RI
    Molecular point group: c1

    Geometry (in Angstrom), charge = 1, multiplicity = 1:

       Center              X                  Y                   Z               Mass
    ------------   -----------------  -----------------  -----------------  -----------------
         N           -1.453555692811    -0.697218904715     0.018930978020    14.003074004430
         C            0.793847307189     0.053610095285    -0.372995021980    12.000000000000
         C            0.000466307189    -1.149027904715     0.123138978020    12.000000000000
         C           -0.014058692811     1.223540095285     0.194941978020    12.000000000000
         C           -1.461802892811     0.636406495285    -0.057263221980    12.000000000000
         C            2.253585307189     0.016398095285     0.061363978020    12.000000000000
         H            0.741270307189     0.083297095285    -1.469581021980     1.007825032230
         H            0.129360307189    -2.069291904715    -0.449313021980     1.007825032230
         H            0.200953307189    -1.345690904715     1.179248978020     1.007825032230
         H            0.229976307189     2.177820095285    -0.278338021980     1.007825032230
         H            0.173216307189     1.322956095285     1.269921978020     1.007825032230
         H           -2.000664692811    -1.027600904715     0.822642978020     1.007825032230
         H           -1.899534692811    -1.104215904715    -0.811394021980     1.007825032230
         H           -2.188817692811     1.221459095285     0.648234978020     1.007825032230
         H           -1.783779692811     1.094257095285    -1.078894021980     1.007825032230
         H            2.765157307189    -0.861215904715    -0.342186021980     1.007825032230
         H            2.777459307189     0.903778095285    -0.300755021980     1.007825032230
         H            2.333636307189    -0.006510904715     1.152403978020     1.007825032230

  Basis Set: AUG-CC-PVTZ
    Blend: AUG-CC-PVTZ
  Basis Set: (AUG-CC-PVTZ AUX)
    Blend: AUG-CC-PVTZ-JKFIT
	 Reference Energy          =    -250.6175085276675532 [Eh]
	 Singles Energy            =      -0.0000000000000000 [Eh]
	 Same-Spin Energy          =      -0.2631049930345535 [Eh]
	 Opposite-Spin Energy      =      -0.9391858165443085 [Eh]
	 Correlation Energy        =      -1.2022908095788620 [Eh]
	 Total Energy              =    -251.8197993372464225 [Eh]

	 ================> DF-SCS-MP2 Energies <==================
	-----------------------------------------------------------
	 SCS Same-Spin Scale       =       0.3333333333333333 [-]
	 SCS Opposite-Spin Scale   =       1.2000000000000000 [-]
	 SCS Same-Spin Energy      =      -0.0877016643448512 [Eh]
	 SCS Opposite-Spin Energy  =      -1.1270229798531701 [Eh]
	 SCS Correlation Energy    =      -1.2147246441980213 [Eh]
	 SCS Total Energy          =    -251.8322331718655676 [Eh]
	-----------------------------------------------------------

  Dipole Moment: [D]
     X:    -4.2103      Y:    -2.1078      Z:     0.0032     Total:     4.7084

*** Psi4 exiting successfully. Buy a developer a beer!
