                               Psi4 1.4a3.dev225

  ==> Input File <==

--------------------------------------------------------------------------
#psi4
#
memory 32 gb

molecule  {
1 1
  N       -1.4684160    -0.7256290     0.0168660
  C        0.7789870     0.0252000    -0.3750600
  C       -0.0143940    -1.1774380     0.1210740
  C       -0.0289190     1.1951300     0.1928770
  C       -1.4778980     0.8076670    -0.0707360
  C        2.2387250    -0.0120120     0.0592990
  H        0.7264100     0.0548870    -1.4716460
  H        0.1145000    -2.0977020    -0.4513780
  H        0.1860930    -1.3741010     1.1771840
  H        0.2106497     2.1319450    -0.2717412
  H        0.1583560     1.2945460     1.2678570
  H       -2.0155250    -1.0560110     0.8205780
  H       -1.9143950    -1.1326260    -0.8134590
  H       -2.2036780     1.1930490     0.6461700
  H       -1.7986400     1.0658470    -1.0809590
  H        2.7502970    -0.8896260    -0.3442510
  H        2.7625990     0.8753680    -0.3028200
  H        2.3187760    -0.0349210     1.1503390
units angstrom
no_reorient  #important for SAPT in psi4, default
symmetry c1  #important for SAPT in psi4, default
}

set PROPERTIES_ORIGIN ["COM"]
properties('MP2/aug-cc-pvtz', properties = ['dipole'])
--------------------------------------------------------------------------

    Molecular point group: c1
  Charge       = 1
  Multiplicity = 1
  Basis Set: AUG-CC-PVTZ
    Blend: AUG-CC-PVTZ
  Basis Set: (AUG-CC-PVTZ AUX)
    Blend: AUG-CC-PVTZ-JKFIT

    Orbital Energies [Eh]
    ---------------------

    Doubly Occupied:

       1A    -15.865543     2A    -11.463735     3A    -11.459941
       4A    -11.402968     5A    -11.394507     6A    -11.359597
       7A     -1.492627     8A     -1.265378     9A     -1.194324
      10A     -1.098936    11A     -1.025109    12A     -0.974992
      13A     -0.935749    14A     -0.892522    15A     -0.828018
      16A     -0.791688    17A     -0.754308    18A     -0.739723
      19A     -0.712067    20A     -0.704944    21A     -0.680793
      22A     -0.654804    23A     -0.638878    24A     -0.629345

  @DF-RHF Final Energy:  -250.65697851507124

   => Energetics <=

    Nuclear Repulsion Energy =            265.9804546501659956
    One-Electron Energy =                -855.3538778496391615
    Two-Electron Energy =                 338.7164446844018357
    Total Energy =                       -250.6569785150712733
  Basis Set: (AUG-CC-PVTZ AUX)
    Blend: AUG-CC-PVTZ-RI
    Molecular point group: c1

    Geometry (in Angstrom), charge = 1, multiplicity = 1:

       Center              X                  Y                   Z               Mass
    ------------   -----------------  -----------------  -----------------  -----------------
         N           -1.453331308051    -0.724844097733     0.020419578776    14.003074004430
         C            0.794071691949     0.025984902267    -0.371506421224    12.000000000000
         C            0.000690691949    -1.176653097733     0.124627578776    12.000000000000
         C           -0.013834308051     1.195914902267     0.196430578776    12.000000000000
         C           -1.462813308051     0.808451902267    -0.067182421224    12.000000000000
         C            2.253809691949    -0.011227097733     0.062852578776    12.000000000000
         H            0.741494691949     0.055671902267    -1.468092421224     1.007825032230
         H            0.129584691949    -2.096917097733    -0.447824421224     1.007825032230
         H            0.201177691949    -1.373316097733     1.180737578776     1.007825032230
         H            0.225734391949     2.132729902267    -0.268187621224     1.007825032230
         H            0.173440691949     1.295330902267     1.271410578776     1.007825032230
         H           -2.000440308051    -1.055226097733     0.824131578776     1.007825032230
         H           -1.899310308051    -1.131841097733    -0.809905421224     1.007825032230
         H           -2.188593308051     1.193833902267     0.649723578776     1.007825032230
         H           -1.783555308051     1.066631902267    -1.077405421224     1.007825032230
         H            2.765381691949    -0.888841097733    -0.340697421224     1.007825032230
         H            2.777683691949     0.876152902267    -0.299266421224     1.007825032230
         H            2.333860691949    -0.034136097733     1.153892578776     1.007825032230

  Basis Set: AUG-CC-PVTZ
    Blend: AUG-CC-PVTZ
  Basis Set: (AUG-CC-PVTZ AUX)
    Blend: AUG-CC-PVTZ-JKFIT
	 Reference Energy          =    -250.6569785150712448 [Eh]
	 Singles Energy            =      -0.0000000000000000 [Eh]
	 Same-Spin Energy          =      -0.2610775036022169 [Eh]
	 Opposite-Spin Energy      =      -0.9372669989498587 [Eh]
	 Correlation Energy        =      -1.1983445025520756 [Eh]
	 Total Energy              =    -251.8553230176233342 [Eh]

	 ================> DF-SCS-MP2 Energies <==================
	-----------------------------------------------------------
	 SCS Same-Spin Scale       =       0.3333333333333333 [-]
	 SCS Opposite-Spin Scale   =       1.2000000000000000 [-]
	 SCS Same-Spin Energy      =      -0.0870258345340723 [Eh]
	 SCS Opposite-Spin Energy  =      -1.1247203987398304 [Eh]
	 SCS Correlation Energy    =      -1.2117462332739026 [Eh]
	 SCS Total Energy          =    -251.8687247483451586 [Eh]
	-----------------------------------------------------------

  Dipole Moment: [D]
     X:    -4.2210      Y:    -1.8662      Z:    -0.0151     Total:     4.6152

*** Psi4 exiting successfully. Buy a developer a beer!
