                               Psi4 1.4a3.dev225

  ==> Input File <==

--------------------------------------------------------------------------
#psi4
#
memory 32 gb

molecule  {
1 1
  N       -1.4684160    -0.7256290     0.0168660
  C        0.7789870     0.0252000    -0.3750600
  C       -0.0143940    -1.1774380     0.1210740
  C       -0.0516886     1.2233273     0.0923474
  C       -1.4778980     0.8076670    -0.0707360
  C        2.2387250    -0.0120120     0.0592990
  H        0.7264100     0.0548870    -1.4716460
  H        0.1145000    -2.0977020    -0.4513780
  H        0.1860930    -1.3741010     1.1771840
  H        0.2151160     2.1494100    -0.2804030
  H        0.1583560     1.2945460     1.2678570
  H       -2.0155250    -1.0560110     0.8205780
  H       -1.9143950    -1.1326260    -0.8134590
  H       -2.2036780     1.1930490     0.6461700
  H       -1.7986400     1.0658470    -1.0809590
  H        2.7502970    -0.8896260    -0.3442510
  H        2.7625990     0.8753680    -0.3028200
  H        2.3187760    -0.0349210     1.1503390
units angstrom
no_reorient  #important for SAPT in psi4, default
symmetry c1  #important for SAPT in psi4, default
}

set PROPERTIES_ORIGIN ["COM"]
properties('MP2/aug-cc-pvtz', properties = ['dipole'])
--------------------------------------------------------------------------

    Molecular point group: c1
  Charge       = 1
  Multiplicity = 1
  Basis Set: AUG-CC-PVTZ
    Blend: AUG-CC-PVTZ
  Basis Set: (AUG-CC-PVTZ AUX)
    Blend: AUG-CC-PVTZ-JKFIT

    Orbital Energies [Eh]
    ---------------------

    Doubly Occupied:

       1A    -15.867772     2A    -11.464121     3A    -11.461576
       4A    -11.404111     5A    -11.399298     6A    -11.360366
       7A     -1.494327     8A     -1.266237     9A     -1.199123
      10A     -1.099707    11A     -1.024830    12A     -0.974090
      13A     -0.939121    14A     -0.894311    15A     -0.823973
      16A     -0.788803    17A     -0.759338    18A     -0.748093
      19A     -0.719665    20A     -0.709571    21A     -0.669325
      22A     -0.654124    23A     -0.640700    24A     -0.614669

  @DF-RHF Final Energy:  -250.64480542298855

   => Energetics <=

    Nuclear Repulsion Energy =            265.8713488066837840
    One-Electron Energy =                -855.0778011446750497
    Two-Electron Energy =                 338.5616469150027683
    Total Energy =                       -250.6448054229885543
  Basis Set: (AUG-CC-PVTZ AUX)
    Blend: AUG-CC-PVTZ-RI
    Molecular point group: c1

    Geometry (in Angstrom), charge = 1, multiplicity = 1:

       Center              X                  Y                   Z               Mass
    ------------   -----------------  -----------------  -----------------  -----------------
         N           -1.450210014266    -0.728978613106     0.034532557628    14.003074004430
         C            0.797192985734     0.021850386894    -0.357393442372    12.000000000000
         C            0.003811985734    -1.180787613106     0.138740557628    12.000000000000
         C           -0.033482614266     1.219977686894     0.110013957628    12.000000000000
         C           -1.459692014266     0.804317386894    -0.053069442372    12.000000000000
         C            2.256930985734    -0.015361613106     0.076965557628    12.000000000000
         H            0.744615985734     0.051537386894    -1.453979442372     1.007825032230
         H            0.132705985734    -2.101051613106    -0.433711442372     1.007825032230
         H            0.204298985734    -1.377450613106     1.194850557628     1.007825032230
         H            0.233321985734     2.146060386894    -0.262736442372     1.007825032230
         H            0.176561985734     1.291196386894     1.285523557628     1.007825032230
         H           -1.997319014266    -1.059360613106     0.838244557628     1.007825032230
         H           -1.896189014266    -1.135975613106    -0.795792442372     1.007825032230
         H           -2.185472014266     1.189699386894     0.663836557628     1.007825032230
         H           -1.780434014266     1.062497386894    -1.063292442372     1.007825032230
         H            2.768502985734    -0.892975613106    -0.326584442372     1.007825032230
         H            2.780804985734     0.872018386894    -0.285153442372     1.007825032230
         H            2.336981985734    -0.038270613106     1.168005557628     1.007825032230

  Basis Set: AUG-CC-PVTZ
    Blend: AUG-CC-PVTZ
  Basis Set: (AUG-CC-PVTZ AUX)
    Blend: AUG-CC-PVTZ-JKFIT
	 Reference Energy          =    -250.6448054229885543 [Eh]
	 Singles Energy            =      -0.0000000000000000 [Eh]
	 Same-Spin Energy          =      -0.2613327999552800 [Eh]
	 Opposite-Spin Energy      =      -0.9380067924121518 [Eh]
	 Correlation Energy        =      -1.1993395923674317 [Eh]
	 Total Energy              =    -251.8441450153559913 [Eh]

	 ================> DF-SCS-MP2 Energies <==================
	-----------------------------------------------------------
	 SCS Same-Spin Scale       =       0.3333333333333333 [-]
	 SCS Opposite-Spin Scale   =       1.2000000000000000 [-]
	 SCS Same-Spin Energy      =      -0.0871109333184266 [Eh]
	 SCS Opposite-Spin Energy  =      -1.1256081508945821 [Eh]
	 SCS Correlation Energy    =      -1.2127190842130087 [Eh]
	 SCS Total Energy          =    -251.8575245072015605 [Eh]
	-----------------------------------------------------------

  Dipole Moment: [D]
     X:    -4.2195      Y:    -1.9210      Z:    -0.0076     Total:     4.6363

*** Psi4 exiting successfully. Buy a developer a beer!
