                               Psi4 1.4a3.dev225

  ==> Input File <==

--------------------------------------------------------------------------
#psi4
#
memory 32 gb

molecule  {
1 1
  N       -1.4684160    -0.7256290     0.0168660
  C        0.8489883     0.1316861    -0.4722294
  C       -0.0143940    -1.1774380     0.1210740
  C       -0.0289190     1.1951300     0.1928770
  C       -1.4778980     0.8076670    -0.0707360
  C        2.2387250    -0.0120120     0.0592990
  H        0.7264100     0.0548870    -1.4716460
  H        0.1145000    -2.0977020    -0.4513780
  H        0.1860930    -1.3741010     1.1771840
  H        0.2151160     2.1494100    -0.2804030
  H        0.1583560     1.2945460     1.2678570
  H       -2.0155250    -1.0560110     0.8205780
  H       -1.9143950    -1.1326260    -0.8134590
  H       -2.2036780     1.1930490     0.6461700
  H       -1.7986400     1.0658470    -1.0809590
  H        2.7502970    -0.8896260    -0.3442510
  H        2.7625990     0.8753680    -0.3028200
  H        2.3187760    -0.0349210     1.1503390
units angstrom
no_reorient  #important for SAPT in psi4, default
symmetry c1  #important for SAPT in psi4, default
}

set PROPERTIES_ORIGIN ["COM"]
properties('MP2/aug-cc-pvtz', properties = ['dipole'])
--------------------------------------------------------------------------

    Molecular point group: c1
  Charge       = 1
  Multiplicity = 1
  Basis Set: AUG-CC-PVTZ
    Blend: AUG-CC-PVTZ
  Basis Set: (AUG-CC-PVTZ AUX)
    Blend: AUG-CC-PVTZ-JKFIT

    Orbital Energies [Eh]
    ---------------------

    Doubly Occupied:

       1A    -15.863040     2A    -11.464199     3A    -11.456882
       4A    -11.407934     5A    -11.398278     6A    -11.359152
       7A     -1.486716     8A     -1.259742     9A     -1.186535
      10A     -1.097993    11A     -1.024013    12A     -0.979138
      13A     -0.937051    14A     -0.889471    15A     -0.821261
      16A     -0.791390    17A     -0.750262    18A     -0.739158
      19A     -0.717299    20A     -0.698556    21A     -0.688133
      22A     -0.668843    23A     -0.643415    24A     -0.597286

  @DF-RHF Final Energy:  -250.63423751666016

   => Energetics <=

    Nuclear Repulsion Energy =            264.4743102479609433
    One-Electron Energy =                -852.3656022066047626
    Two-Electron Energy =                 337.2570544419836551
    Total Energy =                       -250.6342375166601641
  Basis Set: (AUG-CC-PVTZ AUX)
    Blend: AUG-CC-PVTZ-RI
    Molecular point group: c1

    Geometry (in Angstrom), charge = 1, multiplicity = 1:

       Center              X                  Y                   Z               Mass
    ------------   -----------------  -----------------  -----------------  -----------------
         N           -1.463140210802    -0.739890327561     0.034064220613    14.003074004430
         C            0.854264089198     0.117424772439    -0.455031179387    12.000000000000
         C           -0.009118210802    -1.191699327561     0.138272220613    12.000000000000
         C           -0.023643210802     1.180868672439     0.210075220613    12.000000000000
         C           -1.472622210802     0.793405672439    -0.053537779387    12.000000000000
         C            2.244000789198    -0.026273327561     0.076497220613    12.000000000000
         H            0.731685789198     0.040625672439    -1.454447779387     1.007825032230
         H            0.119775789198    -2.111963327561    -0.434179779387     1.007825032230
         H            0.191368789198    -1.388362327561     1.194382220613     1.007825032230
         H            0.220391789198     2.135148672439    -0.263204779387     1.007825032230
         H            0.163631789198     1.280284672439     1.285055220613     1.007825032230
         H           -2.010249210802    -1.070272327561     0.837776220613     1.007825032230
         H           -1.909119210802    -1.146887327561    -0.796260779387     1.007825032230
         H           -2.198402210802     1.178787672439     0.663368220613     1.007825032230
         H           -1.793364210802     1.051585672439    -1.063760779387     1.007825032230
         H            2.755572789198    -0.903887327561    -0.327052779387     1.007825032230
         H            2.767874789198     0.861106672439    -0.285621779387     1.007825032230
         H            2.324051789198    -0.049182327561     1.167537220613     1.007825032230

  Basis Set: AUG-CC-PVTZ
    Blend: AUG-CC-PVTZ
  Basis Set: (AUG-CC-PVTZ AUX)
    Blend: AUG-CC-PVTZ-JKFIT
	 Reference Energy          =    -250.6342375166601641 [Eh]
	 Singles Energy            =      -0.0000000000000000 [Eh]
	 Same-Spin Energy          =      -0.2612422258266188 [Eh]
	 Opposite-Spin Energy      =      -0.9385698738887958 [Eh]
	 Correlation Energy        =      -1.1998120997154147 [Eh]
	 Total Energy              =    -251.8340496163755802 [Eh]

	 ================> DF-SCS-MP2 Energies <==================
	-----------------------------------------------------------
	 SCS Same-Spin Scale       =       0.3333333333333333 [-]
	 SCS Opposite-Spin Scale   =       1.2000000000000000 [-]
	 SCS Same-Spin Energy      =      -0.0870807419422063 [Eh]
	 SCS Opposite-Spin Energy  =      -1.1262838486665550 [Eh]
	 SCS Correlation Energy    =      -1.2133645906087611 [Eh]
	 SCS Total Energy          =    -251.8476021072689264 [Eh]
	-----------------------------------------------------------

  Dipole Moment: [D]
     X:    -4.1952      Y:    -1.8485      Z:     0.0039     Total:     4.5844

*** Psi4 exiting successfully. Buy a developer a beer!
