                               Psi4 1.4a3.dev225

  ==> Input File <==

--------------------------------------------------------------------------
#psi4
#
memory 32 gb

molecule  {
1 1
  N       -1.4684160    -0.7256290     0.0168660
  C        0.7789870     0.0252000    -0.3750600
  C       -0.0143940    -1.1774380     0.1210740
  C       -0.0289190     1.1951300     0.1928770
  C       -1.4778980     0.8076670    -0.0707360
  C        2.2387250    -0.0120120     0.0592990
  H        0.7264100     0.0548870    -1.4716460
  H        0.1145000    -2.0977020    -0.4513780
  H        0.1860930    -1.3741010     1.1771840
  H        0.2151160     2.1494100    -0.2804030
  H        0.1583560     1.2945460     1.2678570
  H       -2.0155250    -1.0560110     0.8205780
  H       -1.9143950    -1.1326260    -0.8134590
  H       -2.2139140     1.2001079     0.6317600
  H       -1.7986400     1.0658470    -1.0809590
  H        2.7502970    -0.8896260    -0.3442510
  H        2.7625990     0.8753680    -0.3028200
  H        2.3187760    -0.0349210     1.1503390
units angstrom
no_reorient  #important for SAPT in psi4, default
symmetry c1  #important for SAPT in psi4, default
}

set PROPERTIES_ORIGIN ["COM"]
properties('MP2/aug-cc-pvtz', properties = ['dipole'])
--------------------------------------------------------------------------

    Molecular point group: c1
  Charge       = 1
  Multiplicity = 1
  Basis Set: AUG-CC-PVTZ
    Blend: AUG-CC-PVTZ
  Basis Set: (AUG-CC-PVTZ AUX)
    Blend: AUG-CC-PVTZ-JKFIT

    Orbital Energies [Eh]
    ---------------------

    Doubly Occupied:

       1A    -15.865755     2A    -11.463727     3A    -11.460104
       4A    -11.403109     5A    -11.396817     6A    -11.359620
       7A     -1.492698     8A     -1.265040     9A     -1.193946
      10A     -1.098984    11A     -1.024109    12A     -0.974774
      13A     -0.935056    14A     -0.892831    15A     -0.827720
      16A     -0.790571    17A     -0.754293    18A     -0.739751
      19A     -0.711838    20A     -0.703637    21A     -0.679216
      22A     -0.654977    23A     -0.638598    24A     -0.629534

  @DF-RHF Final Energy:  -250.65686181291261

   => Energetics <=

    Nuclear Repulsion Energy =            265.8647775554937880
    One-Electron Energy =                -855.1298703048930747
    Two-Electron Energy =                 338.6082309364866774
    Total Energy =                       -250.6568618129126094
  Basis Set: (AUG-CC-PVTZ AUX)
    Blend: AUG-CC-PVTZ-RI
    Molecular point group: c1

    Geometry (in Angstrom), charge = 1, multiplicity = 1:

       Center              X                  Y                   Z               Mass
    ------------   -----------------  -----------------  -----------------  -----------------
         N           -1.453263769695    -0.725131167058     0.020689650259    14.003074004430
         C            0.794139230305     0.025697832942    -0.371236349741    12.000000000000
         C            0.000758230305    -1.176940167058     0.124897650259    12.000000000000
         C           -0.013766769695     1.195627832942     0.196700650259    12.000000000000
         C           -1.462745769695     0.808164832942    -0.066912349741    12.000000000000
         C            2.253877230305    -0.011514167058     0.063122650259    12.000000000000
         H            0.741562230305     0.055384832942    -1.467822349741     1.007825032230
         H            0.129652230305    -2.097204167058    -0.447554349741     1.007825032230
         H            0.201245230305    -1.373603167058     1.181007650259     1.007825032230
         H            0.230268230305     2.149907832942    -0.276579349741     1.007825032230
         H            0.173508230305     1.295043832942     1.271680650259     1.007825032230
         H           -2.000372769695    -1.055513167058     0.824401650259     1.007825032230
         H           -1.899242769695    -1.132128167058    -0.809635349741     1.007825032230
         H           -2.198761769695     1.200605732942     0.635583650259     1.007825032230
         H           -1.783487769695     1.066344832942    -1.077135349741     1.007825032230
         H            2.765449230305    -0.889128167058    -0.340427349741     1.007825032230
         H            2.777751230305     0.875865832942    -0.298996349741     1.007825032230
         H            2.333928230305    -0.034423167058     1.154162650259     1.007825032230

  Basis Set: AUG-CC-PVTZ
    Blend: AUG-CC-PVTZ
  Basis Set: (AUG-CC-PVTZ AUX)
    Blend: AUG-CC-PVTZ-JKFIT
	 Reference Energy          =    -250.6568618129126094 [Eh]
	 Singles Energy            =      -0.0000000000000000 [Eh]
	 Same-Spin Energy          =      -0.2610940479733431 [Eh]
	 Opposite-Spin Energy      =      -0.9373821725615564 [Eh]
	 Correlation Energy        =      -1.1984762205348996 [Eh]
	 Total Energy              =    -251.8553380334475094 [Eh]

	 ================> DF-SCS-MP2 Energies <==================
	-----------------------------------------------------------
	 SCS Same-Spin Scale       =       0.3333333333333333 [-]
	 SCS Opposite-Spin Scale   =       1.2000000000000000 [-]
	 SCS Same-Spin Energy      =      -0.0870313493244477 [Eh]
	 SCS Opposite-Spin Energy  =      -1.1248586070738678 [Eh]
	 SCS Correlation Energy    =      -1.2118899563983154 [Eh]
	 SCS Total Energy          =    -251.8687517693109328 [Eh]
	-----------------------------------------------------------

  Dipole Moment: [D]
     X:    -4.2252      Y:    -1.8664      Z:    -0.0194     Total:     4.6191

*** Psi4 exiting successfully. Buy a developer a beer!
