                               Psi4 1.4a3.dev225

  ==> Input File <==

--------------------------------------------------------------------------
#psi4
#
memory 32 gb

molecule  {
1 1
  N       -1.4684160    -0.7256290     0.0168660
  C        0.7789870     0.0252000    -0.3750600
  C       -0.0292288    -1.2332652     0.0315713
  C       -0.0289190     1.1951300     0.1928770
  C       -1.4778980     0.8076670    -0.0707360
  C        2.2387250    -0.0120120     0.0592990
  H        0.7264100     0.0548870    -1.4716460
  H        0.1145000    -2.0977020    -0.4513780
  H        0.1860930    -1.3741010     1.1771840
  H        0.2151160     2.1494100    -0.2804030
  H        0.1583560     1.2945460     1.2678570
  H       -2.0155250    -1.0560110     0.8205780
  H       -1.9143950    -1.1326260    -0.8134590
  H       -2.2036780     1.1930490     0.6461700
  H       -1.7986400     1.0658470    -1.0809590
  H        2.7502970    -0.8896260    -0.3442510
  H        2.7625990     0.8753680    -0.3028200
  H        2.3187760    -0.0349210     1.1503390
units angstrom
no_reorient  #important for SAPT in psi4, default
symmetry c1  #important for SAPT in psi4, default
}

set PROPERTIES_ORIGIN ["COM"]
properties('MP2/aug-cc-pvtz', properties = ['dipole'])
--------------------------------------------------------------------------

    Molecular point group: c1
  Charge       = 1
  Multiplicity = 1
  Basis Set: AUG-CC-PVTZ
    Blend: AUG-CC-PVTZ
  Basis Set: (AUG-CC-PVTZ AUX)
    Blend: AUG-CC-PVTZ-JKFIT

    Orbital Energies [Eh]
    ---------------------

    Doubly Occupied:

       1A    -15.866730     2A    -11.465257     3A    -11.460639
       4A    -11.405327     5A    -11.397783     6A    -11.359373
       7A     -1.492536     8A     -1.261026     9A     -1.196064
      10A     -1.099596    11A     -1.025655    12A     -0.969586
      13A     -0.943075    14A     -0.897914    15A     -0.819414
      16A     -0.788663    17A     -0.768726    18A     -0.738082
      19A     -0.715037    20A     -0.691917    21A     -0.679355
      22A     -0.655993    23A     -0.633387    24A     -0.627851

  @DF-RHF Final Energy:  -250.64263540562072

   => Energetics <=

    Nuclear Repulsion Energy =            265.2646134184658990
    One-Electron Energy =                -853.8965248980285878
    Two-Electron Energy =                 337.9892760739419373
    Total Energy =                       -250.6426354056206947
  Basis Set: (AUG-CC-PVTZ AUX)
    Blend: AUG-CC-PVTZ-RI
    Molecular point group: c1

    Geometry (in Angstrom), charge = 1, multiplicity = 1:

       Center              X                  Y                   Z               Mass
    ------------   -----------------  -----------------  -----------------  -----------------
         N           -1.451315948600    -0.717267469861     0.032995653446    14.003074004430
         C            0.796087051400     0.033561530139    -0.358930346554    12.000000000000
         C           -0.012128748600    -1.224903669861     0.047700953446    12.000000000000
         C           -0.011818948600     1.203491530139     0.209006653446    12.000000000000
         C           -1.460797948600     0.816028530139    -0.054606346554    12.000000000000
         C            2.255825051400    -0.003650469861     0.075428653446    12.000000000000
         H            0.743510051400     0.063248530139    -1.455516346554     1.007825032230
         H            0.131600051400    -2.089340469861    -0.435248346554     1.007825032230
         H            0.203193051400    -1.365739469861     1.193313653446     1.007825032230
         H            0.232216051400     2.157771530139    -0.264273346554     1.007825032230
         H            0.175456051400     1.302907530139     1.283986653446     1.007825032230
         H           -1.998424948600    -1.047649469861     0.836707653446     1.007825032230
         H           -1.897294948600    -1.124264469861    -0.797329346554     1.007825032230
         H           -2.186577948600     1.201410530139     0.662299653446     1.007825032230
         H           -1.781539948600     1.074208530139    -1.064829346554     1.007825032230
         H            2.767397051400    -0.881264469861    -0.328121346554     1.007825032230
         H            2.779699051400     0.883729530139    -0.286690346554     1.007825032230
         H            2.335876051400    -0.026559469861     1.166468653446     1.007825032230

  Basis Set: AUG-CC-PVTZ
    Blend: AUG-CC-PVTZ
  Basis Set: (AUG-CC-PVTZ AUX)
    Blend: AUG-CC-PVTZ-JKFIT
	 Reference Energy          =    -250.6426354056207231 [Eh]
	 Singles Energy            =      -0.0000000000000000 [Eh]
	 Same-Spin Energy          =      -0.2610698526405591 [Eh]
	 Opposite-Spin Energy      =      -0.9379079844346963 [Eh]
	 Correlation Energy        =      -1.1989778370752553 [Eh]
	 Total Energy              =    -251.8416132426959848 [Eh]

	 ================> DF-SCS-MP2 Energies <==================
	-----------------------------------------------------------
	 SCS Same-Spin Scale       =       0.3333333333333333 [-]
	 SCS Opposite-Spin Scale   =       1.2000000000000000 [-]
	 SCS Same-Spin Energy      =      -0.0870232842135197 [Eh]
	 SCS Opposite-Spin Energy  =      -1.1254895813216355 [Eh]
	 SCS Correlation Energy    =      -1.2125128655351551 [Eh]
	 SCS Total Energy          =    -251.8551482711558833 [Eh]
	-----------------------------------------------------------

  Dipole Moment: [D]
     X:    -4.2482      Y:    -1.8233      Z:    -0.0345     Total:     4.6231

*** Psi4 exiting successfully. Buy a developer a beer!
