                               Psi4 1.4a3.dev225

  ==> Input File <==

--------------------------------------------------------------------------
#psi4
#
memory 32 gb

molecule  {
1 1
  N       -1.4684160    -0.7256290     0.0168660
  C        0.7789870     0.0252000    -0.3750600
  C       -0.0143940    -1.1774380     0.1210740
  C       -0.0289190     1.1951300     0.1928770
  C       -1.4778980     0.8076670    -0.0707360
  C        2.2226504    -0.0130566     0.1099760
  H        0.7264100     0.0548870    -1.4716460
  H        0.1145000    -2.0977020    -0.4513780
  H        0.1860930    -1.3741010     1.1771840
  H        0.2151160     2.1494100    -0.2804030
  H        0.1583560     1.2945460     1.2678570
  H       -2.0155250    -1.0560110     0.8205780
  H       -1.9143950    -1.1326260    -0.8134590
  H       -2.2036780     1.1930490     0.6461700
  H       -1.7986400     1.0658470    -1.0809590
  H        2.7502970    -0.8896260    -0.3442510
  H        2.7625990     0.8753680    -0.3028200
  H        2.3187760    -0.0349210     1.1503390
units angstrom
no_reorient  #important for SAPT in psi4, default
symmetry c1  #important for SAPT in psi4, default
}

set PROPERTIES_ORIGIN ["COM"]
properties('MP2/aug-cc-pvtz', properties = ['dipole'])
--------------------------------------------------------------------------

    Molecular point group: c1
  Charge       = 1
  Multiplicity = 1
  Basis Set: AUG-CC-PVTZ
    Blend: AUG-CC-PVTZ
  Basis Set: (AUG-CC-PVTZ AUX)
    Blend: AUG-CC-PVTZ-JKFIT

    Orbital Energies [Eh]
    ---------------------

    Doubly Occupied:

       1A    -15.865225     2A    -11.463525     3A    -11.459634
       4A    -11.403388     5A    -11.396349     6A    -11.359781
       7A     -1.492479     8A     -1.265522     9A     -1.193970
      10A     -1.098293    11A     -1.023732    12A     -0.975545
      13A     -0.935410    14A     -0.892655    15A     -0.827627
      16A     -0.791672    17A     -0.753616    18A     -0.737773
      19A     -0.716083    20A     -0.699947    21A     -0.684858
      22A     -0.651220    23A     -0.643779    24A     -0.622741

  @DF-RHF Final Energy:  -250.65351627818984

   => Energetics <=

    Nuclear Repulsion Energy =            266.0374154807935270
    One-Electron Energy =                -855.4722154829626106
    Two-Electron Energy =                 338.7812837239792998
    Total Energy =                       -250.6535162781898407
  Basis Set: (AUG-CC-PVTZ AUX)
    Blend: AUG-CC-PVTZ-RI
    Molecular point group: c1

    Geometry (in Angstrom), charge = 1, multiplicity = 1:

       Center              X                  Y                   Z               Mass
    ------------   -----------------  -----------------  -----------------  -----------------
         N           -1.451143148103    -0.724902943752     0.013457726453    14.003074004430
         C            0.796259851897     0.025926056248    -0.378468273547    12.000000000000
         C            0.002878851897    -1.176711943752     0.117665726453    12.000000000000
         C           -0.011646148103     1.195856056248     0.189468726453    12.000000000000
         C           -1.460625148103     0.808393056248    -0.074144273547    12.000000000000
         C            2.239923251897    -0.012330543752     0.106567726453    12.000000000000
         H            0.743682851897     0.055613056248    -1.475054273547     1.007825032230
         H            0.131772851897    -2.096975943752    -0.454786273547     1.007825032230
         H            0.203365851897    -1.373374943752     1.173775726453     1.007825032230
         H            0.232388851897     2.150136056248    -0.283811273547     1.007825032230
         H            0.175628851897     1.295272056248     1.264448726453     1.007825032230
         H           -1.998252148103    -1.055284943752     0.817169726453     1.007825032230
         H           -1.897122148103    -1.131899943752    -0.816867273547     1.007825032230
         H           -2.186405148103     1.193775056248     0.642761726453     1.007825032230
         H           -1.781367148103     1.066573056248    -1.084367273547     1.007825032230
         H            2.767569851897    -0.888899943752    -0.347659273547     1.007825032230
         H            2.779871851897     0.876094056248    -0.306228273547     1.007825032230
         H            2.336048851897    -0.034194943752     1.146930726453     1.007825032230

  Basis Set: AUG-CC-PVTZ
    Blend: AUG-CC-PVTZ
  Basis Set: (AUG-CC-PVTZ AUX)
    Blend: AUG-CC-PVTZ-JKFIT
	 Reference Energy          =    -250.6535162781898407 [Eh]
	 Singles Energy            =      -0.0000000000000000 [Eh]
	 Same-Spin Energy          =      -0.2611945958922148 [Eh]
	 Opposite-Spin Energy      =      -0.9376424947094260 [Eh]
	 Correlation Energy        =      -1.1988370906016408 [Eh]
	 Total Energy              =    -251.8523533687914835 [Eh]

	 ================> DF-SCS-MP2 Energies <==================
	-----------------------------------------------------------
	 SCS Same-Spin Scale       =       0.3333333333333333 [-]
	 SCS Opposite-Spin Scale   =       1.2000000000000000 [-]
	 SCS Same-Spin Energy      =      -0.0870648652974049 [Eh]
	 SCS Opposite-Spin Energy  =      -1.1251709936513110 [Eh]
	 SCS Correlation Energy    =      -1.2122358589487159 [Eh]
	 SCS Total Energy          =    -251.8657521371385428 [Eh]
	-----------------------------------------------------------

  Dipole Moment: [D]
     X:    -4.2082      Y:    -1.8644      Z:    -0.0381     Total:     4.6028

*** Psi4 exiting successfully. Buy a developer a beer!
