                               Psi4 1.4a3.dev225

  ==> Input File <==

--------------------------------------------------------------------------
#psi4
#
memory 32 gb

molecule  {
1 1
  N       -1.4684160    -0.7256290     0.0168660
  C        0.7789870     0.0252000    -0.3750600
  C       -0.0143940    -1.1774380     0.1210740
  C       -0.0289190     1.1951300     0.1928770
  C       -1.4778980     0.8076670    -0.0707360
  C        2.2387250    -0.0120120     0.0592990
  H        0.7254525     0.0554276    -1.4916158
  H        0.1145000    -2.0977020    -0.4513780
  H        0.1860930    -1.3741010     1.1771840
  H        0.2151160     2.1494100    -0.2804030
  H        0.1583560     1.2945460     1.2678570
  H       -2.0155250    -1.0560110     0.8205780
  H       -1.9143950    -1.1326260    -0.8134590
  H       -2.2036780     1.1930490     0.6461700
  H       -1.7986400     1.0658470    -1.0809590
  H        2.7502970    -0.8896260    -0.3442510
  H        2.7625990     0.8753680    -0.3028200
  H        2.3187760    -0.0349210     1.1503390
units angstrom
no_reorient  #important for SAPT in psi4, default
symmetry c1  #important for SAPT in psi4, default
}

set PROPERTIES_ORIGIN ["COM"]
properties('MP2/aug-cc-pvtz', properties = ['dipole'])
--------------------------------------------------------------------------

    Molecular point group: c1
  Charge       = 1
  Multiplicity = 1
  Basis Set: AUG-CC-PVTZ
    Blend: AUG-CC-PVTZ
  Basis Set: (AUG-CC-PVTZ AUX)
    Blend: AUG-CC-PVTZ-JKFIT

    Orbital Energies [Eh]
    ---------------------

    Doubly Occupied:

       1A    -15.865626     2A    -11.463825     3A    -11.460204
       4A    -11.405420     5A    -11.396882     6A    -11.359781
       7A     -1.492700     8A     -1.264494     9A     -1.193986
      10A     -1.099018    11A     -1.023881    12A     -0.973819
      13A     -0.934281    14A     -0.891921    15A     -0.826825
      16A     -0.791478    17A     -0.753753    18A     -0.739656
      19A     -0.711665    20A     -0.703686    21A     -0.679739
      22A     -0.654996    23A     -0.636994    24A     -0.628986

  @DF-RHF Final Energy:  -250.65636733852097

   => Energetics <=

    Nuclear Repulsion Energy =            265.7836424848947559
    One-Electron Energy =                -854.9727852229791552
    Two-Electron Energy =                 338.5327753995634907
    Total Energy =                       -250.6563673385209654
  Basis Set: (AUG-CC-PVTZ AUX)
    Blend: AUG-CC-PVTZ-RI
    Molecular point group: c1

    Geometry (in Angstrom), charge = 1, multiplicity = 1:

       Center              X                  Y                   Z               Mass
    ------------   -----------------  -----------------  -----------------  -----------------
         N           -1.453372380998    -0.725054865818     0.020754731589    14.003074004430
         C            0.794030619002     0.025774134182    -0.371171268411    12.000000000000
         C            0.000649619002    -1.176863865818     0.124962731589    12.000000000000
         C           -0.013875380998     1.195704134182     0.196765731589    12.000000000000
         C           -1.462854380998     0.808241134182    -0.066847268411    12.000000000000
         C            2.253768619002    -0.011437865818     0.063187731589    12.000000000000
         H            0.740496119002     0.056001734182    -1.487727068411     1.007825032230
         H            0.129543619002    -2.097127865818    -0.447489268411     1.007825032230
         H            0.201136619002    -1.373526865818     1.181072731589     1.007825032230
         H            0.230159619002     2.149984134182    -0.276514268411     1.007825032230
         H            0.173399619002     1.295120134182     1.271745731589     1.007825032230
         H           -2.000481380998    -1.055436865818     0.824466731589     1.007825032230
         H           -1.899351380998    -1.132051865818    -0.809570268411     1.007825032230
         H           -2.188634380998     1.193623134182     0.650058731589     1.007825032230
         H           -1.783596380998     1.066421134182    -1.077070268411     1.007825032230
         H            2.765340619002    -0.889051865818    -0.340362268411     1.007825032230
         H            2.777642619002     0.875942134182    -0.298931268411     1.007825032230
         H            2.333819619002    -0.034346865818     1.154227731589     1.007825032230

  Basis Set: AUG-CC-PVTZ
    Blend: AUG-CC-PVTZ
  Basis Set: (AUG-CC-PVTZ AUX)
    Blend: AUG-CC-PVTZ-JKFIT
	 Reference Energy          =    -250.6563673385209654 [Eh]
	 Singles Energy            =      -0.0000000000000000 [Eh]
	 Same-Spin Energy          =      -0.2611122099847556 [Eh]
	 Opposite-Spin Energy      =      -0.9375507705229872 [Eh]
	 Correlation Energy        =      -1.1986629805077427 [Eh]
	 Total Energy              =    -251.8550303190287138 [Eh]

	 ================> DF-SCS-MP2 Energies <==================
	-----------------------------------------------------------
	 SCS Same-Spin Scale       =       0.3333333333333333 [-]
	 SCS Opposite-Spin Scale   =       1.2000000000000000 [-]
	 SCS Same-Spin Energy      =      -0.0870374033282519 [Eh]
	 SCS Opposite-Spin Energy  =      -1.1250609246275847 [Eh]
	 SCS Correlation Energy    =      -1.2120983279558366 [Eh]
	 SCS Total Energy          =    -251.8684656664767942 [Eh]
	-----------------------------------------------------------

  Dipole Moment: [D]
     X:    -4.2169      Y:    -1.8669      Z:    -0.0070     Total:     4.6117

*** Psi4 exiting successfully. Buy a developer a beer!
