                               Psi4 1.4a3.dev225

  ==> Input File <==

--------------------------------------------------------------------------
#psi4
#
memory 32 gb

molecule  {
1 1
  N       -1.4684160    -0.7256290     0.0168660
  C        0.7789870     0.0252000    -0.3750600
  C       -0.0143940    -1.1774380     0.1210740
  C       -0.0289190     1.1951300     0.1928770
  C       -1.4837889     0.8524305    -0.0987907
  C        2.2387250    -0.0120120     0.0592990
  H        0.7264100     0.0548870    -1.4716460
  H        0.1145000    -2.0977020    -0.4513780
  H        0.1860930    -1.3741010     1.1771840
  H        0.2151160     2.1494100    -0.2804030
  H        0.1583560     1.2945460     1.2678570
  H       -2.0155250    -1.0560110     0.8205780
  H       -1.9143950    -1.1326260    -0.8134590
  H       -2.2036780     1.1930490     0.6461700
  H       -1.7986400     1.0658470    -1.0809590
  H        2.7502970    -0.8896260    -0.3442510
  H        2.7625990     0.8753680    -0.3028200
  H        2.3187760    -0.0349210     1.1503390
units angstrom
no_reorient  #important for SAPT in psi4, default
symmetry c1  #important for SAPT in psi4, default
}

set PROPERTIES_ORIGIN ["COM"]
properties('MP2/aug-cc-pvtz', properties = ['dipole'])
--------------------------------------------------------------------------

    Molecular point group: c1
  Charge       = 1
  Multiplicity = 1
  Basis Set: AUG-CC-PVTZ
    Blend: AUG-CC-PVTZ
  Basis Set: (AUG-CC-PVTZ AUX)
    Blend: AUG-CC-PVTZ-JKFIT

    Orbital Energies [Eh]
    ---------------------

    Doubly Occupied:

       1A    -15.860747     2A    -11.466325     3A    -11.458228
       4A    -11.403203     5A    -11.397949     6A    -11.359586
       7A     -1.482125     8A     -1.264148     9A     -1.194954
      10A     -1.097277    11A     -1.026319    12A     -0.971816
      13A     -0.930908    14A     -0.886034    15A     -0.827370
      16A     -0.799708    17A     -0.748003    18A     -0.735695
      19A     -0.712710    20A     -0.704552    21A     -0.684416
      22A     -0.655102    23A     -0.639144    24A     -0.630370

  @DF-RHF Final Energy:  -250.65455459564535

   => Energetics <=

    Nuclear Repulsion Energy =            265.2724686324498293
    One-Electron Energy =                -853.9806683065748985
    Two-Electron Energy =                 338.0536450784797466
    Total Energy =                       -250.6545545956453793
  Basis Set: (AUG-CC-PVTZ AUX)
    Blend: AUG-CC-PVTZ-RI
    Molecular point group: c1

    Geometry (in Angstrom), charge = 1, multiplicity = 1:

       Center              X                  Y                   Z               Mass
    ------------   -----------------  -----------------  -----------------  -----------------
         N           -1.452562528991    -0.731287572293     0.024431171300    14.003074004430
         C            0.794840471009     0.019541427707    -0.367494828700    12.000000000000
         C            0.001459471009    -1.183096572293     0.128639171300    12.000000000000
         C           -0.013065528991     1.189471427707     0.200442171300    12.000000000000
         C           -1.467935428991     0.846771927707    -0.091225528700    12.000000000000
         C            2.254578471009    -0.017670572293     0.066864171300    12.000000000000
         H            0.742263471009     0.049228427707    -1.464080828700     1.007825032230
         H            0.130353471009    -2.103360572293    -0.443812828700     1.007825032230
         H            0.201946471009    -1.379759572293     1.184749171300     1.007825032230
         H            0.230969471009     2.143751427707    -0.272837828700     1.007825032230
         H            0.174209471009     1.288887427707     1.275422171300     1.007825032230
         H           -1.999671528991    -1.061669572293     0.828143171300     1.007825032230
         H           -1.898541528991    -1.138284572293    -0.805893828700     1.007825032230
         H           -2.187824528991     1.187390427707     0.653735171300     1.007825032230
         H           -1.782786528991     1.060188427707    -1.073393828700     1.007825032230
         H            2.766150471009    -0.895284572293    -0.336685828700     1.007825032230
         H            2.778452471009     0.869709427707    -0.295254828700     1.007825032230
         H            2.334629471009    -0.040579572293     1.157904171300     1.007825032230

  Basis Set: AUG-CC-PVTZ
    Blend: AUG-CC-PVTZ
  Basis Set: (AUG-CC-PVTZ AUX)
    Blend: AUG-CC-PVTZ-JKFIT
	 Reference Energy          =    -250.6545545956453509 [Eh]
	 Singles Energy            =      -0.0000000000000000 [Eh]
	 Same-Spin Energy          =      -0.2609155220075894 [Eh]
	 Opposite-Spin Energy      =      -0.9374787085968539 [Eh]
	 Correlation Energy        =      -1.1983942306044433 [Eh]
	 Total Energy              =    -251.8529488262497864 [Eh]

	 ================> DF-SCS-MP2 Energies <==================
	-----------------------------------------------------------
	 SCS Same-Spin Scale       =       0.3333333333333333 [-]
	 SCS Opposite-Spin Scale   =       1.2000000000000000 [-]
	 SCS Same-Spin Energy      =      -0.0869718406691965 [Eh]
	 SCS Opposite-Spin Energy  =      -1.1249744503162247 [Eh]
	 SCS Correlation Energy    =      -1.2119462909854211 [Eh]
	 SCS Total Energy          =    -251.8665008866307744 [Eh]
	-----------------------------------------------------------

  Dipole Moment: [D]
     X:    -4.2123      Y:    -1.7818      Z:    -0.0225     Total:     4.5737

*** Psi4 exiting successfully. Buy a developer a beer!
