                               Psi4 1.4a3.dev225

  ==> Input File <==

--------------------------------------------------------------------------
#psi4
#
memory 32 gb

molecule  {
1 1
  N       -1.4684160    -0.7256290     0.0168660
  C        0.7789870     0.0252000    -0.3750600
  C       -0.0143940    -1.1774380     0.1210740
  C       -0.0349851     1.2027195     0.1679851
  C       -1.4778980     0.8076670    -0.0707360
  C        2.2387250    -0.0120120     0.0592990
  H        0.7264100     0.0548870    -1.4716460
  H        0.1145000    -2.0977020    -0.4513780
  H        0.1860930    -1.3741010     1.1771840
  H        0.2151160     2.1494100    -0.2804030
  H        0.1583560     1.2945460     1.2678570
  H       -2.0155250    -1.0560110     0.8205780
  H       -1.9143950    -1.1326260    -0.8134590
  H       -2.2036780     1.1930490     0.6461700
  H       -1.7986400     1.0658470    -1.0809590
  H        2.7502970    -0.8896260    -0.3442510
  H        2.7625990     0.8753680    -0.3028200
  H        2.3187760    -0.0349210     1.1503390
units angstrom
no_reorient  #important for SAPT in psi4, default
symmetry c1  #important for SAPT in psi4, default
}

set PROPERTIES_ORIGIN ["COM"]
properties('MP2/aug-cc-pvtz', properties = ['dipole'])
--------------------------------------------------------------------------

    Molecular point group: c1
  Charge       = 1
  Multiplicity = 1
  Basis Set: AUG-CC-PVTZ
    Blend: AUG-CC-PVTZ
  Basis Set: (AUG-CC-PVTZ AUX)
    Blend: AUG-CC-PVTZ-JKFIT

    Orbital Energies [Eh]
    ---------------------

    Doubly Occupied:

       1A    -15.866111     2A    -11.463742     3A    -11.460376
       4A    -11.403166     5A    -11.397048     6A    -11.359759
       7A     -1.493076     8A     -1.265217     9A     -1.195304
      10A     -1.099107    11A     -1.023725    12A     -0.974569
      13A     -0.935863    14A     -0.892872    15A     -0.826829
      16A     -0.790811    17A     -0.754653    18A     -0.741545
      19A     -0.712257    20A     -0.706488    21A     -0.676459
      22A     -0.655181    23A     -0.638180    24A     -0.628050

  @DF-RHF Final Energy:  -250.65610006120846

   => Energetics <=

    Nuclear Repulsion Energy =            265.8821821714866473
    One-Electron Energy =                -855.1557897646158608
    Two-Electron Energy =                 338.6175075319207508
    Total Energy =                       -250.6561000612084626
  Basis Set: (AUG-CC-PVTZ AUX)
    Blend: AUG-CC-PVTZ-RI
    Molecular point group: c1

    Geometry (in Angstrom), charge = 1, multiplicity = 1:

       Center              X                  Y                   Z               Mass
    ------------   -----------------  -----------------  -----------------  -----------------
         N           -1.452538110014    -0.726106344925     0.023990347447    14.003074004430
         C            0.794864889986     0.024722655075    -0.367935652553    12.000000000000
         C            0.001483889986    -1.177915344925     0.128198347447    12.000000000000
         C           -0.019107210014     1.202242155075     0.175109447447    12.000000000000
         C           -1.462020110014     0.807189655075    -0.063611652553    12.000000000000
         C            2.254602889986    -0.012489344925     0.066423347447    12.000000000000
         H            0.742287889986     0.054409655075    -1.464521652553     1.007825032230
         H            0.130377889986    -2.098179344925    -0.444253652553     1.007825032230
         H            0.201970889986    -1.374578344925     1.184308347447     1.007825032230
         H            0.230993889986     2.148932655075    -0.273278652553     1.007825032230
         H            0.174233889986     1.294068655075     1.274981347447     1.007825032230
         H           -1.999647110014    -1.056488344925     0.827702347447     1.007825032230
         H           -1.898517110014    -1.133103344925    -0.806334652553     1.007825032230
         H           -2.187800110014     1.192571655075     0.653294347447     1.007825032230
         H           -1.782762110014     1.065369655075    -1.073834652553     1.007825032230
         H            2.766174889986    -0.890103344925    -0.337126652553     1.007825032230
         H            2.778476889986     0.874890655075    -0.295695652553     1.007825032230
         H            2.334653889986    -0.035398344925     1.157463347447     1.007825032230

  Basis Set: AUG-CC-PVTZ
    Blend: AUG-CC-PVTZ
  Basis Set: (AUG-CC-PVTZ AUX)
    Blend: AUG-CC-PVTZ-JKFIT
	 Reference Energy          =    -250.6561000612084626 [Eh]
	 Singles Energy            =      -0.0000000000000000 [Eh]
	 Same-Spin Energy          =      -0.2611151702385464 [Eh]
	 Opposite-Spin Energy      =      -0.9374398761202406 [Eh]
	 Correlation Energy        =      -1.1985550463587868 [Eh]
	 Total Energy              =    -251.8546551075672539 [Eh]

	 ================> DF-SCS-MP2 Energies <==================
	-----------------------------------------------------------
	 SCS Same-Spin Scale       =       0.3333333333333333 [-]
	 SCS Opposite-Spin Scale   =       1.2000000000000000 [-]
	 SCS Same-Spin Energy      =      -0.0870383900795154 [Eh]
	 SCS Opposite-Spin Energy  =      -1.1249278513442886 [Eh]
	 SCS Correlation Energy    =      -1.2119662414238042 [Eh]
	 SCS Total Energy          =    -251.8680663026322577 [Eh]
	-----------------------------------------------------------

  Dipole Moment: [D]
     X:    -4.2198      Y:    -1.8790      Z:    -0.0111     Total:     4.6193

*** Psi4 exiting successfully. Buy a developer a beer!
