                               Psi4 1.4a3.dev225

  ==> Input File <==

--------------------------------------------------------------------------
#psi4
#
memory 32 gb

molecule  {
1 1
  N       -1.4684160    -0.7256290     0.0168660
  C        0.7789870     0.0252000    -0.3750600
  C       -0.0143940    -1.1774380     0.1210740
  C       -0.0289190     1.1951300     0.1928770
  C       -1.4778980     0.8076670    -0.0707360
  C        2.2387250    -0.0120120     0.0592990
  H        0.7264100     0.0548870    -1.4716460
  H        0.1145000    -2.0977020    -0.4513780
  H        0.1860930    -1.3741010     1.1771840
  H        0.2151160     2.1494100    -0.2804030
  H        0.1583560     1.2945460     1.2678570
  H       -2.0155250    -1.0560110     0.8205780
  H       -1.9143950    -1.1326260    -0.8134590
  H       -2.2036780     1.1930490     0.6461700
  H       -1.7986400     1.0658470    -1.0809590
  H        2.8221962    -0.8167603    -0.3953508
  H        2.7625990     0.8753680    -0.3028200
  H        2.3187760    -0.0349210     1.1503390
units angstrom
no_reorient  #important for SAPT in psi4, default
symmetry c1  #important for SAPT in psi4, default
}

set PROPERTIES_ORIGIN ["COM"]
properties('MP2/aug-cc-pvtz', properties = ['dipole'])
--------------------------------------------------------------------------

    Molecular point group: c1
  Charge       = 1
  Multiplicity = 1
  Basis Set: AUG-CC-PVTZ
    Blend: AUG-CC-PVTZ
  Basis Set: (AUG-CC-PVTZ AUX)
    Blend: AUG-CC-PVTZ-JKFIT

    Orbital Energies [Eh]
    ---------------------

    Doubly Occupied:

       1A    -15.865527     2A    -11.463987     3A    -11.459821
       4A    -11.403806     5A    -11.397104     6A    -11.359048
       7A     -1.492670     8A     -1.264938     9A     -1.193880
      10A     -1.099031    11A     -1.023761    12A     -0.975053
      13A     -0.935429    14A     -0.892662    15A     -0.828906
      16A     -0.791743    17A     -0.753857    18A     -0.736745
      19A     -0.713198    20A     -0.700773    21A     -0.680619
      22A     -0.658289    23A     -0.638163    24A     -0.626206

  @DF-RHF Final Energy:  -250.65562169731967

   => Energetics <=

    Nuclear Repulsion Energy =            265.7860255618683709
    One-Electron Energy =                -854.9728627141423658
    Two-Electron Energy =                 338.5312154549542356
    Total Energy =                       -250.6556216973197024
  Basis Set: (AUG-CC-PVTZ AUX)
    Blend: AUG-CC-PVTZ-RI
    Molecular point group: c1

    Geometry (in Angstrom), charge = 1, multiplicity = 1:

       Center              X                  Y                   Z               Mass
    ------------   -----------------  -----------------  -----------------  -----------------
         N           -1.454225219400    -0.725901481471     0.021119129914    14.003074004430
         C            0.793177780600     0.024927518529    -0.370806870086    12.000000000000
         C           -0.000203219400    -1.177710481471     0.125327129914    12.000000000000
         C           -0.014728219400     1.194857518529     0.197130129914    12.000000000000
         C           -1.463707219400     0.807394518529    -0.066482870086    12.000000000000
         C            2.252915780600    -0.012284481471     0.063552129914    12.000000000000
         H            0.740600780600     0.054614518529    -1.467392870086     1.007825032230
         H            0.128690780600    -2.097974481471    -0.447124870086     1.007825032230
         H            0.200283780600    -1.374373481471     1.181437129914     1.007825032230
         H            0.229306780600     2.149137518529    -0.276149870086     1.007825032230
         H            0.172546780600     1.294273518529     1.272110129914     1.007825032230
         H           -2.001334219400    -1.056283481471     0.824831129914     1.007825032230
         H           -1.900204219400    -1.132898481471    -0.809205870086     1.007825032230
         H           -2.189487219400     1.192776518529     0.650423129914     1.007825032230
         H           -1.784449219400     1.065574518529    -1.076705870086     1.007825032230
         H            2.836386980600    -0.817032781471    -0.391097670086     1.007825032230
         H            2.776789780600     0.875095518529    -0.298566870086     1.007825032230
         H            2.332966780600    -0.035193481471     1.154592129914     1.007825032230

  Basis Set: AUG-CC-PVTZ
    Blend: AUG-CC-PVTZ
  Basis Set: (AUG-CC-PVTZ AUX)
    Blend: AUG-CC-PVTZ-JKFIT
	 Reference Energy          =    -250.6556216973196740 [Eh]
	 Singles Energy            =      -0.0000000000000000 [Eh]
	 Same-Spin Energy          =      -0.2611526969866133 [Eh]
	 Opposite-Spin Energy      =      -0.9374098116264362 [Eh]
	 Correlation Energy        =      -1.1985625086130494 [Eh]
	 Total Energy              =    -251.8541842059327109 [Eh]

	 ================> DF-SCS-MP2 Energies <==================
	-----------------------------------------------------------
	 SCS Same-Spin Scale       =       0.3333333333333333 [-]
	 SCS Opposite-Spin Scale   =       1.2000000000000000 [-]
	 SCS Same-Spin Energy      =      -0.0870508989955378 [Eh]
	 SCS Opposite-Spin Energy  =      -1.1248917739517235 [Eh]
	 SCS Correlation Energy    =      -1.2119426729472611 [Eh]
	 SCS Total Energy          =    -251.8675643702669333 [Eh]
	-----------------------------------------------------------

  Dipole Moment: [D]
     X:    -4.1998      Y:    -1.8503      Z:    -0.0434     Total:     4.5895

*** Psi4 exiting successfully. Buy a developer a beer!
