                               Psi4 1.4a3.dev225

  ==> Input File <==

--------------------------------------------------------------------------
#psi4
#
memory 32 gb

molecule  {
1 1
  N       -1.4684160    -0.7256290     0.0168660
  C        0.7789870     0.0252000    -0.3750600
  C       -0.0143940    -1.1774380     0.1210740
  C       -0.0289190     1.1951300     0.1928770
  C       -1.4778980     0.8076670    -0.0707360
  C        2.2387250    -0.0120120     0.0592990
  H        0.7264100     0.0548870    -1.4716460
  H        0.1145000    -2.0977020    -0.4513780
  H        0.1860930    -1.3741010     1.1771840
  H        0.2262817     2.1930724    -0.3020576
  H        0.1583560     1.2945460     1.2678570
  H       -2.0155250    -1.0560110     0.8205780
  H       -1.9143950    -1.1326260    -0.8134590
  H       -2.2036780     1.1930490     0.6461700
  H       -1.7986400     1.0658470    -1.0809590
  H        2.7502970    -0.8896260    -0.3442510
  H        2.7625990     0.8753680    -0.3028200
  H        2.3187760    -0.0349210     1.1503390
units angstrom
no_reorient  #important for SAPT in psi4, default
symmetry c1  #important for SAPT in psi4, default
}

set PROPERTIES_ORIGIN ["COM"]
properties('MP2/aug-cc-pvtz', properties = ['dipole'])
--------------------------------------------------------------------------

    Molecular point group: c1
  Charge       = 1
  Multiplicity = 1
  Basis Set: AUG-CC-PVTZ
    Blend: AUG-CC-PVTZ
  Basis Set: (AUG-CC-PVTZ AUX)
    Blend: AUG-CC-PVTZ-JKFIT

    Orbital Energies [Eh]
    ---------------------

    Doubly Occupied:

       1A    -15.865793     2A    -11.464069     3A    -11.460300
       4A    -11.403383     5A    -11.402015     6A    -11.359593
       7A     -1.492920     8A     -1.264328     9A     -1.193387
      10A     -1.099023    11A     -1.021088    12A     -0.974765
      13A     -0.933598    14A     -0.892082    15A     -0.827129
      16A     -0.791556    17A     -0.752544    18A     -0.739343
      19A     -0.711683    20A     -0.700713    21A     -0.676192
      22A     -0.654742    23A     -0.637684    24A     -0.629555

  @DF-RHF Final Energy:  -250.65463179979378

   => Energetics <=

    Nuclear Repulsion Energy =            265.6458607444795348
    One-Electron Energy =                -854.7060145408895551
    Two-Electron Energy =                 338.4055219966163008
    Total Energy =                       -250.6546317997937763
  Basis Set: (AUG-CC-PVTZ AUX)
    Blend: AUG-CC-PVTZ-RI
    Molecular point group: c1

    Geometry (in Angstrom), charge = 1, multiplicity = 1:

       Center              X                  Y                   Z               Mass
    ------------   -----------------  -----------------  -----------------  -----------------
         N           -1.453514291495    -0.725559636511     0.020774453346    14.003074004430
         C            0.793888708505     0.025269363489    -0.371151546654    12.000000000000
         C            0.000507708505    -1.177368636511     0.124982453346    12.000000000000
         C           -0.014017291495     1.195199363489     0.196785453346    12.000000000000
         C           -1.462996291495     0.807736363489    -0.066827546654    12.000000000000
         C            2.253626708505    -0.011942636511     0.063207453346    12.000000000000
         H            0.741311708505     0.054956363489    -1.467737546654     1.007825032230
         H            0.129401708505    -2.097632636511    -0.447469546654     1.007825032230
         H            0.200994708505    -1.374031636511     1.181092453346     1.007825032230
         H            0.241183408505     2.193141763489    -0.298149146654     1.007825032230
         H            0.173257708505     1.294615363489     1.271765453346     1.007825032230
         H           -2.000623291495    -1.055941636511     0.824486453346     1.007825032230
         H           -1.899493291495    -1.132556636511    -0.809550546654     1.007825032230
         H           -2.188776291495     1.193118363489     0.650078453346     1.007825032230
         H           -1.783738291495     1.065916363489    -1.077050546654     1.007825032230
         H            2.765198708505    -0.889556636511    -0.340342546654     1.007825032230
         H            2.777500708505     0.875437363489    -0.298911546654     1.007825032230
         H            2.333677708505    -0.034851636511     1.154247453346     1.007825032230

  Basis Set: AUG-CC-PVTZ
    Blend: AUG-CC-PVTZ
  Basis Set: (AUG-CC-PVTZ AUX)
    Blend: AUG-CC-PVTZ-JKFIT
	 Reference Energy          =    -250.6546317997937763 [Eh]
	 Singles Energy            =      -0.0000000000000000 [Eh]
	 Same-Spin Energy          =      -0.2611500663567159 [Eh]
	 Opposite-Spin Energy      =      -0.9377974111847568 [Eh]
	 Correlation Energy        =      -1.1989474775414728 [Eh]
	 Total Energy              =    -251.8535792773352568 [Eh]

	 ================> DF-SCS-MP2 Energies <==================
	-----------------------------------------------------------
	 SCS Same-Spin Scale       =       0.3333333333333333 [-]
	 SCS Opposite-Spin Scale   =       1.2000000000000000 [-]
	 SCS Same-Spin Energy      =      -0.0870500221189053 [Eh]
	 SCS Opposite-Spin Energy  =      -1.1253568934217082 [Eh]
	 SCS Correlation Energy    =      -1.2124069155406134 [Eh]
	 SCS Total Energy          =    -251.8670387153343881 [Eh]
	-----------------------------------------------------------

  Dipole Moment: [D]
     X:    -4.2201      Y:    -1.8716      Z:    -0.0178     Total:     4.6165

*** Psi4 exiting successfully. Buy a developer a beer!
