                               Psi4 1.4a3.dev225

  ==> Input File <==

--------------------------------------------------------------------------
#psi4
#
memory 32 gb

molecule  {
1 1
  N       -1.4684160    -0.7256290     0.0168660
  C        0.7789870     0.0252000    -0.3750600
  C       -0.0143940    -1.1774380     0.1210740
  C       -0.0289190     1.1951300     0.1928770
  C       -1.4778980     0.8076670    -0.0707360
  C        2.2387250    -0.0120120     0.0592990
  H        0.7168353     0.0602933    -1.6713435
  H        0.1145000    -2.0977020    -0.4513780
  H        0.1860930    -1.3741010     1.1771840
  H        0.2151160     2.1494100    -0.2804030
  H        0.1583560     1.2945460     1.2678570
  H       -2.0155250    -1.0560110     0.8205780
  H       -1.9143950    -1.1326260    -0.8134590
  H       -2.2036780     1.1930490     0.6461700
  H       -1.7986400     1.0658470    -1.0809590
  H        2.7502970    -0.8896260    -0.3442510
  H        2.7625990     0.8753680    -0.3028200
  H        2.3187760    -0.0349210     1.1503390
units angstrom
no_reorient  #important for SAPT in psi4, default
symmetry c1  #important for SAPT in psi4, default
}

set PROPERTIES_ORIGIN ["COM"]
properties('MP2/aug-cc-pvtz', properties = ['dipole'])
--------------------------------------------------------------------------

    Molecular point group: c1
  Charge       = 1
  Multiplicity = 1
  Basis Set: AUG-CC-PVTZ
    Blend: AUG-CC-PVTZ
  Basis Set: (AUG-CC-PVTZ AUX)
    Blend: AUG-CC-PVTZ-JKFIT

    Orbital Energies [Eh]
    ---------------------

    Doubly Occupied:

       1A    -15.865955     2A    -11.463984     3A    -11.462132
       4A    -11.425047     5A    -11.398833     6A    -11.361848
       7A     -1.492901     8A     -1.261776     9A     -1.194155
      10A     -1.100111    11A     -1.024686    12A     -0.967963
      13A     -0.929041    14A     -0.888524    15A     -0.819249
      16A     -0.790066    17A     -0.754214    18A     -0.740546
      19A     -0.710726    20A     -0.704028    21A     -0.680457
      22A     -0.657313    23A     -0.633999    24A     -0.611378

  @DF-RHF Final Energy:  -250.63730915411199

   => Energetics <=

    Nuclear Repulsion Energy =            264.9793041368606055
    One-Electron Energy =                -853.3553589161406308
    Two-Electron Energy =                 337.7387456251680078
    Total Energy =                       -250.6373091541120175
  Basis Set: (AUG-CC-PVTZ AUX)
    Blend: AUG-CC-PVTZ-RI
    Molecular point group: c1

    Geometry (in Angstrom), charge = 1, multiplicity = 1:

       Center              X                  Y                   Z               Mass
    ------------   -----------------  -----------------  -----------------  -----------------
         N           -1.453271510672    -0.725111822224     0.022858569457    14.003074004430
         C            0.794131489328     0.025717177776    -0.369067430543    12.000000000000
         C            0.000750489328    -1.176920822224     0.127066569457    12.000000000000
         C           -0.013774510672     1.195647177776     0.198869569457    12.000000000000
         C           -1.462753510672     0.808184177776    -0.064743430543    12.000000000000
         C            2.253869489328    -0.011494822224     0.065291569457    12.000000000000
         H            0.731979789328     0.060810477776    -1.665350930543     1.007825032230
         H            0.129644489328    -2.097184822224    -0.445385430543     1.007825032230
         H            0.201237489328    -1.373583822224     1.183176569457     1.007825032230
         H            0.230260489328     2.149927177776    -0.274410430543     1.007825032230
         H            0.173500489328     1.295063177776     1.273849569457     1.007825032230
         H           -2.000380510672    -1.055493822224     0.826570569457     1.007825032230
         H           -1.899250510672    -1.132108822224    -0.807466430543     1.007825032230
         H           -2.188533510672     1.193566177776     0.652162569457     1.007825032230
         H           -1.783495510672     1.066364177776    -1.074966430543     1.007825032230
         H            2.765441489328    -0.889108822224    -0.338258430543     1.007825032230
         H            2.777743489328     0.875885177776    -0.296827430543     1.007825032230
         H            2.333920489328    -0.034403822224     1.156331569457     1.007825032230

  Basis Set: AUG-CC-PVTZ
    Blend: AUG-CC-PVTZ
  Basis Set: (AUG-CC-PVTZ AUX)
    Blend: AUG-CC-PVTZ-JKFIT
	 Reference Energy          =    -250.6373091541119891 [Eh]
	 Singles Energy            =      -0.0000000000000000 [Eh]
	 Same-Spin Energy          =      -0.2612742821532276 [Eh]
	 Opposite-Spin Energy      =      -0.9391441047269620 [Eh]
	 Correlation Energy        =      -1.2004183868801896 [Eh]
	 Total Energy              =    -251.8377275409921765 [Eh]

	 ================> DF-SCS-MP2 Energies <==================
	-----------------------------------------------------------
	 SCS Same-Spin Scale       =       0.3333333333333333 [-]
	 SCS Opposite-Spin Scale   =       1.2000000000000000 [-]
	 SCS Same-Spin Energy      =      -0.0870914273844092 [Eh]
	 SCS Opposite-Spin Energy  =      -1.1269729256723544 [Eh]
	 SCS Correlation Energy    =      -1.2140643530567636 [Eh]
	 SCS Total Energy          =    -251.8513735071687449 [Eh]
	-----------------------------------------------------------

  Dipole Moment: [D]
     X:    -4.1827      Y:    -1.8626      Z:     0.0980     Total:     4.5797

*** Psi4 exiting successfully. Buy a developer a beer!
