                               Psi4 1.4a3.dev225

  ==> Input File <==

--------------------------------------------------------------------------
#psi4
#
memory 32 gb

molecule  {
1 1
  N       -1.4684160    -0.7256290     0.0168660
  C        0.7789870     0.0252000    -0.3750600
  C       -0.0143940    -1.1774380     0.1210740
  C       -0.0289190     1.1951300     0.1928770
  C       -1.4778980     0.8076670    -0.0707360
  C        2.2387250    -0.0120120     0.0592990
  H        0.7264100     0.0548870    -1.4716460
  H        0.1026903    -2.0133841    -0.3989279
  H        0.1860930    -1.3741010     1.1771840
  H        0.2151160     2.1494100    -0.2804030
  H        0.1583560     1.2945460     1.2678570
  H       -2.0155250    -1.0560110     0.8205780
  H       -1.9143950    -1.1326260    -0.8134590
  H       -2.2036780     1.1930490     0.6461700
  H       -1.7986400     1.0658470    -1.0809590
  H        2.7502970    -0.8896260    -0.3442510
  H        2.7625990     0.8753680    -0.3028200
  H        2.3187760    -0.0349210     1.1503390
units angstrom
no_reorient  #important for SAPT in psi4, default
symmetry c1  #important for SAPT in psi4, default
}

set PROPERTIES_ORIGIN ["COM"]
properties('MP2/aug-cc-pvtz', properties = ['dipole'])
--------------------------------------------------------------------------

    Molecular point group: c1
  Charge       = 1
  Multiplicity = 1
  Basis Set: AUG-CC-PVTZ
    Blend: AUG-CC-PVTZ
  Basis Set: (AUG-CC-PVTZ AUX)
    Blend: AUG-CC-PVTZ-JKFIT

    Orbital Energies [Eh]
    ---------------------

    Doubly Occupied:

       1A    -15.865329     2A    -11.463657     3A    -11.449174
       4A    -11.402708     5A    -11.396346     6A    -11.359610
       7A     -1.493107     8A     -1.265414     9A     -1.198667
      10A     -1.103239    11A     -1.025944    12A     -0.974940
      13A     -0.940555    14A     -0.896739    15A     -0.828024
      16A     -0.794916    17A     -0.760832    18A     -0.739611
      19A     -0.716902    20A     -0.703665    21A     -0.679693
      22A     -0.654947    23A     -0.638441    24A     -0.630120

  @DF-RHF Final Energy:  -250.65109780119644

   => Energetics <=

    Nuclear Repulsion Energy =            266.4051744155383403
    One-Electron Energy =                -856.1473816955787015
    Two-Electron Energy =                 339.0911094788439186
    Total Energy =                       -250.6510978011964426
  Basis Set: (AUG-CC-PVTZ AUX)
    Blend: AUG-CC-PVTZ-RI
    Molecular point group: c1

    Geometry (in Angstrom), charge = 1, multiplicity = 1:

       Center              X                  Y                   Z               Mass
    ------------   -----------------  -----------------  -----------------  -----------------
         N           -1.453245348441    -0.726035537446     0.019907006236    14.003074004430
         C            0.794157651559     0.024793462554    -0.372018993764    12.000000000000
         C            0.000776651559    -1.177844537446     0.124115006236    12.000000000000
         C           -0.013748348441     1.194723462554     0.195918006236    12.000000000000
         C           -1.462727348441     0.807260462554    -0.067694993764    12.000000000000
         C            2.253895651559    -0.012418537446     0.062340006236    12.000000000000
         H            0.741580651559     0.054480462554    -1.468604993764     1.007825032230
         H            0.117860951559    -2.013790637446    -0.395886893764     1.007825032230
         H            0.201263651559    -1.374507537446     1.180225006236     1.007825032230
         H            0.230286651559     2.149003462554    -0.277361993764     1.007825032230
         H            0.173526651559     1.294139462554     1.270898006236     1.007825032230
         H           -2.000354348441    -1.056417537446     0.823619006236     1.007825032230
         H           -1.899224348441    -1.133032537446    -0.810417993764     1.007825032230
         H           -2.188507348441     1.192642462554     0.649211006236     1.007825032230
         H           -1.783469348441     1.065440462554    -1.077917993764     1.007825032230
         H            2.765467651559    -0.890032537446    -0.341209993764     1.007825032230
         H            2.777769651559     0.874961462554    -0.299778993764     1.007825032230
         H            2.333946651559    -0.035327537446     1.153380006236     1.007825032230

  Basis Set: AUG-CC-PVTZ
    Blend: AUG-CC-PVTZ
  Basis Set: (AUG-CC-PVTZ AUX)
    Blend: AUG-CC-PVTZ-JKFIT
	 Reference Energy          =    -250.6510978011964426 [Eh]
	 Singles Energy            =      -0.0000000000000000 [Eh]
	 Same-Spin Energy          =      -0.2609744248170005 [Eh]
	 Opposite-Spin Energy      =      -0.9367756520659256 [Eh]
	 Correlation Energy        =      -1.1977500768829261 [Eh]
	 Total Energy              =    -251.8488478780793685 [Eh]

	 ================> DF-SCS-MP2 Energies <==================
	-----------------------------------------------------------
	 SCS Same-Spin Scale       =       0.3333333333333333 [-]
	 SCS Opposite-Spin Scale   =       1.2000000000000000 [-]
	 SCS Same-Spin Energy      =      -0.0869914749390002 [Eh]
	 SCS Opposite-Spin Energy  =      -1.1241307824791107 [Eh]
	 SCS Correlation Energy    =      -1.2111222574181109 [Eh]
	 SCS Total Energy          =    -251.8622200586145539 [Eh]
	-----------------------------------------------------------

  Dipole Moment: [D]
     X:    -4.2256      Y:    -1.8716      Z:    -0.0071     Total:     4.6215

*** Psi4 exiting successfully. Buy a developer a beer!
