                               Psi4 1.4a3.dev225

  ==> Input File <==

--------------------------------------------------------------------------
#psi4
#
memory 32 gb

molecule  {
1 1
  N       -1.4684160    -0.7256290     0.0168660
  C        0.7789870     0.0252000    -0.3750600
  C       -0.0143940    -1.1774380     0.1210740
  C       -0.0289190     1.1951300     0.1928770
  C       -1.4778980     0.8076670    -0.0707360
  C        2.2387250    -0.0120120     0.0592990
  H        0.7264100     0.0548870    -1.4716460
  H        0.1145000    -2.0977020    -0.4513780
  H        0.1897622    -1.3777002     1.1965123
  H        0.2151160     2.1494100    -0.2804030
  H        0.1583560     1.2945460     1.2678570
  H       -2.0155250    -1.0560110     0.8205780
  H       -1.9143950    -1.1326260    -0.8134590
  H       -2.2036780     1.1930490     0.6461700
  H       -1.7986400     1.0658470    -1.0809590
  H        2.7502970    -0.8896260    -0.3442510
  H        2.7625990     0.8753680    -0.3028200
  H        2.3187760    -0.0349210     1.1503390
units angstrom
no_reorient  #important for SAPT in psi4, default
symmetry c1  #important for SAPT in psi4, default
}

set PROPERTIES_ORIGIN ["COM"]
properties('MP2/aug-cc-pvtz', properties = ['dipole'])
--------------------------------------------------------------------------

    Molecular point group: c1
  Charge       = 1
  Multiplicity = 1
  Basis Set: AUG-CC-PVTZ
    Blend: AUG-CC-PVTZ
  Basis Set: (AUG-CC-PVTZ AUX)
    Blend: AUG-CC-PVTZ-JKFIT

    Orbital Energies [Eh]
    ---------------------

    Doubly Occupied:

       1A    -15.865702     2A    -11.463841     3A    -11.462171
       4A    -11.403197     5A    -11.396706     6A    -11.359582
       7A     -1.492650     8A     -1.264906     9A     -1.193405
      10A     -1.098226    11A     -1.023521    12A     -0.974017
      13A     -0.935109    14A     -0.892283    15A     -0.827223
      16A     -0.790252    17A     -0.753724    18A     -0.739440
      19A     -0.710501    20A     -0.703025    21A     -0.679596
      22A     -0.654848    23A     -0.638493    24A     -0.629414

  @DF-RHF Final Energy:  -250.65630697753235

   => Energetics <=

    Nuclear Repulsion Energy =            265.7883796349696013
    One-Electron Energy =                -854.9857035093485820
    Two-Electron Energy =                 338.5410168968465996
    Total Energy =                       -250.6563069775323811
  Basis Set: (AUG-CC-PVTZ AUX)
    Blend: AUG-CC-PVTZ-RI
    Molecular point group: c1

    Geometry (in Angstrom), charge = 1, multiplicity = 1:

       Center              X                  Y                   Z               Mass
    ------------   -----------------  -----------------  -----------------  -----------------
         N           -1.453426539743    -0.725006406576     0.020294719966    14.003074004430
         C            0.793976460257     0.025822593424    -0.371631280034    12.000000000000
         C            0.000595460257    -1.176815406576     0.124502719966    12.000000000000
         C           -0.013929539743     1.195752593424     0.196305719966    12.000000000000
         C           -1.462908539743     0.808289593424    -0.067307280034    12.000000000000
         C            2.253714460257    -0.011389406576     0.062727719966    12.000000000000
         H            0.741399460257     0.055509593424    -1.468217280034     1.007825032230
         H            0.129489460257    -2.097079406576    -0.447949280034     1.007825032230
         H            0.204751660257    -1.377077606576     1.199941019966     1.007825032230
         H            0.230105460257     2.150032593424    -0.276974280034     1.007825032230
         H            0.173345460257     1.295168593424     1.271285719966     1.007825032230
         H           -2.000535539743    -1.055388406576     0.824006719966     1.007825032230
         H           -1.899405539743    -1.132003406576    -0.810030280034     1.007825032230
         H           -2.188688539743     1.193671593424     0.649598719966     1.007825032230
         H           -1.783650539743     1.066469593424    -1.077530280034     1.007825032230
         H            2.765286460257    -0.889003406576    -0.340822280034     1.007825032230
         H            2.777588460257     0.875990593424    -0.299391280034     1.007825032230
         H            2.333765460257    -0.034298406576     1.153767719966     1.007825032230

  Basis Set: AUG-CC-PVTZ
    Blend: AUG-CC-PVTZ
  Basis Set: (AUG-CC-PVTZ AUX)
    Blend: AUG-CC-PVTZ-JKFIT
	 Reference Energy          =    -250.6563069775323527 [Eh]
	 Singles Energy            =      -0.0000000000000000 [Eh]
	 Same-Spin Energy          =      -0.2611327730857743 [Eh]
	 Opposite-Spin Energy      =      -0.9375717688639458 [Eh]
	 Correlation Energy        =      -1.1987045419497200 [Eh]
	 Total Energy              =    -251.8550115194820762 [Eh]

	 ================> DF-SCS-MP2 Energies <==================
	-----------------------------------------------------------
	 SCS Same-Spin Scale       =       0.3333333333333333 [-]
	 SCS Opposite-Spin Scale   =       1.2000000000000000 [-]
	 SCS Same-Spin Energy      =      -0.0870442576952581 [Eh]
	 SCS Opposite-Spin Energy  =      -1.1250861226367348 [Eh]
	 SCS Correlation Energy    =      -1.2121303803319929 [Eh]
	 SCS Total Energy          =    -251.8684373578643374 [Eh]
	-----------------------------------------------------------

  Dipole Moment: [D]
     X:    -4.2198      Y:    -1.8663      Z:    -0.0179     Total:     4.6141

*** Psi4 exiting successfully. Buy a developer a beer!
