                               Psi4 1.4a3.dev225

  ==> Input File <==

--------------------------------------------------------------------------
#psi4
#
memory 32 gb

molecule  {
1 1
  N       -1.4684160    -0.7256290     0.0168660
  C        0.7789870     0.0252000    -0.3750600
  C       -0.0054372    -1.0896579     0.2542405
  C       -0.0289190     1.1951300     0.1928770
  C       -1.4778980     0.8076670    -0.0707360
  C        2.2387250    -0.0120120     0.0592990
  H        0.7264100     0.0548870    -1.4716460
  H        0.1145000    -2.0977020    -0.4513780
  H        0.1860930    -1.3741010     1.1771840
  H        0.2151160     2.1494100    -0.2804030
  H        0.1583560     1.2945460     1.2678570
  H       -2.0155250    -1.0560110     0.8205780
  H       -1.9143950    -1.1326260    -0.8134590
  H       -2.2036780     1.1930490     0.6461700
  H       -1.7986400     1.0658470    -1.0809590
  H        2.7502970    -0.8896260    -0.3442510
  H        2.7625990     0.8753680    -0.3028200
  H        2.3187760    -0.0349210     1.1503390
units angstrom
no_reorient  #important for SAPT in psi4, default
symmetry c1  #important for SAPT in psi4, default
}

set PROPERTIES_ORIGIN ["COM"]
properties('MP2/aug-cc-pvtz', properties = ['dipole'])
--------------------------------------------------------------------------

    Molecular point group: c1
  Charge       = 1
  Multiplicity = 1
  Basis Set: AUG-CC-PVTZ
    Blend: AUG-CC-PVTZ
  Basis Set: (AUG-CC-PVTZ AUX)
    Blend: AUG-CC-PVTZ-JKFIT

    Orbital Energies [Eh]
    ---------------------

    Doubly Occupied:

       1A    -15.866643     2A    -11.463711     3A    -11.462902
       4A    -11.403607     5A    -11.396270     6A    -11.360311
       7A     -1.494803     8A     -1.271783     9A     -1.192998
      10A     -1.102306    11A     -1.025050    12A     -0.984618
      13A     -0.928233    14A     -0.894540    15A     -0.839644
      16A     -0.798676    17A     -0.751230    18A     -0.739286
      19A     -0.716761    20A     -0.689226    21A     -0.677349
      22A     -0.653921    23A     -0.647036    24A     -0.617348

  @DF-RHF Final Energy:  -250.62633069136592

   => Energetics <=

    Nuclear Repulsion Energy =            266.7276204518302052
    One-Electron Energy =                -856.7513978471768041
    Two-Electron Energy =                 339.3974467039806200
    Total Energy =                       -250.6263306913659221
  Basis Set: (AUG-CC-PVTZ AUX)
    Blend: AUG-CC-PVTZ-RI
    Molecular point group: c1

    Geometry (in Angstrom), charge = 1, multiplicity = 1:

       Center              X                  Y                   Z               Mass
    ------------   -----------------  -----------------  -----------------  -----------------
         N           -1.454631967566    -0.737283127928     0.001960528009    14.003074004430
         C            0.792771032434     0.013545872072    -0.389965471991    12.000000000000
         C            0.008346832434    -1.101312027928     0.239335028009    12.000000000000
         C           -0.015134967566     1.183475872072     0.177971528009    12.000000000000
         C           -1.464113967566     0.796012872072    -0.085641471991    12.000000000000
         C            2.252509032434    -0.023666127928     0.044393528009    12.000000000000
         H            0.740194032434     0.043232872072    -1.486551471991     1.007825032230
         H            0.128284032434    -2.109356127928    -0.466283471991     1.007825032230
         H            0.199877032434    -1.385755127928     1.162278528009     1.007825032230
         H            0.228900032434     2.137755872072    -0.295308471991     1.007825032230
         H            0.172140032434     1.282891872072     1.252951528009     1.007825032230
         H           -2.001740967566    -1.067665127928     0.805672528009     1.007825032230
         H           -1.900610967566    -1.144280127928    -0.828364471991     1.007825032230
         H           -2.189893967566     1.181394872072     0.631264528009     1.007825032230
         H           -1.784855967566     1.054192872072    -1.095864471991     1.007825032230
         H            2.764081032434    -0.901280127928    -0.359156471991     1.007825032230
         H            2.776383032434     0.863713872072    -0.317725471991     1.007825032230
         H            2.332560032434    -0.046575127928     1.135433528009     1.007825032230

  Basis Set: AUG-CC-PVTZ
    Blend: AUG-CC-PVTZ
  Basis Set: (AUG-CC-PVTZ AUX)
    Blend: AUG-CC-PVTZ-JKFIT
	 Reference Energy          =    -250.6263306913659221 [Eh]
	 Singles Energy            =      -0.0000000000000000 [Eh]
	 Same-Spin Energy          =      -0.2620690285052191 [Eh]
	 Opposite-Spin Energy      =      -0.9393270822817149 [Eh]
	 Correlation Energy        =      -1.2013961107869340 [Eh]
	 Total Energy              =    -251.8277268021528528 [Eh]

	 ================> DF-SCS-MP2 Energies <==================
	-----------------------------------------------------------
	 SCS Same-Spin Scale       =       0.3333333333333333 [-]
	 SCS Opposite-Spin Scale   =       1.2000000000000000 [-]
	 SCS Same-Spin Energy      =      -0.0873563428350730 [Eh]
	 SCS Opposite-Spin Energy  =      -1.1271924987380579 [Eh]
	 SCS Correlation Energy    =      -1.2145488415731309 [Eh]
	 SCS Total Energy          =    -251.8408795329390557 [Eh]
	-----------------------------------------------------------

  Dipole Moment: [D]
     X:    -4.2032      Y:    -1.8474      Z:    -0.0106     Total:     4.5913

*** Psi4 exiting successfully. Buy a developer a beer!
