                               Psi4 1.4a3.dev225

  ==> Input File <==

--------------------------------------------------------------------------
#psi4
#
memory 32 gb

molecule  {
1 1
  N       -1.4684160    -0.7256290     0.0168660
  C        0.7789870     0.0252000    -0.3750600
  C       -0.0143940    -1.1774380     0.1210740
  C       -0.0289190     1.1951300     0.1928770
  C       -1.4778980     0.8076670    -0.0707360
  C        2.2387250    -0.0120120     0.0592990
  H        0.7288037     0.0535354    -1.4217216
  H        0.1145000    -2.0977020    -0.4513780
  H        0.1860930    -1.3741010     1.1771840
  H        0.2151160     2.1494100    -0.2804030
  H        0.1583560     1.2945460     1.2678570
  H       -2.0155250    -1.0560110     0.8205780
  H       -1.9143950    -1.1326260    -0.8134590
  H       -2.2036780     1.1930490     0.6461700
  H       -1.7986400     1.0658470    -1.0809590
  H        2.7502970    -0.8896260    -0.3442510
  H        2.7625990     0.8753680    -0.3028200
  H        2.3187760    -0.0349210     1.1503390
units angstrom
no_reorient  #important for SAPT in psi4, default
symmetry c1  #important for SAPT in psi4, default
}

set PROPERTIES_ORIGIN ["COM"]
properties('MP2/aug-cc-pvtz', properties = ['dipole'])
--------------------------------------------------------------------------

    Molecular point group: c1
  Charge       = 1
  Multiplicity = 1
  Basis Set: AUG-CC-PVTZ
    Blend: AUG-CC-PVTZ
  Basis Set: (AUG-CC-PVTZ AUX)
    Blend: AUG-CC-PVTZ-JKFIT

    Orbital Energies [Eh]
    ---------------------

    Doubly Occupied:

       1A    -15.865574     2A    -11.463826     3A    -11.459655
       4A    -11.397142     5A    -11.396217     6A    -11.359162
       7A     -1.492732     8A     -1.266636     9A     -1.194159
      10A     -1.098856    11A     -1.023769    12A     -0.978217
      13A     -0.937281    14A     -0.893586    15A     -0.830006
      16A     -0.792023    17A     -0.753640    18A     -0.739525
      19A     -0.712485    20A     -0.703611    21A     -0.679583
      22A     -0.654349    23A     -0.642992    24A     -0.629755

  @DF-RHF Final Energy:  -250.65602238538852

   => Energetics <=

    Nuclear Repulsion Energy =            266.1376924084292455
    One-Electron Energy =                -855.6578743848976956
    Two-Electron Energy =                 338.8641595910798969
    Total Energy =                       -250.6560223853884963
  Basis Set: (AUG-CC-PVTZ AUX)
    Blend: AUG-CC-PVTZ-RI
    Molecular point group: c1

    Geometry (in Angstrom), charge = 1, multiplicity = 1:

       Center              X                  Y                   Z               Mass
    ------------   -----------------  -----------------  -----------------  -----------------
         N           -1.453411609128    -0.725032716299     0.019936571313    14.003074004430
         C            0.793991390872     0.025796283701    -0.371989428687    12.000000000000
         C            0.000610390872    -1.176841716299     0.124144571313    12.000000000000
         C           -0.013914609128     1.195726283701     0.195947571313    12.000000000000
         C           -1.462893609128     0.808263283701    -0.067665428687    12.000000000000
         C            2.253729390872    -0.011415716299     0.062369571313    12.000000000000
         H            0.743808090872     0.054131683701    -1.418651028687     1.007825032230
         H            0.129504390872    -2.097105716299    -0.448307428687     1.007825032230
         H            0.201097390872    -1.373504716299     1.180254571313     1.007825032230
         H            0.230120390872     2.150006283701    -0.277332428687     1.007825032230
         H            0.173360390872     1.295142283701     1.270927571313     1.007825032230
         H           -2.000520609128    -1.055414716299     0.823648571313     1.007825032230
         H           -1.899390609128    -1.132029716299    -0.810388428687     1.007825032230
         H           -2.188673609128     1.193645283701     0.649240571313     1.007825032230
         H           -1.783635609128     1.066443283701    -1.077888428687     1.007825032230
         H            2.765301390872    -0.889029716299    -0.341180428687     1.007825032230
         H            2.777603390872     0.875964283701    -0.299749428687     1.007825032230
         H            2.333780390872    -0.034324716299     1.153409571313     1.007825032230

  Basis Set: AUG-CC-PVTZ
    Blend: AUG-CC-PVTZ
  Basis Set: (AUG-CC-PVTZ AUX)
    Blend: AUG-CC-PVTZ-JKFIT
	 Reference Energy          =    -250.6560223853885248 [Eh]
	 Singles Energy            =      -0.0000000000000000 [Eh]
	 Same-Spin Energy          =      -0.2610626193947441 [Eh]
	 Opposite-Spin Energy      =      -0.9370910388667740 [Eh]
	 Correlation Energy        =      -1.1981536582615182 [Eh]
	 Total Energy              =    -251.8541760436500567 [Eh]

	 ================> DF-SCS-MP2 Energies <==================
	-----------------------------------------------------------
	 SCS Same-Spin Scale       =       0.3333333333333333 [-]
	 SCS Opposite-Spin Scale   =       1.2000000000000000 [-]
	 SCS Same-Spin Energy      =      -0.0870208731315814 [Eh]
	 SCS Opposite-Spin Energy  =      -1.1245092466401287 [Eh]
	 SCS Correlation Energy    =      -1.2115301197717101 [Eh]
	 SCS Total Energy          =    -251.8675525051602335 [Eh]
	-----------------------------------------------------------

  Dipole Moment: [D]
     X:    -4.2299      Y:    -1.8687      Z:    -0.0356     Total:     4.6245

*** Psi4 exiting successfully. Buy a developer a beer!
