                               Psi4 1.4a3.dev225

  ==> Input File <==

--------------------------------------------------------------------------
#psi4
#
memory 32 gb

molecule  {
1 1
  N       -1.4684160    -0.7256290     0.0168660
  C        0.7789870     0.0252000    -0.3750600
  C       -0.0143940    -1.1774380     0.1210740
  C       -0.0289190     1.1951300     0.1928770
  C       -1.4778980     0.8076670    -0.0707360
  C        2.2387250    -0.0120120     0.0592990
  H        0.7264100     0.0548870    -1.4716460
  H        0.1145000    -2.0977020    -0.4513780
  H        0.1860930    -1.3741010     1.1771840
  H        0.2151160     2.1494100    -0.2804030
  H        0.1583560     1.2945460     1.2678570
  H       -2.0155250    -1.0560110     0.8205780
  H       -1.9143950    -1.1326260    -0.8134590
  H       -2.2036780     1.1930490     0.6461700
  H       -1.7986400     1.0658470    -1.0809590
  H        2.7268959    -0.8494809    -0.3257912
  H        2.7625990     0.8753680    -0.3028200
  H        2.3187760    -0.0349210     1.1503390
units angstrom
no_reorient  #important for SAPT in psi4, default
symmetry c1  #important for SAPT in psi4, default
}

set PROPERTIES_ORIGIN ["COM"]
properties('MP2/aug-cc-pvtz', properties = ['dipole'])
--------------------------------------------------------------------------

    Molecular point group: c1
  Charge       = 1
  Multiplicity = 1
  Basis Set: AUG-CC-PVTZ
    Blend: AUG-CC-PVTZ
  Basis Set: (AUG-CC-PVTZ AUX)
    Blend: AUG-CC-PVTZ-JKFIT

    Orbital Energies [Eh]
    ---------------------

    Doubly Occupied:

       1A    -15.865539     2A    -11.463626     3A    -11.460005
       4A    -11.402717     5A    -11.396427     6A    -11.353694
       7A     -1.492614     8A     -1.265194     9A     -1.194187
      10A     -1.102310    11A     -1.024438    12A     -0.975330
      13A     -0.935653    14A     -0.892619    15A     -0.828032
      16A     -0.791771    17A     -0.754114    18A     -0.742625
      19A     -0.714338    20A     -0.703741    21A     -0.679622
      22A     -0.654874    23A     -0.638549    24A     -0.632829

  @DF-RHF Final Energy:  -250.65588668969320

   => Energetics <=

    Nuclear Repulsion Energy =            266.1021094959703532
    One-Electron Energy =                -855.5862932966758763
    Two-Electron Energy =                 338.8282971110123185
    Total Energy =                       -250.6558866896932045
  Basis Set: (AUG-CC-PVTZ AUX)
    Blend: AUG-CC-PVTZ-RI
    Molecular point group: c1

    Geometry (in Angstrom), charge = 1, multiplicity = 1:

       Center              X                  Y                   Z               Mass
    ------------   -----------------  -----------------  -----------------  -----------------
         N           -1.453109663033    -0.725518464066     0.020304886364    14.003074004430
         C            0.794293336967     0.025310535934    -0.371621113636    12.000000000000
         C            0.000912336967    -1.177327464066     0.124512886364    12.000000000000
         C           -0.013612663033     1.195240535934     0.196315886364    12.000000000000
         C           -1.462591663033     0.807777535934    -0.067297113636    12.000000000000
         C            2.254031336967    -0.011901464066     0.062737886364    12.000000000000
         H            0.741716336967     0.054997535934    -1.468207113636     1.007825032230
         H            0.129806336967    -2.097591464066    -0.447939113636     1.007825032230
         H            0.201399336967    -1.373990464066     1.180622886364     1.007825032230
         H            0.230422336967     2.149520535934    -0.276964113636     1.007825032230
         H            0.173662336967     1.294656535934     1.271295886364     1.007825032230
         H           -2.000218663033    -1.055900464066     0.824016886364     1.007825032230
         H           -1.899088663033    -1.132515464066    -0.810020113636     1.007825032230
         H           -2.188371663033     1.193159535934     0.649608886364     1.007825032230
         H           -1.783333663033     1.065957535934    -1.077520113636     1.007825032230
         H            2.742202236967    -0.849370364066    -0.322352313636     1.007825032230
         H            2.777905336967     0.875478535934    -0.299381113636     1.007825032230
         H            2.334082336967    -0.034810464066     1.153777886364     1.007825032230

  Basis Set: AUG-CC-PVTZ
    Blend: AUG-CC-PVTZ
  Basis Set: (AUG-CC-PVTZ AUX)
    Blend: AUG-CC-PVTZ-JKFIT
	 Reference Energy          =    -250.6558866896932045 [Eh]
	 Singles Energy            =      -0.0000000000000000 [Eh]
	 Same-Spin Energy          =      -0.2611095061518742 [Eh]
	 Opposite-Spin Energy      =      -0.9371273775016877 [Eh]
	 Correlation Energy        =      -1.1982368836535620 [Eh]
	 Total Energy              =    -251.8541235733467545 [Eh]

	 ================> DF-SCS-MP2 Energies <==================
	-----------------------------------------------------------
	 SCS Same-Spin Scale       =       0.3333333333333333 [-]
	 SCS Opposite-Spin Scale   =       1.2000000000000000 [-]
	 SCS Same-Spin Energy      =      -0.0870365020506247 [Eh]
	 SCS Opposite-Spin Energy  =      -1.1245528530020252 [Eh]
	 SCS Correlation Energy    =      -1.2115893550526500 [Eh]
	 SCS Total Energy          =    -251.8674760447458425 [Eh]
	-----------------------------------------------------------

  Dipole Moment: [D]
     X:    -4.2095      Y:    -1.8799      Z:    -0.0200     Total:     4.6102

*** Psi4 exiting successfully. Buy a developer a beer!
