                               Psi4 1.4a3.dev225

  ==> Input File <==

--------------------------------------------------------------------------
#psi4
#
memory 32 gb

molecule  {
1 1
  N       -1.4684160    -0.7256290     0.0168660
  C        0.7789870     0.0252000    -0.3750600
  C       -0.0209296    -1.2056440     0.0763589
  C       -0.0289190     1.1951300     0.1928770
  C       -1.4778980     0.8076670    -0.0707360
  C        2.2387250    -0.0120120     0.0592990
  H        0.7264100     0.0548870    -1.4716460
  H        0.1145000    -2.0977020    -0.4513780
  H        0.1860930    -1.3741010     1.1771840
  H        0.2151160     2.1494100    -0.2804030
  H        0.1583560     1.2945460     1.2678570
  H       -2.0155250    -1.0560110     0.8205780
  H       -1.9143950    -1.1326260    -0.8134590
  H       -2.2036780     1.1930490     0.6461700
  H       -1.7986400     1.0658470    -1.0809590
  H        2.7502970    -0.8896260    -0.3442510
  H        2.7625990     0.8753680    -0.3028200
  H        2.3187760    -0.0349210     1.1503390
units angstrom
no_reorient  #important for SAPT in psi4, default
symmetry c1  #important for SAPT in psi4, default
}

set PROPERTIES_ORIGIN ["COM"]
properties('MP2/aug-cc-pvtz', properties = ['dipole'])
--------------------------------------------------------------------------

    Molecular point group: c1
  Charge       = 1
  Multiplicity = 1
  Basis Set: AUG-CC-PVTZ
    Blend: AUG-CC-PVTZ
  Basis Set: (AUG-CC-PVTZ AUX)
    Blend: AUG-CC-PVTZ-JKFIT

    Orbital Energies [Eh]
    ---------------------

    Doubly Occupied:

       1A    -15.865990     2A    -11.464460     3A    -11.460052
       4A    -11.403947     5A    -11.397173     6A    -11.359454
       7A     -1.492499     8A     -1.262954     9A     -1.194899
      10A     -1.098958    11A     -1.024495    12A     -0.971987
      13A     -0.938839    14A     -0.894683    15A     -0.823271
      16A     -0.789816    17A     -0.761273    18A     -0.738591
      19A     -0.713332    20A     -0.698981    21A     -0.679651
      22A     -0.655347    23A     -0.634368    24A     -0.631043

  @DF-RHF Final Energy:  -250.65348338839522

   => Energetics <=

    Nuclear Repulsion Energy =            265.5769515277947335
    One-Electron Energy =                -854.5487457226311108
    Two-Electron Energy =                 338.3183108064411044
    Total Energy =                       -250.6534833883952160
  Basis Set: (AUG-CC-PVTZ AUX)
    Blend: AUG-CC-PVTZ-RI
    Molecular point group: c1

    Geometry (in Angstrom), charge = 1, multiplicity = 1:

       Center              X                  Y                   Z               Mass
    ------------   -----------------  -----------------  -----------------  -----------------
         N           -1.452472672175    -0.721117249744     0.026753259869    14.003074004430
         C            0.794930327825     0.029711750256    -0.365172740131    12.000000000000
         C           -0.004986272175    -1.201132249744     0.086246159869    12.000000000000
         C           -0.012975672175     1.199641750256     0.202764259869    12.000000000000
         C           -1.461954672175     0.812178750256    -0.060848740131    12.000000000000
         C            2.254668327825    -0.007500249744     0.069186259869    12.000000000000
         H            0.742353327825     0.059398750256    -1.461758740131     1.007825032230
         H            0.130443327825    -2.093190249744    -0.441490740131     1.007825032230
         H            0.202036327825    -1.369589249744     1.187071259869     1.007825032230
         H            0.231059327825     2.153921750256    -0.270515740131     1.007825032230
         H            0.174299327825     1.299057750256     1.277744259869     1.007825032230
         H           -1.999581672175    -1.051499249744     0.830465259869     1.007825032230
         H           -1.898451672175    -1.128114249744    -0.803571740131     1.007825032230
         H           -2.187734672175     1.197560750256     0.656057259869     1.007825032230
         H           -1.782696672175     1.070358750256    -1.071071740131     1.007825032230
         H            2.766240327825    -0.885114249744    -0.334363740131     1.007825032230
         H            2.778542327825     0.879879750256    -0.292932740131     1.007825032230
         H            2.334719327825    -0.030409249744     1.160226259869     1.007825032230

  Basis Set: AUG-CC-PVTZ
    Blend: AUG-CC-PVTZ
  Basis Set: (AUG-CC-PVTZ AUX)
    Blend: AUG-CC-PVTZ-JKFIT
	 Reference Energy          =    -250.6534833883952160 [Eh]
	 Singles Energy            =      -0.0000000000000000 [Eh]
	 Same-Spin Energy          =      -0.2610199181329702 [Eh]
	 Opposite-Spin Energy      =      -0.9374753607628059 [Eh]
	 Correlation Energy        =      -1.1984952788957761 [Eh]
	 Total Energy              =    -251.8519786672909788 [Eh]

	 ================> DF-SCS-MP2 Energies <==================
	-----------------------------------------------------------
	 SCS Same-Spin Scale       =       0.3333333333333333 [-]
	 SCS Opposite-Spin Scale   =       1.2000000000000000 [-]
	 SCS Same-Spin Energy      =      -0.0870066393776567 [Eh]
	 SCS Opposite-Spin Energy  =      -1.1249704329153671 [Eh]
	 SCS Correlation Energy    =      -1.2119770722930239 [Eh]
	 SCS Total Energy          =    -251.8654604606882401 [Eh]
	-----------------------------------------------------------

  Dipole Moment: [D]
     X:    -4.2328      Y:    -1.8514      Z:    -0.0241     Total:     4.6201

*** Psi4 exiting successfully. Buy a developer a beer!
