                               Psi4 1.4a3.dev225

  ==> Input File <==

--------------------------------------------------------------------------
#psi4
#
memory 32 gb

molecule  {
1 1
  N       -1.4684160    -0.7256290     0.0168660
  C        0.7789870     0.0252000    -0.3750600
  C       -0.0143940    -1.1774380     0.1210740
  C       -0.0289190     1.1951300     0.1928770
  C       -1.3856812     0.7923379    -0.2015189
  C        2.2387250    -0.0120120     0.0592990
  H        0.7264100     0.0548870    -1.4716460
  H        0.1145000    -2.0977020    -0.4513780
  H        0.1860930    -1.3741010     1.1771840
  H        0.2151160     2.1494100    -0.2804030
  H        0.1583560     1.2945460     1.2678570
  H       -2.0155250    -1.0560110     0.8205780
  H       -1.9143950    -1.1326260    -0.8134590
  H       -2.2036780     1.1930490     0.6461700
  H       -1.7986400     1.0658470    -1.0809590
  H        2.7502970    -0.8896260    -0.3442510
  H        2.7625990     0.8753680    -0.3028200
  H        2.3187760    -0.0349210     1.1503390
units angstrom
no_reorient  #important for SAPT in psi4, default
symmetry c1  #important for SAPT in psi4, default
}

set PROPERTIES_ORIGIN ["COM"]
properties('MP2/aug-cc-pvtz', properties = ['dipole'])
--------------------------------------------------------------------------

    Molecular point group: c1
  Charge       = 1
  Multiplicity = 1
  Basis Set: AUG-CC-PVTZ
    Blend: AUG-CC-PVTZ
  Basis Set: (AUG-CC-PVTZ AUX)
    Blend: AUG-CC-PVTZ-JKFIT

    Orbital Energies [Eh]
    ---------------------

    Doubly Occupied:

       1A    -15.866064     2A    -11.468782     3A    -11.459625
       4A    -11.403374     5A    -11.395843     6A    -11.359321
       7A     -1.495140     8A     -1.272997     9A     -1.197611
      10A     -1.099799    11A     -1.027431    12A     -0.975321
      13A     -0.934706    14A     -0.897471    15A     -0.833901
      16A     -0.795717    17A     -0.750716    18A     -0.735339
      19A     -0.712526    20A     -0.711119    21A     -0.676279
      22A     -0.651812    23A     -0.641255    24A     -0.616945

  @DF-RHF Final Energy:  -250.62784665260051

   => Energetics <=

    Nuclear Repulsion Energy =            266.9989999615688134
    One-Electron Energy =                -857.2955066157816191
    Two-Electron Energy =                 339.6686600016123521
    Total Energy =                       -250.6278466526005104
  Basis Set: (AUG-CC-PVTZ AUX)
    Blend: AUG-CC-PVTZ-RI
    Molecular point group: c1

    Geometry (in Angstrom), charge = 1, multiplicity = 1:

       Center              X                  Y                   Z               Mass
    ------------   -----------------  -----------------  -----------------  -----------------
         N           -1.466236556543    -0.722912002709     0.038749193609    14.003074004430
         C            0.781166443457     0.027916997291    -0.353176806391    12.000000000000
         C           -0.012214556543    -1.174721002709     0.142957193609    12.000000000000
         C           -0.026739556543     1.197846997291     0.214760193609    12.000000000000
         C           -1.383501756543     0.795054897291    -0.179635706391    12.000000000000
         C            2.240904443457    -0.009295002709     0.081182193609    12.000000000000
         H            0.728589443457     0.057603997291    -1.449762806391     1.007825032230
         H            0.116679443457    -2.094985002709    -0.429494806391     1.007825032230
         H            0.188272443457    -1.371384002709     1.199067193609     1.007825032230
         H            0.217295443457     2.152126997291    -0.258519806391     1.007825032230
         H            0.160535443457     1.297262997291     1.289740193609     1.007825032230
         H           -2.013345556543    -1.053294002709     0.842461193609     1.007825032230
         H           -1.912215556543    -1.129909002709    -0.791575806391     1.007825032230
         H           -2.201498556543     1.195765997291     0.668053193609     1.007825032230
         H           -1.796460556543     1.068563997291    -1.059075806391     1.007825032230
         H            2.752476443457    -0.886909002709    -0.322367806391     1.007825032230
         H            2.764778443457     0.878084997291    -0.280936806391     1.007825032230
         H            2.320955443457    -0.032204002709     1.172222193609     1.007825032230

  Basis Set: AUG-CC-PVTZ
    Blend: AUG-CC-PVTZ
  Basis Set: (AUG-CC-PVTZ AUX)
    Blend: AUG-CC-PVTZ-JKFIT
	 Reference Energy          =    -250.6278466526005104 [Eh]
	 Singles Energy            =      -0.0000000000000000 [Eh]
	 Same-Spin Energy          =      -0.2623522443919368 [Eh]
	 Opposite-Spin Energy      =      -0.9394543720068964 [Eh]
	 Correlation Energy        =      -1.2018066163988332 [Eh]
	 Total Energy              =    -251.8296532689993512 [Eh]

	 ================> DF-SCS-MP2 Energies <==================
	-----------------------------------------------------------
	 SCS Same-Spin Scale       =       0.3333333333333333 [-]
	 SCS Opposite-Spin Scale   =       1.2000000000000000 [-]
	 SCS Same-Spin Energy      =      -0.0874507481306456 [Eh]
	 SCS Opposite-Spin Energy  =      -1.1273452464082756 [Eh]
	 SCS Correlation Energy    =      -1.2147959945389213 [Eh]
	 SCS Total Energy          =    -251.8426426471394279 [Eh]
	-----------------------------------------------------------

  Dipole Moment: [D]
     X:    -4.1817      Y:    -1.8558      Z:    -0.0335     Total:     4.5752

*** Psi4 exiting successfully. Buy a developer a beer!
