                               Psi4 1.4a3.dev225

  ==> Input File <==

--------------------------------------------------------------------------
#psi4
#
memory 32 gb

molecule  {
1 1
  N       -1.4684160    -0.7256290     0.0168660
  C        0.7789870     0.0252000    -0.3750600
  C       -0.0143940    -1.1774380     0.1210740
  C       -0.0289190     1.1951300     0.1928770
  C       -1.4785154     0.9075023    -0.0764399
  C        2.2387250    -0.0120120     0.0592990
  H        0.7264100     0.0548870    -1.4716460
  H        0.1145000    -2.0977020    -0.4513780
  H        0.1860930    -1.3741010     1.1771840
  H        0.2151160     2.1494100    -0.2804030
  H        0.1583560     1.2945460     1.2678570
  H       -2.0155250    -1.0560110     0.8205780
  H       -1.9143950    -1.1326260    -0.8134590
  H       -2.2036780     1.1930490     0.6461700
  H       -1.7986400     1.0658470    -1.0809590
  H        2.7502970    -0.8896260    -0.3442510
  H        2.7625990     0.8753680    -0.3028200
  H        2.3187760    -0.0349210     1.1503390
units angstrom
no_reorient  #important for SAPT in psi4, default
symmetry c1  #important for SAPT in psi4, default
}

set PROPERTIES_ORIGIN ["COM"]
properties('MP2/aug-cc-pvtz', properties = ['dipole'])
--------------------------------------------------------------------------

    Molecular point group: c1
  Charge       = 1
  Multiplicity = 1
  Basis Set: AUG-CC-PVTZ
    Blend: AUG-CC-PVTZ
  Basis Set: (AUG-CC-PVTZ AUX)
    Blend: AUG-CC-PVTZ-JKFIT

    Orbital Energies [Eh]
    ---------------------

    Doubly Occupied:

       1A    -15.854112     2A    -11.470947     3A    -11.456227
       4A    -11.404048     5A    -11.398487     6A    -11.359908
       7A     -1.471051     8A     -1.264939     9A     -1.197507
      10A     -1.095761    11A     -1.027371    12A     -0.968755
      13A     -0.927073    14A     -0.879647    15A     -0.827021
      16A     -0.803553    17A     -0.752724    18A     -0.726343
      19A     -0.712544    20A     -0.704367    21A     -0.685126
      22A     -0.657483    23A     -0.639602    24A     -0.632765

  @DF-RHF Final Energy:  -250.65043842149822

   => Energetics <=

    Nuclear Repulsion Energy =            264.7864427632429170
    One-Electron Energy =                -853.0390465300773712
    Two-Electron Energy =                 337.6021653453362319
    Total Energy =                       -250.6504384214982224
  Basis Set: (AUG-CC-PVTZ AUX)
    Blend: AUG-CC-PVTZ-RI
    Molecular point group: c1

    Geometry (in Angstrom), charge = 1, multiplicity = 1:

       Center              X                  Y                   Z               Mass
    ------------   -----------------  -----------------  -----------------  -----------------
         N           -1.453297537398    -0.738963354220     0.021315967754    14.003074004430
         C            0.794105462602     0.011865645780    -0.370610032246    12.000000000000
         C            0.000724462602    -1.190772354220     0.125523967754    12.000000000000
         C           -0.013800537398     1.181795645780     0.197326967754    12.000000000000
         C           -1.463396937398     0.894167945780    -0.071989932246    12.000000000000
         C            2.253843462602    -0.025346354220     0.063748967754    12.000000000000
         H            0.741528462602     0.041552645780    -1.467196032246     1.007825032230
         H            0.129618462602    -2.111036354220    -0.446928032246     1.007825032230
         H            0.201211462602    -1.387435354220     1.181633967754     1.007825032230
         H            0.230234462602     2.136075645780    -0.275953032246     1.007825032230
         H            0.173474462602     1.281211645780     1.272306967754     1.007825032230
         H           -2.000406537398    -1.069345354220     0.825027967754     1.007825032230
         H           -1.899276537398    -1.145960354220    -0.809009032246     1.007825032230
         H           -2.188559537398     1.179714645780     0.650619967754     1.007825032230
         H           -1.783521537398     1.052512645780    -1.076509032246     1.007825032230
         H            2.765415462602    -0.902960354220    -0.339801032246     1.007825032230
         H            2.777717462602     0.862033645780    -0.298370032246     1.007825032230
         H            2.333894462602    -0.048255354220     1.154788967754     1.007825032230

  Basis Set: AUG-CC-PVTZ
    Blend: AUG-CC-PVTZ
  Basis Set: (AUG-CC-PVTZ AUX)
    Blend: AUG-CC-PVTZ-JKFIT
	 Reference Energy          =    -250.6504384214982224 [Eh]
	 Singles Energy            =      -0.0000000000000000 [Eh]
	 Same-Spin Energy          =      -0.2609459873306261 [Eh]
	 Opposite-Spin Energy      =      -0.9377643636116888 [Eh]
	 Correlation Energy        =      -1.1987103509423149 [Eh]
	 Total Energy              =    -251.8491487724405431 [Eh]

	 ================> DF-SCS-MP2 Energies <==================
	-----------------------------------------------------------
	 SCS Same-Spin Scale       =       0.3333333333333333 [-]
	 SCS Opposite-Spin Scale   =       1.2000000000000000 [-]
	 SCS Same-Spin Energy      =      -0.0869819957768753 [Eh]
	 SCS Opposite-Spin Energy  =      -1.1253172363340265 [Eh]
	 SCS Correlation Energy    =      -1.2122992321109018 [Eh]
	 SCS Total Energy          =    -251.8627376536091163 [Eh]
	-----------------------------------------------------------

  Dipole Moment: [D]
     X:    -4.1927      Y:    -1.6739      Z:    -0.0290     Total:     4.5146

*** Psi4 exiting successfully. Buy a developer a beer!
