                               Psi4 1.4a3.dev225

  ==> Input File <==

--------------------------------------------------------------------------
#psi4
#
memory 32 gb

molecule  {
1 1
  N       -1.4684160    -0.7256290     0.0168660
  C        0.7789870     0.0252000    -0.3750600
  C       -0.0143940    -1.1774380     0.1210740
  C       -0.0289190     1.1951300     0.1928770
  C       -1.4778980     0.8076670    -0.0707360
  C        2.2387250    -0.0120120     0.0592990
  H        0.7264100     0.0548870    -1.4716460
  H        0.1145000    -2.0977020    -0.4513780
  H        0.1860930    -1.3741010     1.1771840
  H        0.2151160     2.1494100    -0.2804030
  H        0.1583560     1.2945460     1.2678570
  H       -2.0155250    -1.0560110     0.8205780
  H       -1.9143950    -1.1326260    -0.8134590
  H       -2.2036780     1.1930490     0.6461700
  H       -1.7986400     1.0658470    -1.0809590
  H        2.8439012    -1.0502063    -0.4180901
  H        2.7625990     0.8753680    -0.3028200
  H        2.3187760    -0.0349210     1.1503390
units angstrom
no_reorient  #important for SAPT in psi4, default
symmetry c1  #important for SAPT in psi4, default
}

set PROPERTIES_ORIGIN ["COM"]
properties('MP2/aug-cc-pvtz', properties = ['dipole'])
--------------------------------------------------------------------------

    Molecular point group: c1
  Charge       = 1
  Multiplicity = 1
  Basis Set: AUG-CC-PVTZ
    Blend: AUG-CC-PVTZ
  Basis Set: (AUG-CC-PVTZ AUX)
    Blend: AUG-CC-PVTZ-JKFIT

    Orbital Energies [Eh]
    ---------------------

    Doubly Occupied:

       1A    -15.866069     2A    -11.464894     3A    -11.460348
       4A    -11.404971     5A    -11.398311     6A    -11.381262
       7A     -1.493271     8A     -1.265392     9A     -1.194076
      10A     -1.091114    11A     -1.022470    12A     -0.974111
      13A     -0.933897    14A     -0.892156    15A     -0.827617
      16A     -0.791756    17A     -0.753714    18A     -0.734134
      19A     -0.707015    20A     -0.698448    21A     -0.680173
      22A     -0.655780    23A     -0.640082    24A     -0.607279

  @DF-RHF Final Energy:  -250.63672967743420

   => Energetics <=

    Nuclear Repulsion Energy =            265.1213582055851816
    One-Electron Energy =                -853.6394993675406795
    Two-Electron Energy =                 337.8814114845213226
    Total Energy =                       -250.6367296774342321
  Basis Set: (AUG-CC-PVTZ AUX)
    Blend: AUG-CC-PVTZ-RI
    Molecular point group: c1

    Geometry (in Angstrom), charge = 1, multiplicity = 1:

       Center              X                  Y                   Z               Mass
    ------------   -----------------  -----------------  -----------------  -----------------
         N           -1.454479291538    -0.723168833499     0.021385309253    14.003074004430
         C            0.792923708462     0.027660166501    -0.370540690747    12.000000000000
         C           -0.000457291538    -1.174977833499     0.125593309253    12.000000000000
         C           -0.014982291538     1.197590166501     0.197396309253    12.000000000000
         C           -1.463961291538     0.810127166501    -0.066216690747    12.000000000000
         C            2.252661708462    -0.009551833499     0.063818309253    12.000000000000
         H            0.740346708462     0.057347166501    -1.467126690747     1.007825032230
         H            0.128436708462    -2.095241833499    -0.446858690747     1.007825032230
         H            0.200029708462    -1.371640833499     1.181703309253     1.007825032230
         H            0.229052708462     2.151870166501    -0.275883690747     1.007825032230
         H            0.172292708462     1.297006166501     1.272376309253     1.007825032230
         H           -2.001588291538    -1.053550833499     0.825097309253     1.007825032230
         H           -1.900458291538    -1.130165833499    -0.808939690747     1.007825032230
         H           -2.189741291538     1.195509166501     0.650689309253     1.007825032230
         H           -1.784703291538     1.068307166501    -1.076439690747     1.007825032230
         H            2.857837908462    -1.047746133499    -0.413570790747     1.007825032230
         H            2.776535708462     0.877828166501    -0.298300690747     1.007825032230
         H            2.332712708462    -0.032460833499     1.154858309253     1.007825032230

  Basis Set: AUG-CC-PVTZ
    Blend: AUG-CC-PVTZ
  Basis Set: (AUG-CC-PVTZ AUX)
    Blend: AUG-CC-PVTZ-JKFIT
	 Reference Energy          =    -250.6367296774342037 [Eh]
	 Singles Energy            =      -0.0000000000000000 [Eh]
	 Same-Spin Energy          =      -0.2610857498047335 [Eh]
	 Opposite-Spin Energy      =      -0.9390121466328332 [Eh]
	 Correlation Energy        =      -1.2000978964375668 [Eh]
	 Total Energy              =    -251.8368275738717728 [Eh]

	 ================> DF-SCS-MP2 Energies <==================
	-----------------------------------------------------------
	 SCS Same-Spin Scale       =       0.3333333333333333 [-]
	 SCS Opposite-Spin Scale   =       1.2000000000000000 [-]
	 SCS Same-Spin Energy      =      -0.0870285832682445 [Eh]
	 SCS Opposite-Spin Energy  =      -1.1268145759593997 [Eh]
	 SCS Correlation Energy    =      -1.2138431592276442 [Eh]
	 SCS Total Energy          =    -251.8505728366618541 [Eh]
	-----------------------------------------------------------

  Dipole Moment: [D]
     X:    -4.2846      Y:    -1.7993      Z:     0.0075     Total:     4.6471

*** Psi4 exiting successfully. Buy a developer a beer!
