                               Psi4 1.4a3.dev225

  ==> Input File <==

--------------------------------------------------------------------------
#psi4
#
memory 32 gb

molecule  {
1 1
  N       -1.4684160    -0.7256290     0.0168660
  C        0.7789870     0.0252000    -0.3750600
  C       -0.0143940    -1.1774380     0.1210740
  C       -0.0289190     1.1951300     0.1928770
  C       -1.4778980     0.8076670    -0.0707360
  C        2.2387250    -0.0120120     0.0592990
  H        0.7264100     0.0548870    -1.4716460
  H        0.0908805    -1.9290661    -0.3464777
  H        0.1860930    -1.3741010     1.1771840
  H        0.2151160     2.1494100    -0.2804030
  H        0.1583560     1.2945460     1.2678570
  H       -2.0155250    -1.0560110     0.8205780
  H       -1.9143950    -1.1326260    -0.8134590
  H       -2.2036780     1.1930490     0.6461700
  H       -1.7986400     1.0658470    -1.0809590
  H        2.7502970    -0.8896260    -0.3442510
  H        2.7625990     0.8753680    -0.3028200
  H        2.3187760    -0.0349210     1.1503390
units angstrom
no_reorient  #important for SAPT in psi4, default
symmetry c1  #important for SAPT in psi4, default
}

set PROPERTIES_ORIGIN ["COM"]
properties('MP2/aug-cc-pvtz', properties = ['dipole'])
--------------------------------------------------------------------------

    Molecular point group: c1
  Charge       = 1
  Multiplicity = 1
  Basis Set: AUG-CC-PVTZ
    Blend: AUG-CC-PVTZ
  Basis Set: (AUG-CC-PVTZ AUX)
    Blend: AUG-CC-PVTZ-JKFIT

    Orbital Energies [Eh]
    ---------------------

    Doubly Occupied:

       1A    -15.865260     2A    -11.463621     3A    -11.438223
       4A    -11.402532     5A    -11.396136     6A    -11.359649
       7A     -1.493882     8A     -1.266392     9A     -1.205728
      10A     -1.109042    11A     -1.028837    12A     -0.975245
      13A     -0.947673    14A     -0.900769    15A     -0.828599
      16A     -0.799347    17A     -0.766916    18A     -0.739696
      19A     -0.720023    20A     -0.703700    21A     -0.679720
      22A     -0.655094    23A     -0.638412    24A     -0.630678

  @DF-RHF Final Energy:  -250.62293307248376

   => Energetics <=

    Nuclear Repulsion Energy =            267.0021442729973842
    One-Electron Energy =                -857.2198042166910454
    Two-Electron Energy =                 339.5947268712099003
    Total Energy =                       -250.6229330724837610
  Basis Set: (AUG-CC-PVTZ AUX)
    Blend: AUG-CC-PVTZ-RI
    Molecular point group: c1

    Geometry (in Angstrom), charge = 1, multiplicity = 1:

       Center              X                  Y                   Z               Mass
    ------------   -----------------  -----------------  -----------------  -----------------
         N           -1.453107106509    -0.727022538344     0.019293040125    14.003074004430
         C            0.794295893491     0.023806461656    -0.372632959875    12.000000000000
         C            0.000914893491    -1.178831538344     0.123501040125    12.000000000000
         C           -0.013610106509     1.193736461656     0.195304040125    12.000000000000
         C           -1.462589106509     0.806273461656    -0.068308959875    12.000000000000
         C            2.254033893491    -0.013405538344     0.061726040125    12.000000000000
         H            0.741718893491     0.053493461656    -1.469218959875     1.007825032230
         H            0.106189393491    -1.930459638344    -0.344050659875     1.007825032230
         H            0.201401893491    -1.375494538344     1.179611040125     1.007825032230
         H            0.230424893491     2.148016461656    -0.277975959875     1.007825032230
         H            0.173664893491     1.293152461656     1.270284040125     1.007825032230
         H           -2.000216106509    -1.057404538344     0.823005040125     1.007825032230
         H           -1.899086106509    -1.134019538344    -0.811031959875     1.007825032230
         H           -2.188369106509     1.191655461656     0.648597040125     1.007825032230
         H           -1.783331106509     1.064453461656    -1.078531959875     1.007825032230
         H            2.765605893491    -0.891019538344    -0.341823959875     1.007825032230
         H            2.777907893491     0.873974461656    -0.300392959875     1.007825032230
         H            2.334084893491    -0.036314538344     1.152766040125     1.007825032230

  Basis Set: AUG-CC-PVTZ
    Blend: AUG-CC-PVTZ
  Basis Set: (AUG-CC-PVTZ AUX)
    Blend: AUG-CC-PVTZ-JKFIT
	 Reference Energy          =    -250.6229330724837610 [Eh]
	 Singles Energy            =      -0.0000000000000000 [Eh]
	 Same-Spin Energy          =      -0.2609349869587824 [Eh]
	 Opposite-Spin Energy      =      -0.9365230780478970 [Eh]
	 Correlation Energy        =      -1.1974580650066793 [Eh]
	 Total Energy              =    -251.8203911374904465 [Eh]

	 ================> DF-SCS-MP2 Energies <==================
	-----------------------------------------------------------
	 SCS Same-Spin Scale       =       0.3333333333333333 [-]
	 SCS Opposite-Spin Scale   =       1.2000000000000000 [-]
	 SCS Same-Spin Energy      =      -0.0869783289862608 [Eh]
	 SCS Opposite-Spin Energy  =      -1.1238276936574765 [Eh]
	 SCS Correlation Energy    =      -1.2108060226437372 [Eh]
	 SCS Total Energy          =    -251.8337390951274983 [Eh]
	-----------------------------------------------------------

  Dipole Moment: [D]
     X:    -4.2330      Y:    -1.8676      Z:     0.0040     Total:     4.6267

*** Psi4 exiting successfully. Buy a developer a beer!
