                               Psi4 1.4a3.dev225

  ==> Input File <==

--------------------------------------------------------------------------
#psi4
#
memory 32 gb

molecule  {
1 1
  N       -1.4684160    -0.7256290     0.0168660
  C        0.7789870     0.0252000    -0.3750600
  C       -0.0143940    -1.1774380     0.1210740
  C       -0.0289190     1.1951300     0.1928770
  C       -1.4778980     0.8076670    -0.0707360
  C        2.2387250    -0.0120120     0.0592990
  H        0.7264100     0.0548870    -1.4716460
  H        0.1145000    -2.0977020    -0.4513780
  H        0.1860930    -1.3741010     1.1771840
  H        0.2151160     2.1494100    -0.2804030
  H        0.1583560     1.2945460     1.2678570
  H       -2.0155250    -1.0560110     0.8205780
  H       -1.9143950    -1.1326260    -0.8134590
  H       -2.2036780     1.1930490     0.6461700
  H       -1.7986400     1.0658470    -1.0809590
  H        2.6991991    -0.9329063    -0.3076916
  H        2.7625990     0.8753680    -0.3028200
  H        2.3187760    -0.0349210     1.1503390
units angstrom
no_reorient  #important for SAPT in psi4, default
symmetry c1  #important for SAPT in psi4, default
}

set PROPERTIES_ORIGIN ["COM"]
properties('MP2/aug-cc-pvtz', properties = ['dipole'])
--------------------------------------------------------------------------

    Molecular point group: c1
  Charge       = 1
  Multiplicity = 1
  Basis Set: AUG-CC-PVTZ
    Blend: AUG-CC-PVTZ
  Basis Set: (AUG-CC-PVTZ AUX)
    Blend: AUG-CC-PVTZ-JKFIT

    Orbital Energies [Eh]
    ---------------------

    Doubly Occupied:

       1A    -15.865672     2A    -11.463691     3A    -11.460199
       4A    -11.402617     5A    -11.396389     6A    -11.360009
       7A     -1.492733     8A     -1.265140     9A     -1.194145
      10A     -1.099075    11A     -1.023912    12A     -0.974859
      13A     -0.934925    14A     -0.892243    15A     -0.827073
      16A     -0.791561    17A     -0.753669    18A     -0.741979
      19A     -0.711806    20A     -0.704785    21A     -0.679165
      22A     -0.653107    23A     -0.639447    24A     -0.628980

  @DF-RHF Final Energy:  -250.65633477271041

   => Energetics <=

    Nuclear Repulsion Energy =            265.9551900382379017
    One-Electron Energy =                -855.3086865446896354
    Two-Electron Energy =                 338.6971617337413250
    Total Energy =                       -250.6563347727104087
  Basis Set: (AUG-CC-PVTZ AUX)
    Blend: AUG-CC-PVTZ-RI
    Molecular point group: c1

    Geometry (in Angstrom), charge = 1, multiplicity = 1:

       Center              X                  Y                   Z               Mass
    ------------   -----------------  -----------------  -----------------  -----------------
         N           -1.452785452705    -0.724541911672     0.020093017943    14.003074004430
         C            0.794617547295     0.026287088328    -0.371832982057    12.000000000000
         C            0.001236547295    -1.176350911672     0.124301017943    12.000000000000
         C           -0.013288452705     1.196217088328     0.196104017943    12.000000000000
         C           -1.462267452705     0.808754088328    -0.067508982057    12.000000000000
         C            2.254355547295    -0.010924911672     0.062526017943    12.000000000000
         H            0.742040547295     0.055974088328    -1.468418982057     1.007825032230
         H            0.130130547295    -2.096614911672    -0.448150982057     1.007825032230
         H            0.201723547295    -1.373013911672     1.180411017943     1.007825032230
         H            0.230746547295     2.150497088328    -0.277175982057     1.007825032230
         H            0.173986547295     1.295633088328     1.271084017943     1.007825032230
         H           -1.999894452705    -1.054923911672     0.823805017943     1.007825032230
         H           -1.898764452705    -1.131538911672    -0.810231982057     1.007825032230
         H           -2.188047452705     1.194136088328     0.649397017943     1.007825032230
         H           -1.783009452705     1.066934088328    -1.077731982057     1.007825032230
         H            2.714829647295    -0.931819211672    -0.304464582057     1.007825032230
         H            2.778229547295     0.876455088328    -0.299592982057     1.007825032230
         H            2.334406547295    -0.033833911672     1.153566017943     1.007825032230

  Basis Set: AUG-CC-PVTZ
    Blend: AUG-CC-PVTZ
  Basis Set: (AUG-CC-PVTZ AUX)
    Blend: AUG-CC-PVTZ-JKFIT
	 Reference Energy          =    -250.6563347727104087 [Eh]
	 Singles Energy            =      -0.0000000000000000 [Eh]
	 Same-Spin Energy          =      -0.2611247782739173 [Eh]
	 Opposite-Spin Energy      =      -0.9374976620582613 [Eh]
	 Correlation Energy        =      -1.1986224403321786 [Eh]
	 Total Energy              =    -251.8549572130425815 [Eh]

	 ================> DF-SCS-MP2 Energies <==================
	-----------------------------------------------------------
	 SCS Same-Spin Scale       =       0.3333333333333333 [-]
	 SCS Opposite-Spin Scale   =       1.2000000000000000 [-]
	 SCS Same-Spin Energy      =      -0.0870415927579724 [Eh]
	 SCS Opposite-Spin Energy  =      -1.1249971944699135 [Eh]
	 SCS Correlation Energy    =      -1.2120387872278859 [Eh]
	 SCS Total Energy          =    -251.8683735599383056 [Eh]
	-----------------------------------------------------------

  Dipole Moment: [D]
     X:    -4.2335      Y:    -1.8740      Z:     0.0018     Total:     4.6297

*** Psi4 exiting successfully. Buy a developer a beer!
