                               Psi4 1.4a3.dev225

  ==> Input File <==

--------------------------------------------------------------------------
#psi4
#
memory 32 gb

molecule  {
1 1
  N       -1.4684160    -0.7256290     0.0168660
  C        0.7789870     0.0252000    -0.3750600
  C       -0.0143940    -1.1774380     0.1210740
  C       -0.0289190     1.1951300     0.1928770
  C       -1.4778980     0.8076670    -0.0707360
  C        2.2460965    -0.0114726     0.0337582
  H        0.7264100     0.0548870    -1.4716460
  H        0.1145000    -2.0977020    -0.4513780
  H        0.1860930    -1.3741010     1.1771840
  H        0.2151160     2.1494100    -0.2804030
  H        0.1583560     1.2945460     1.2678570
  H       -2.0155250    -1.0560110     0.8205780
  H       -1.9143950    -1.1326260    -0.8134590
  H       -2.2036780     1.1930490     0.6461700
  H       -1.7986400     1.0658470    -1.0809590
  H        2.7502970    -0.8896260    -0.3442510
  H        2.7625990     0.8753680    -0.3028200
  H        2.3187760    -0.0349210     1.1503390
units angstrom
no_reorient  #important for SAPT in psi4, default
symmetry c1  #important for SAPT in psi4, default
}

set PROPERTIES_ORIGIN ["COM"]
properties('MP2/aug-cc-pvtz', properties = ['dipole'])
--------------------------------------------------------------------------

    Molecular point group: c1
  Charge       = 1
  Multiplicity = 1
  Basis Set: AUG-CC-PVTZ
    Blend: AUG-CC-PVTZ
  Basis Set: (AUG-CC-PVTZ AUX)
    Blend: AUG-CC-PVTZ-JKFIT

    Orbital Energies [Eh]
    ---------------------

    Doubly Occupied:

       1A    -15.865820     2A    -11.463993     3A    -11.460274
       4A    -11.403078     5A    -11.396925     6A    -11.359842
       7A     -1.492842     8A     -1.264878     9A     -1.194093
      10A     -1.099486    11A     -1.023958    12A     -0.974739
      13A     -0.935103    14A     -0.892411    15A     -0.827743
      16A     -0.791664    17A     -0.753835    18A     -0.741552
      19A     -0.710748    20A     -0.705025    21A     -0.677225
      22A     -0.657165    23A     -0.636969    24A     -0.629230

  @DF-RHF Final Energy:  -250.65618983622875

   => Energetics <=

    Nuclear Repulsion Energy =            265.8090522174775288
    One-Electron Energy =                -855.0132924937767029
    Two-Electron Energy =                 338.5480504400704262
    Total Energy =                       -250.6561898362287479
  Basis Set: (AUG-CC-PVTZ AUX)
    Blend: AUG-CC-PVTZ-RI
    Molecular point group: c1

    Geometry (in Angstrom), charge = 1, multiplicity = 1:

       Center              X                  Y                   Z               Mass
    ------------   -----------------  -----------------  -----------------  -----------------
         N           -1.454411012066    -0.725123718060     0.024080789650    14.003074004430
         C            0.792991987934     0.025705281940    -0.367845210350    12.000000000000
         C           -0.000389012066    -1.176932718060     0.128288789650    12.000000000000
         C           -0.014914012066     1.195635281940     0.200091789650    12.000000000000
         C           -1.463893012066     0.808172281940    -0.063521210350    12.000000000000
         C            2.260101487934    -0.010967318060     0.040972989650    12.000000000000
         H            0.740414987934     0.055392281940    -1.464431210350     1.007825032230
         H            0.128504987934    -2.097196718060    -0.444163210350     1.007825032230
         H            0.200097987934    -1.373595718060     1.184398789650     1.007825032230
         H            0.229120987934     2.149915281940    -0.273188210350     1.007825032230
         H            0.172360987934     1.295051281940     1.275071789650     1.007825032230
         H           -2.001520012066    -1.055505718060     0.827792789650     1.007825032230
         H           -1.900390012066    -1.132120718060    -0.806244210350     1.007825032230
         H           -2.189673012066     1.193554281940     0.653384789650     1.007825032230
         H           -1.784635012066     1.066352281940    -1.073744210350     1.007825032230
         H            2.764301987934    -0.889120718060    -0.337036210350     1.007825032230
         H            2.776603987934     0.875873281940    -0.295605210350     1.007825032230
         H            2.332780987934    -0.034415718060     1.157553789650     1.007825032230

  Basis Set: AUG-CC-PVTZ
    Blend: AUG-CC-PVTZ
  Basis Set: (AUG-CC-PVTZ AUX)
    Blend: AUG-CC-PVTZ-JKFIT
	 Reference Energy          =    -250.6561898362287479 [Eh]
	 Singles Energy            =      -0.0000000000000000 [Eh]
	 Same-Spin Energy          =      -0.2610840640100679 [Eh]
	 Opposite-Spin Energy      =      -0.9373970800819533 [Eh]
	 Correlation Energy        =      -1.1984811440920211 [Eh]
	 Total Energy              =    -251.8546709803207762 [Eh]

	 ================> DF-SCS-MP2 Energies <==================
	-----------------------------------------------------------
	 SCS Same-Spin Scale       =       0.3333333333333333 [-]
	 SCS Opposite-Spin Scale   =       1.2000000000000000 [-]
	 SCS Same-Spin Energy      =      -0.0870280213366893 [Eh]
	 SCS Opposite-Spin Energy  =      -1.1248764960983439 [Eh]
	 SCS Correlation Energy    =      -1.2119045174350331 [Eh]
	 SCS Total Energy          =    -251.8680943536637926 [Eh]
	-----------------------------------------------------------

  Dipole Moment: [D]
     X:    -4.2288      Y:    -1.8685      Z:    -0.0079     Total:     4.6233

*** Psi4 exiting successfully. Buy a developer a beer!
