                               Psi4 1.4a3.dev225

  ==> Input File <==

--------------------------------------------------------------------------
#psi4
#
memory 32 gb

molecule  {
1 1
  N       -1.4684160    -0.7256290     0.0168660
  C        0.7347069     0.0102916    -0.4706072
  C       -0.0143940    -1.1774380     0.1210740
  C       -0.0289190     1.1951300     0.1928770
  C       -1.4778980     0.8076670    -0.0707360
  C        2.2387250    -0.0120120     0.0592990
  H        0.7264100     0.0548870    -1.4716460
  H        0.1145000    -2.0977020    -0.4513780
  H        0.1860930    -1.3741010     1.1771840
  H        0.2151160     2.1494100    -0.2804030
  H        0.1583560     1.2945460     1.2678570
  H       -2.0155250    -1.0560110     0.8205780
  H       -1.9143950    -1.1326260    -0.8134590
  H       -2.2036780     1.1930490     0.6461700
  H       -1.7986400     1.0658470    -1.0809590
  H        2.7502970    -0.8896260    -0.3442510
  H        2.7625990     0.8753680    -0.3028200
  H        2.3187760    -0.0349210     1.1503390
units angstrom
no_reorient  #important for SAPT in psi4, default
symmetry c1  #important for SAPT in psi4, default
}

set PROPERTIES_ORIGIN ["COM"]
properties('MP2/aug-cc-pvtz', properties = ['dipole'])
--------------------------------------------------------------------------

    Molecular point group: c1
  Charge       = 1
  Multiplicity = 1
  Basis Set: AUG-CC-PVTZ
    Blend: AUG-CC-PVTZ
  Basis Set: (AUG-CC-PVTZ AUX)
    Blend: AUG-CC-PVTZ-JKFIT

    Orbital Energies [Eh]
    ---------------------

    Doubly Occupied:

       1A    -15.863540     2A    -11.461765     3A    -11.460829
       4A    -11.399565     5A    -11.397657     6A    -11.362379
       7A     -1.491975     8A     -1.259214     9A     -1.192221
      10A     -1.089677    11A     -1.019409    12A     -0.985734
      13A     -0.938226    14A     -0.895154    15A     -0.827329
      16A     -0.793205    17A     -0.751364    18A     -0.735702
      19A     -0.712860    20A     -0.700783    21A     -0.678955
      22A     -0.663966    23A     -0.637419    24A     -0.618003

  @DF-RHF Final Energy:  -250.64396907828160

   => Energetics <=

    Nuclear Repulsion Energy =            265.4276566079836357
    One-Electron Energy =                -854.2693869830915219
    Two-Electron Energy =                 338.1977612968262861
    Total Energy =                       -250.6439690782816001
  Basis Set: (AUG-CC-PVTZ AUX)
    Blend: AUG-CC-PVTZ-RI
    Molecular point group: c1

    Geometry (in Angstrom), charge = 1, multiplicity = 1:

       Center              X                  Y                   Z               Mass
    ------------   -----------------  -----------------  -----------------  -----------------
         N           -1.447211929818    -0.722970638916     0.033838122076    14.003074004430
         C            0.755910970182     0.012949961084    -0.453635077924    12.000000000000
         C            0.006810070182    -1.174779638916     0.138046122076    12.000000000000
         C           -0.007714929818     1.197788361084     0.209849122076    12.000000000000
         C           -1.456693929818     0.810325361084    -0.053763877924    12.000000000000
         C            2.259929070182    -0.009353638916     0.076271122076    12.000000000000
         H            0.747614070182     0.057545361084    -1.454673877924     1.007825032230
         H            0.135704070182    -2.095043638916    -0.434405877924     1.007825032230
         H            0.207297070182    -1.371442638916     1.194156122076     1.007825032230
         H            0.236320070182     2.152068361084    -0.263430877924     1.007825032230
         H            0.179560070182     1.297204361084     1.284829122076     1.007825032230
         H           -1.994320929818    -1.053352638916     0.837550122076     1.007825032230
         H           -1.893190929818    -1.129967638916    -0.796486877924     1.007825032230
         H           -2.182473929818     1.195707361084     0.663142122076     1.007825032230
         H           -1.777435929818     1.068505361084    -1.063986877924     1.007825032230
         H            2.771501070182    -0.886967638916    -0.327278877924     1.007825032230
         H            2.783803070182     0.878026361084    -0.285847877924     1.007825032230
         H            2.339980070182    -0.032262638916     1.167311122076     1.007825032230

  Basis Set: AUG-CC-PVTZ
    Blend: AUG-CC-PVTZ
  Basis Set: (AUG-CC-PVTZ AUX)
    Blend: AUG-CC-PVTZ-JKFIT
	 Reference Energy          =    -250.6439690782816001 [Eh]
	 Singles Energy            =      -0.0000000000000000 [Eh]
	 Same-Spin Energy          =      -0.2609782465617531 [Eh]
	 Opposite-Spin Energy      =      -0.9377467590769220 [Eh]
	 Correlation Energy        =      -1.1987250056386749 [Eh]
	 Total Energy              =    -251.8426940839202643 [Eh]

	 ================> DF-SCS-MP2 Energies <==================
	-----------------------------------------------------------
	 SCS Same-Spin Scale       =       0.3333333333333333 [-]
	 SCS Opposite-Spin Scale   =       1.2000000000000000 [-]
	 SCS Same-Spin Energy      =      -0.0869927488539177 [Eh]
	 SCS Opposite-Spin Energy  =      -1.1252961108923063 [Eh]
	 SCS Correlation Energy    =      -1.2122888597462240 [Eh]
	 SCS Total Energy          =    -251.8562579380278237 [Eh]
	-----------------------------------------------------------

  Dipole Moment: [D]
     X:    -4.1643      Y:    -1.8631      Z:     0.0306     Total:     4.5621

*** Psi4 exiting successfully. Buy a developer a beer!
