                               Psi4 1.4a3.dev225

  ==> Input File <==

--------------------------------------------------------------------------
#psi4
#
memory 32 gb

molecule  {
1 1
  N       -1.4684160    -0.7256290     0.0168660
  C        0.7789870     0.0252000    -0.3750600
  C       -0.0143940    -1.1774380     0.1210740
  C       -0.0289190     1.1951300     0.1928770
  C       -1.4778980     0.8076670    -0.0707360
  C        2.2387250    -0.0120120     0.0592990
  H        0.7264100     0.0548870    -1.4716460
  H        0.1145000    -2.0977020    -0.4513780
  H        0.1860930    -1.3741010     1.1771840
  H        0.2151160     2.1494100    -0.2804030
  H        0.1583560     1.2945460     1.2678570
  H       -2.0155250    -1.0560110     0.8205780
  H       -1.9143950    -1.1326260    -0.8134590
  H       -2.1825459     1.1785813     0.6743305
  H       -1.7986400     1.0658470    -1.0809590
  H        2.7502970    -0.8896260    -0.3442510
  H        2.7625990     0.8753680    -0.3028200
  H        2.3187760    -0.0349210     1.1503390
units angstrom
no_reorient  #important for SAPT in psi4, default
symmetry c1  #important for SAPT in psi4, default
}

set PROPERTIES_ORIGIN ["COM"]
properties('MP2/aug-cc-pvtz', properties = ['dipole'])
--------------------------------------------------------------------------

    Molecular point group: c1
  Charge       = 1
  Multiplicity = 1
  Basis Set: AUG-CC-PVTZ
    Blend: AUG-CC-PVTZ
  Basis Set: (AUG-CC-PVTZ AUX)
    Blend: AUG-CC-PVTZ-JKFIT

    Orbital Energies [Eh]
    ---------------------

    Doubly Occupied:

       1A    -15.865313     2A    -11.464011     3A    -11.459899
       4A    -11.402975     5A    -11.396497     6A    -11.359540
       7A     -1.492718     8A     -1.265018     9A     -1.194193
      10A     -1.098898    11A     -1.023310    12A     -0.975199
      13A     -0.935191    14A     -0.891504    15A     -0.827792
      16A     -0.793790    17A     -0.752586    18A     -0.739265
      19A     -0.711956    20A     -0.703708    21A     -0.680539
      22A     -0.654417    23A     -0.638580    24A     -0.629110

  @DF-RHF Final Energy:  -250.65673858452212

   => Energetics <=

    Nuclear Repulsion Energy =            265.9182372311851736
    One-Electron Energy =                -855.2379322349746644
    Two-Electron Energy =                 338.6629564192674025
    Total Energy =                       -250.6567385845221452
  Basis Set: (AUG-CC-PVTZ AUX)
    Blend: AUG-CC-PVTZ-RI
    Molecular point group: c1

    Geometry (in Angstrom), charge = 1, multiplicity = 1:

       Center              X                  Y                   Z               Mass
    ------------   -----------------  -----------------  -----------------  -----------------
         N           -1.453630955147    -0.724879183216     0.020191332916    14.003074004430
         C            0.793772044853     0.025949816784    -0.371734667084    12.000000000000
         C            0.000391044853    -1.176688183216     0.124399332916    12.000000000000
         C           -0.014133955147     1.195879816784     0.196202332916    12.000000000000
         C           -1.463112955147     0.808416816784    -0.067410667084    12.000000000000
         C            2.253510044853    -0.011262183216     0.062624332916    12.000000000000
         H            0.741195044853     0.055636816784    -1.468320667084     1.007825032230
         H            0.129285044853    -2.096952183216    -0.448052667084     1.007825032230
         H            0.200878044853    -1.373351183216     1.180509332916     1.007825032230
         H            0.229901044853     2.150159816784    -0.277077667084     1.007825032230
         H            0.173141044853     1.295295816784     1.271182332916     1.007825032230
         H           -2.000739955147    -1.055261183216     0.823903332916     1.007825032230
         H           -1.899609955147    -1.131876183216    -0.810133667084     1.007825032230
         H           -2.167760855147     1.179331116784     0.677655832916     1.007825032230
         H           -1.783854955147     1.066596816784    -1.077633667084     1.007825032230
         H            2.765082044853    -0.888876183216    -0.340925667084     1.007825032230
         H            2.777384044853     0.876117816784    -0.299494667084     1.007825032230
         H            2.333561044853    -0.034171183216     1.153664332916     1.007825032230

  Basis Set: AUG-CC-PVTZ
    Blend: AUG-CC-PVTZ
  Basis Set: (AUG-CC-PVTZ AUX)
    Blend: AUG-CC-PVTZ-JKFIT
	 Reference Energy          =    -250.6567385845221168 [Eh]
	 Singles Energy            =      -0.0000000000000000 [Eh]
	 Same-Spin Energy          =      -0.2611110322982868 [Eh]
	 Opposite-Spin Energy      =      -0.9374695440300066 [Eh]
	 Correlation Energy        =      -1.1985805763282933 [Eh]
	 Total Energy              =    -251.8553191608503994 [Eh]

	 ================> DF-SCS-MP2 Energies <==================
	-----------------------------------------------------------
	 SCS Same-Spin Scale       =       0.3333333333333333 [-]
	 SCS Opposite-Spin Scale   =       1.2000000000000000 [-]
	 SCS Same-Spin Energy      =      -0.0870370107660956 [Eh]
	 SCS Opposite-Spin Energy  =      -1.1249634528360080 [Eh]
	 SCS Correlation Energy    =      -1.2120004636021036 [Eh]
	 SCS Total Energy          =    -251.8687390481242119 [Eh]
	-----------------------------------------------------------

  Dipole Moment: [D]
     X:    -4.2114      Y:    -1.8693      Z:    -0.0098     Total:     4.6076

*** Psi4 exiting successfully. Buy a developer a beer!
