                               Psi4 1.4a3.dev225

  ==> Input File <==

--------------------------------------------------------------------------
#psi4
#
memory 32 gb

molecule  {
1 1
  N       -1.4684160    -0.7256290     0.0168660
  C        0.7789870     0.0252000    -0.3750600
  C       -0.0143940    -1.1774380     0.1210740
  C       -0.0289190     1.1951300     0.1928770
  C       -1.4782067     0.8575846    -0.0735880
  C        2.2387250    -0.0120120     0.0592990
  H        0.7264100     0.0548870    -1.4716460
  H        0.1145000    -2.0977020    -0.4513780
  H        0.1860930    -1.3741010     1.1771840
  H        0.2151160     2.1494100    -0.2804030
  H        0.1583560     1.2945460     1.2678570
  H       -2.0155250    -1.0560110     0.8205780
  H       -1.9143950    -1.1326260    -0.8134590
  H       -2.2036780     1.1930490     0.6461700
  H       -1.7986400     1.0658470    -1.0809590
  H        2.7502970    -0.8896260    -0.3442510
  H        2.7625990     0.8753680    -0.3028200
  H        2.3187760    -0.0349210     1.1503390
units angstrom
no_reorient  #important for SAPT in psi4, default
symmetry c1  #important for SAPT in psi4, default
}

set PROPERTIES_ORIGIN ["COM"]
properties('MP2/aug-cc-pvtz', properties = ['dipole'])
--------------------------------------------------------------------------

    Molecular point group: c1
  Charge       = 1
  Multiplicity = 1
  Basis Set: AUG-CC-PVTZ
    Blend: AUG-CC-PVTZ
  Basis Set: (AUG-CC-PVTZ AUX)
    Blend: AUG-CC-PVTZ-JKFIT

    Orbital Energies [Eh]
    ---------------------

    Doubly Occupied:

       1A    -15.860292     2A    -11.467012     3A    -11.458206
       4A    -11.403528     5A    -11.397401     6A    -11.359740
       7A     -1.481493     8A     -1.264891     9A     -1.195738
      10A     -1.097385    11A     -1.025362    12A     -0.971573
      13A     -0.931142    14A     -0.886044    15A     -0.826810
      16A     -0.797852    17A     -0.750277    18A     -0.736055
      19A     -0.712137    20A     -0.704447    21A     -0.682945
      22A     -0.656137    23A     -0.639161    24A     -0.631333

  @DF-RHF Final Energy:  -250.65515973545803

   => Energetics <=

    Nuclear Repulsion Energy =            265.3305817889300897
    One-Electron Energy =                -854.0975582100318206
    Two-Electron Energy =                 338.1118166856437028
    Total Energy =                       -250.6551597354580281
  Basis Set: (AUG-CC-PVTZ AUX)
    Blend: AUG-CC-PVTZ-RI
    Molecular point group: c1

    Geometry (in Angstrom), charge = 1, multiplicity = 1:

       Center              X                  Y                   Z               Mass
    ------------   -----------------  -----------------  -----------------  -----------------
         N           -1.453340563300    -0.732005939000     0.020918476434    14.003074004430
         C            0.794062436700     0.018823061000    -0.371007523566    12.000000000000
         C            0.000681436700    -1.183814939000     0.125126476434    12.000000000000
         C           -0.013843563300     1.188753061000     0.196929476434    12.000000000000
         C           -1.463131263300     0.851207661000    -0.069535523566    12.000000000000
         C            2.253800436700    -0.018388939000     0.063351476434    12.000000000000
         H            0.741485436700     0.048510061000    -1.467593523566     1.007825032230
         H            0.129575436700    -2.104078939000    -0.447325523566     1.007825032230
         H            0.201168436700    -1.380477939000     1.181236476434     1.007825032230
         H            0.230191436700     2.143033061000    -0.276350523566     1.007825032230
         H            0.173431436700     1.288169061000     1.271909476434     1.007825032230
         H           -2.000449563300    -1.062387939000     0.824630476434     1.007825032230
         H           -1.899319563300    -1.139002939000    -0.809406523566     1.007825032230
         H           -2.188602563300     1.186672061000     0.650222476434     1.007825032230
         H           -1.783564563300     1.059470061000    -1.076906523566     1.007825032230
         H            2.765372436700    -0.896002939000    -0.340198523566     1.007825032230
         H            2.777674436700     0.868991061000    -0.298767523566     1.007825032230
         H            2.333851436700    -0.041297939000     1.154391476434     1.007825032230

  Basis Set: AUG-CC-PVTZ
    Blend: AUG-CC-PVTZ
  Basis Set: (AUG-CC-PVTZ AUX)
    Blend: AUG-CC-PVTZ-JKFIT
	 Reference Energy          =    -250.6551597354580281 [Eh]
	 Singles Energy            =      -0.0000000000000000 [Eh]
	 Same-Spin Energy          =      -0.2609703477117069 [Eh]
	 Opposite-Spin Energy      =      -0.9375138413605471 [Eh]
	 Correlation Energy        =      -1.1984841890722540 [Eh]
	 Total Energy              =    -251.8536439245302745 [Eh]

	 ================> DF-SCS-MP2 Energies <==================
	-----------------------------------------------------------
	 SCS Same-Spin Scale       =       0.3333333333333333 [-]
	 SCS Opposite-Spin Scale   =       1.2000000000000000 [-]
	 SCS Same-Spin Energy      =      -0.0869901159039023 [Eh]
	 SCS Opposite-Spin Energy  =      -1.1250166096326564 [Eh]
	 SCS Correlation Energy    =      -1.2120067255365587 [Eh]
	 SCS Total Energy          =    -251.8671664609945822 [Eh]
	-----------------------------------------------------------

  Dipole Moment: [D]
     X:    -4.2094      Y:    -1.7764      Z:    -0.0221     Total:     4.5689

*** Psi4 exiting successfully. Buy a developer a beer!
