                               Psi4 1.4a3.dev225

  ==> Input File <==

--------------------------------------------------------------------------
#psi4
#
memory 32 gb

molecule  {
1 1
  N       -1.4684160    -0.7256290     0.0168660
  C        0.7682712     0.0220198    -0.3991918
  C       -0.0143940    -1.1774380     0.1210740
  C       -0.0289190     1.1951300     0.1928770
  C       -1.4778980     0.8076670    -0.0707360
  C        2.2387250    -0.0120120     0.0592990
  H        0.7264100     0.0548870    -1.4716460
  H        0.1145000    -2.0977020    -0.4513780
  H        0.1860930    -1.3741010     1.1771840
  H        0.2151160     2.1494100    -0.2804030
  H        0.1583560     1.2945460     1.2678570
  H       -2.0155250    -1.0560110     0.8205780
  H       -1.9143950    -1.1326260    -0.8134590
  H       -2.2036780     1.1930490     0.6461700
  H       -1.7986400     1.0658470    -1.0809590
  H        2.7502970    -0.8896260    -0.3442510
  H        2.7625990     0.8753680    -0.3028200
  H        2.3187760    -0.0349210     1.1503390
units angstrom
no_reorient  #important for SAPT in psi4, default
symmetry c1  #important for SAPT in psi4, default
}

set PROPERTIES_ORIGIN ["COM"]
properties('MP2/aug-cc-pvtz', properties = ['dipole'])
--------------------------------------------------------------------------

    Molecular point group: c1
  Charge       = 1
  Multiplicity = 1
  Basis Set: AUG-CC-PVTZ
    Blend: AUG-CC-PVTZ
  Basis Set: (AUG-CC-PVTZ AUX)
    Blend: AUG-CC-PVTZ-JKFIT

    Orbital Energies [Eh]
    ---------------------

    Doubly Occupied:

       1A    -15.865070     2A    -11.463284     3A    -11.460077
       4A    -11.401962     5A    -11.396800     6A    -11.360189
       7A     -1.492490     8A     -1.263483     9A     -1.193480
      10A     -1.096469    11A     -1.022691    12A     -0.977141
      13A     -0.935849    14A     -0.892992    15A     -0.827698
      16A     -0.792016    17A     -0.753053    18A     -0.738087
      19A     -0.711816    20A     -0.703039    21A     -0.679494
      22A     -0.649919    23A     -0.644895    24A     -0.628405

  @DF-RHF Final Energy:  -250.65627639911744

   => Energetics <=

    Nuclear Repulsion Energy =            265.7708335397807105
    One-Electron Energy =                -854.9534234570712670
    Two-Electron Energy =                 338.5263135181730831
    Total Energy =                       -250.6562763991174734
  Basis Set: (AUG-CC-PVTZ AUX)
    Blend: AUG-CC-PVTZ-RI
    Molecular point group: c1

    Geometry (in Angstrom), charge = 1, multiplicity = 1:

       Center              X                  Y                   Z               Mass
    ------------   -----------------  -----------------  -----------------  -----------------
         N           -1.451890045429    -0.724605288693     0.023884406442    14.003074004430
         C            0.784797154571     0.023043511307    -0.392173393558    12.000000000000
         C            0.002131954571    -1.176414288693     0.128092406442    12.000000000000
         C           -0.012393045429     1.196153711307     0.199895406442    12.000000000000
         C           -1.461372045429     0.808690711307    -0.063717593558    12.000000000000
         C            2.255250954571    -0.010988288693     0.066317406442    12.000000000000
         H            0.742935954571     0.055910711307    -1.464627593558     1.007825032230
         H            0.131025954571    -2.096678288693    -0.444359593558     1.007825032230
         H            0.202618954571    -1.373077288693     1.184202406442     1.007825032230
         H            0.231641954571     2.150433711307    -0.273384593558     1.007825032230
         H            0.174881954571     1.295569711307     1.274875406442     1.007825032230
         H           -1.998999045429    -1.054987288693     0.827596406442     1.007825032230
         H           -1.897869045429    -1.131602288693    -0.806440593558     1.007825032230
         H           -2.187152045429     1.194072711307     0.653188406442     1.007825032230
         H           -1.782114045429     1.066870711307    -1.073940593558     1.007825032230
         H            2.766822954571    -0.888602288693    -0.337232593558     1.007825032230
         H            2.779124954571     0.876391711307    -0.295801593558     1.007825032230
         H            2.335301954571    -0.033897288693     1.157357406442     1.007825032230

  Basis Set: AUG-CC-PVTZ
    Blend: AUG-CC-PVTZ
  Basis Set: (AUG-CC-PVTZ AUX)
    Blend: AUG-CC-PVTZ-JKFIT
	 Reference Energy          =    -250.6562763991174450 [Eh]
	 Singles Energy            =      -0.0000000000000000 [Eh]
	 Same-Spin Energy          =      -0.2610095443880180 [Eh]
	 Opposite-Spin Energy      =      -0.9373412477239744 [Eh]
	 Correlation Energy        =      -1.1983507921119925 [Eh]
	 Total Energy              =    -251.8546271912294401 [Eh]

	 ================> DF-SCS-MP2 Energies <==================
	-----------------------------------------------------------
	 SCS Same-Spin Scale       =       0.3333333333333333 [-]
	 SCS Opposite-Spin Scale   =       1.2000000000000000 [-]
	 SCS Same-Spin Energy      =      -0.0870031814626727 [Eh]
	 SCS Opposite-Spin Energy  =      -1.1248094972687692 [Eh]
	 SCS Correlation Energy    =      -1.2118126787314418 [Eh]
	 SCS Total Energy          =    -251.8680890778488788 [Eh]
	-----------------------------------------------------------

  Dipole Moment: [D]
     X:    -4.2088      Y:    -1.8665      Z:    -0.0077     Total:     4.6042

*** Psi4 exiting successfully. Buy a developer a beer!
