                               Psi4 1.4a3.dev225

  ==> Input File <==

--------------------------------------------------------------------------
#psi4
#
memory 32 gb

molecule  {
1 1
  N       -1.4684160    -0.7256290     0.0168660
  C        0.7789870     0.0252000    -0.3750600
  C       -0.0096299    -1.1486815     0.1656621
  C       -0.0289190     1.1951300     0.1928770
  C       -1.4778980     0.8076670    -0.0707360
  C        2.2387250    -0.0120120     0.0592990
  H        0.7264100     0.0548870    -1.4716460
  H        0.1145000    -2.0977020    -0.4513780
  H        0.1860930    -1.3741010     1.1771840
  H        0.2151160     2.1494100    -0.2804030
  H        0.1583560     1.2945460     1.2678570
  H       -2.0155250    -1.0560110     0.8205780
  H       -1.9143950    -1.1326260    -0.8134590
  H       -2.2036780     1.1930490     0.6461700
  H       -1.7986400     1.0658470    -1.0809590
  H        2.7502970    -0.8896260    -0.3442510
  H        2.7625990     0.8753680    -0.3028200
  H        2.3187760    -0.0349210     1.1503390
units angstrom
no_reorient  #important for SAPT in psi4, default
symmetry c1  #important for SAPT in psi4, default
}

set PROPERTIES_ORIGIN ["COM"]
properties('MP2/aug-cc-pvtz', properties = ['dipole'])
--------------------------------------------------------------------------

    Molecular point group: c1
  Charge       = 1
  Multiplicity = 1
  Basis Set: AUG-CC-PVTZ
    Blend: AUG-CC-PVTZ
  Basis Set: (AUG-CC-PVTZ AUX)
    Blend: AUG-CC-PVTZ-JKFIT

    Orbital Energies [Eh]
    ---------------------

    Doubly Occupied:

       1A    -15.865589     2A    -11.463348     3A    -11.460616
       4A    -11.402707     5A    -11.396395     6A    -11.359787
       7A     -1.493155     8A     -1.267223     9A     -1.193418
      10A     -1.099540    11A     -1.023689    12A     -0.978128
      13A     -0.932020    14A     -0.891463    15A     -0.832255
      16A     -0.793794    17A     -0.748173    18A     -0.741187
      19A     -0.713384    20A     -0.701712    21A     -0.679560
      22A     -0.654371    23A     -0.642175    24A     -0.626680

  @DF-RHF Final Energy:  -250.65322374561342

   => Energetics <=

    Nuclear Repulsion Energy =            266.1774897479162973
    One-Electron Energy =                -855.7406873042100415
    Two-Electron Energy =                 338.9099738106802988
    Total Energy =                       -250.6532237456134453
  Basis Set: (AUG-CC-PVTZ AUX)
    Blend: AUG-CC-PVTZ-RI
    Molecular point group: c1

    Geometry (in Angstrom), charge = 1, multiplicity = 1:

       Center              X                  Y                   Z               Mass
    ------------   -----------------  -----------------  -----------------  -----------------
         N           -1.454047598599    -0.729056553127     0.014306383453    14.003074004430
         C            0.793355401401     0.021772446873    -0.377619616547    12.000000000000
         C            0.004738501401    -1.152109053127     0.163102483453    12.000000000000
         C           -0.014550598599     1.191702446873     0.190317383453    12.000000000000
         C           -1.463529598599     0.804239446873    -0.073295616547    12.000000000000
         C            2.253093401401    -0.015439553127     0.056739383453    12.000000000000
         H            0.740778401401     0.051459446873    -1.474205616547     1.007825032230
         H            0.128868401401    -2.101129553127    -0.453937616547     1.007825032230
         H            0.200461401401    -1.377528553127     1.174624383453     1.007825032230
         H            0.229484401401     2.145982446873    -0.282962616547     1.007825032230
         H            0.172724401401     1.291118446873     1.265297383453     1.007825032230
         H           -2.001156598599    -1.059438553127     0.818018383453     1.007825032230
         H           -1.900026598599    -1.136053553127    -0.816018616547     1.007825032230
         H           -2.189309598599     1.189621446873     0.643610383453     1.007825032230
         H           -1.784271598599     1.062419446873    -1.083518616547     1.007825032230
         H            2.764665401401    -0.893053553127    -0.346810616547     1.007825032230
         H            2.776967401401     0.871940446873    -0.305379616547     1.007825032230
         H            2.333144401401    -0.038348553127     1.147779383453     1.007825032230

  Basis Set: AUG-CC-PVTZ
    Blend: AUG-CC-PVTZ
  Basis Set: (AUG-CC-PVTZ AUX)
    Blend: AUG-CC-PVTZ-JKFIT
	 Reference Energy          =    -250.6532237456134169 [Eh]
	 Singles Energy            =      -0.0000000000000000 [Eh]
	 Same-Spin Energy          =      -0.2612973214801622 [Eh]
	 Opposite-Spin Energy      =      -0.9376939917363867 [Eh]
	 Correlation Energy        =      -1.1989913132165488 [Eh]
	 Total Energy              =    -251.8522150588299553 [Eh]

	 ================> DF-SCS-MP2 Energies <==================
	-----------------------------------------------------------
	 SCS Same-Spin Scale       =       0.3333333333333333 [-]
	 SCS Opposite-Spin Scale   =       1.2000000000000000 [-]
	 SCS Same-Spin Energy      =      -0.0870991071600540 [Eh]
	 SCS Opposite-Spin Energy  =      -1.1252327900836641 [Eh]
	 SCS Correlation Energy    =      -1.2123318972437180 [Eh]
	 SCS Total Energy          =    -251.8655556428571458 [Eh]
	-----------------------------------------------------------

  Dipole Moment: [D]
     X:    -4.2117      Y:    -1.8715      Z:    -0.0108     Total:     4.6088

*** Psi4 exiting successfully. Buy a developer a beer!
