                               Psi4 1.4a3.dev225

  ==> Input File <==

--------------------------------------------------------------------------
#psi4
#
memory 32 gb

molecule  {
1 1
  N       -1.4684160    -0.7256290     0.0168660
  C        0.7789870     0.0252000    -0.3750600
  C       -0.0143940    -1.1774380     0.1210740
  C       -0.0289190     1.1951300     0.1928770
  C       -1.4778980     0.8076670    -0.0707360
  C        2.2387250    -0.0120120     0.0592990
  H        0.7264100     0.0548870    -1.4716460
  H        0.1145000    -2.0977020    -0.4513780
  H        0.1860930    -1.3741010     1.1771840
  H        0.2151160     2.1494100    -0.2804030
  H        0.1583560     1.2945460     1.2678570
  H       -2.0155250    -1.0560110     0.8205780
  H       -1.9143950    -1.1326260    -0.8134590
  H       -2.2036780     1.1930490     0.6461700
  H       -1.7986400     1.0658470    -1.0809590
  H        2.7502970    -0.8896260    -0.3442510
  H        2.7625990     0.8753680    -0.3028200
  H        2.3151181    -0.0338742     1.1004840
units angstrom
no_reorient  #important for SAPT in psi4, default
symmetry c1  #important for SAPT in psi4, default
}

set PROPERTIES_ORIGIN ["COM"]
properties('MP2/aug-cc-pvtz', properties = ['dipole'])
--------------------------------------------------------------------------

    Molecular point group: c1
  Charge       = 1
  Multiplicity = 1
  Basis Set: AUG-CC-PVTZ
    Blend: AUG-CC-PVTZ
  Basis Set: (AUG-CC-PVTZ AUX)
    Blend: AUG-CC-PVTZ-JKFIT

    Orbital Energies [Eh]
    ---------------------

    Doubly Occupied:

       1A    -15.865596     2A    -11.463806     3A    -11.460043
       4A    -11.402604     5A    -11.396704     6A    -11.353547
       7A     -1.492685     8A     -1.265349     9A     -1.194219
      10A     -1.102151    11A     -1.024262    12A     -0.975778
      13A     -0.935917    14A     -0.893056    15A     -0.827804
      16A     -0.791772    17A     -0.753825    18A     -0.739987
      19A     -0.715723    20A     -0.703560    21A     -0.682619
      22A     -0.654382    23A     -0.640790    24A     -0.629600

  @DF-RHF Final Energy:  -250.65588228998473

   => Energetics <=

    Nuclear Repulsion Energy =            266.0911587518544366
    One-Electron Energy =                -855.5625242513015110
    Two-Electron Energy =                 338.8154832094623430
    Total Energy =                       -250.6558822899847314
  Basis Set: (AUG-CC-PVTZ AUX)
    Blend: AUG-CC-PVTZ-RI
    Molecular point group: c1

    Geometry (in Angstrom), charge = 1, multiplicity = 1:

       Center              X                  Y                   Z               Mass
    ------------   -----------------  -----------------  -----------------  -----------------
         N           -1.453340770936    -0.725060791241     0.021104558663    14.003074004430
         C            0.794062229064     0.025768208759    -0.370821441337    12.000000000000
         C            0.000681229064    -1.176869791241     0.125312558663    12.000000000000
         C           -0.013843770936     1.195698208759     0.197115558663    12.000000000000
         C           -1.462822770936     0.808235208759    -0.066497441337    12.000000000000
         C            2.253800229064    -0.011443791241     0.063537558663    12.000000000000
         H            0.741485229064     0.055455208759    -1.467407441337     1.007825032230
         H            0.129575229064    -2.097133791241    -0.447139441337     1.007825032230
         H            0.201168229064    -1.373532791241     1.181422558663     1.007825032230
         H            0.230191229064     2.149978208759    -0.276164441337     1.007825032230
         H            0.173431229064     1.295114208759     1.272095558663     1.007825032230
         H           -2.000449770936    -1.055442791241     0.824816558663     1.007825032230
         H           -1.899319770936    -1.132057791241    -0.809220441337     1.007825032230
         H           -2.188602770936     1.193617208759     0.650408558663     1.007825032230
         H           -1.783564770936     1.066415208759    -1.076720441337     1.007825032230
         H            2.765372229064    -0.889057791241    -0.340012441337     1.007825032230
         H            2.777674229064     0.875936208759    -0.298581441337     1.007825032230
         H            2.330193329064    -0.033305991241     1.104722558663     1.007825032230

  Basis Set: AUG-CC-PVTZ
    Blend: AUG-CC-PVTZ
  Basis Set: (AUG-CC-PVTZ AUX)
    Blend: AUG-CC-PVTZ-JKFIT
	 Reference Energy          =    -250.6558822899847314 [Eh]
	 Singles Energy            =      -0.0000000000000000 [Eh]
	 Same-Spin Energy          =      -0.2610981173576260 [Eh]
	 Opposite-Spin Energy      =      -0.9371311918608861 [Eh]
	 Correlation Energy        =      -1.1982293092185121 [Eh]
	 Total Energy              =    -251.8541115992032360 [Eh]

	 ================> DF-SCS-MP2 Energies <==================
	-----------------------------------------------------------
	 SCS Same-Spin Scale       =       0.3333333333333333 [-]
	 SCS Opposite-Spin Scale   =       1.2000000000000000 [-]
	 SCS Same-Spin Energy      =      -0.0870327057858753 [Eh]
	 SCS Opposite-Spin Energy  =      -1.1245574302330632 [Eh]
	 SCS Correlation Energy    =      -1.2115901360189385 [Eh]
	 SCS Total Energy          =    -251.8674724260036726 [Eh]
	-----------------------------------------------------------

  Dipole Moment: [D]
     X:    -4.2193      Y:    -1.8687      Z:     0.0036     Total:     4.6146

*** Psi4 exiting successfully. Buy a developer a beer!
