                               Psi4 1.4a3.dev225

  ==> Input File <==

--------------------------------------------------------------------------
#psi4
#
memory 32 gb

molecule  {
1 1
  N       -1.4684160    -0.7256290     0.0168660
  C        0.7789870     0.0252000    -0.3750600
  C       -0.0143940    -1.1774380     0.1210740
  C       -0.0289190     1.1951300     0.1928770
  C       -1.4778980     0.8076670    -0.0707360
  C        2.2387250    -0.0120120     0.0592990
  H        0.7264100     0.0548870    -1.4716460
  H        0.1145000    -2.0977020    -0.4513780
  H        0.1494011    -1.3381089     0.9839011
  H        0.2151160     2.1494100    -0.2804030
  H        0.1583560     1.2945460     1.2678570
  H       -2.0155250    -1.0560110     0.8205780
  H       -1.9143950    -1.1326260    -0.8134590
  H       -2.2036780     1.1930490     0.6461700
  H       -1.7986400     1.0658470    -1.0809590
  H        2.7502970    -0.8896260    -0.3442510
  H        2.7625990     0.8753680    -0.3028200
  H        2.3187760    -0.0349210     1.1503390
units angstrom
no_reorient  #important for SAPT in psi4, default
symmetry c1  #important for SAPT in psi4, default
}

set PROPERTIES_ORIGIN ["COM"]
properties('MP2/aug-cc-pvtz', properties = ['dipole'])
--------------------------------------------------------------------------

    Molecular point group: c1
  Charge       = 1
  Multiplicity = 1
  Basis Set: AUG-CC-PVTZ
    Blend: AUG-CC-PVTZ
  Basis Set: (AUG-CC-PVTZ AUX)
    Blend: AUG-CC-PVTZ-JKFIT

    Orbital Energies [Eh]
    ---------------------

    Doubly Occupied:

       1A    -15.865121     2A    -11.463796     3A    -11.437770
       4A    -11.402178     5A    -11.396820     6A    -11.359731
       7A     -1.494078     8A     -1.267752     9A     -1.204207
      10A     -1.109776    11A     -1.028814    12A     -0.984989
      13A     -0.935399    14A     -0.894334    15A     -0.836678
      16A     -0.805031    17A     -0.754191    18A     -0.742085
      19A     -0.724359    20A     -0.705181    21A     -0.680256
      22A     -0.654466    23A     -0.639183    24A     -0.629380

  @DF-RHF Final Energy:  -250.62320405268588

   => Energetics <=

    Nuclear Repulsion Energy =            266.9552092190843382
    One-Electron Energy =                -857.1256745373273134
    Two-Electron Energy =                 339.5472612655571538
    Total Energy =                       -250.6232040526858782
  Basis Set: (AUG-CC-PVTZ AUX)
    Blend: AUG-CC-PVTZ-RI
    Molecular point group: c1

    Geometry (in Angstrom), charge = 1, multiplicity = 1:

       Center              X                  Y                   Z               Mass
    ------------   -----------------  -----------------  -----------------  -----------------
         N           -1.452954084965    -0.725469850309     0.022783482098    14.003074004430
         C            0.794448915035     0.025359149691    -0.369142517902    12.000000000000
         C            0.001067915035    -1.177278850309     0.126991482098    12.000000000000
         C           -0.013457084965     1.195289149691     0.198794482098    12.000000000000
         C           -1.462436084965     0.807826149691    -0.064818517902    12.000000000000
         C            2.254186915035    -0.011852850309     0.065216482098    12.000000000000
         H            0.741871915035     0.055046149691    -1.465728517902     1.007825032230
         H            0.129961915035    -2.097542850309    -0.445460517902     1.007825032230
         H            0.164863015035    -1.337949750309     0.989818582098     1.007825032230
         H            0.230577915035     2.149569149691    -0.274485517902     1.007825032230
         H            0.173817915035     1.294705149691     1.273774482098     1.007825032230
         H           -2.000063084965    -1.055851850309     0.826495482098     1.007825032230
         H           -1.898933084965    -1.132466850309    -0.807541517902     1.007825032230
         H           -2.188216084965     1.193208149691     0.652087482098     1.007825032230
         H           -1.783178084965     1.066006149691    -1.075041517902     1.007825032230
         H            2.765758915035    -0.889466850309    -0.338333517902     1.007825032230
         H            2.778060915035     0.875527149691    -0.296902517902     1.007825032230
         H            2.334237915035    -0.034761850309     1.156256482098     1.007825032230

  Basis Set: AUG-CC-PVTZ
    Blend: AUG-CC-PVTZ
  Basis Set: (AUG-CC-PVTZ AUX)
    Blend: AUG-CC-PVTZ-JKFIT
	 Reference Energy          =    -250.6232040526858782 [Eh]
	 Singles Energy            =      -0.0000000000000000 [Eh]
	 Same-Spin Energy          =      -0.2608880086514039 [Eh]
	 Opposite-Spin Energy      =      -0.9364683420440632 [Eh]
	 Correlation Energy        =      -1.1973563506954670 [Eh]
	 Total Energy              =    -251.8205604033813358 [Eh]

	 ================> DF-SCS-MP2 Energies <==================
	-----------------------------------------------------------
	 SCS Same-Spin Scale       =       0.3333333333333333 [-]
	 SCS Opposite-Spin Scale   =       1.2000000000000000 [-]
	 SCS Same-Spin Energy      =      -0.0869626695504680 [Eh]
	 SCS Opposite-Spin Energy  =      -1.1237620104528758 [Eh]
	 SCS Correlation Energy    =      -1.2107246800033438 [Eh]
	 SCS Total Energy          =    -251.8339287326892304 [Eh]
	-----------------------------------------------------------

  Dipole Moment: [D]
     X:    -4.2345      Y:    -1.8705      Z:    -0.0116     Total:     4.6292

*** Psi4 exiting successfully. Buy a developer a beer!
