                               Psi4 1.4a3.dev225

  ==> Input File <==

--------------------------------------------------------------------------
#psi4
#
memory 32 gb

molecule  {
1 1
  N       -1.4684160    -0.7256290     0.0168660
  C        0.7789870     0.0252000    -0.3750600
  C       -0.0143940    -1.1774380     0.1210740
  C       -0.0289190     1.1951300     0.1928770
  C       -1.4529434     0.8095927    -0.0233298
  C        2.2387250    -0.0120120     0.0592990
  H        0.7264100     0.0548870    -1.4716460
  H        0.1145000    -2.0977020    -0.4513780
  H        0.1860930    -1.3741010     1.1771840
  H        0.2151160     2.1494100    -0.2804030
  H        0.1583560     1.2945460     1.2678570
  H       -2.0155250    -1.0560110     0.8205780
  H       -1.9143950    -1.1326260    -0.8134590
  H       -2.2036780     1.1930490     0.6461700
  H       -1.7986400     1.0658470    -1.0809590
  H        2.7502970    -0.8896260    -0.3442510
  H        2.7625990     0.8753680    -0.3028200
  H        2.3187760    -0.0349210     1.1503390
units angstrom
no_reorient  #important for SAPT in psi4, default
symmetry c1  #important for SAPT in psi4, default
}

set PROPERTIES_ORIGIN ["COM"]
properties('MP2/aug-cc-pvtz', properties = ['dipole'])
--------------------------------------------------------------------------

    Molecular point group: c1
  Charge       = 1
  Multiplicity = 1
  Basis Set: AUG-CC-PVTZ
    Blend: AUG-CC-PVTZ
  Basis Set: (AUG-CC-PVTZ AUX)
    Blend: AUG-CC-PVTZ-JKFIT

    Orbital Energies [Eh]
    ---------------------

    Doubly Occupied:

       1A    -15.865639     2A    -11.465645     3A    -11.460287
       4A    -11.403774     5A    -11.395181     6A    -11.359894
       7A     -1.493356     8A     -1.267790     9A     -1.196335
      10A     -1.099639    11A     -1.021962    12A     -0.974930
      13A     -0.936445    14A     -0.893840    15A     -0.827184
      16A     -0.787174    17A     -0.753917    18A     -0.745785
      19A     -0.711619    20A     -0.706019    21A     -0.671997
      22A     -0.655927    23A     -0.638485    24A     -0.630933

  @DF-RHF Final Energy:  -250.65330318354367

   => Energetics <=

    Nuclear Repulsion Energy =            266.2547813041575182
    One-Electron Energy =                -855.8886521456738592
    Two-Electron Energy =                 338.9805676579726423
    Total Energy =                       -250.6533031835436987
  Basis Set: (AUG-CC-PVTZ AUX)
    Blend: AUG-CC-PVTZ-RI
    Molecular point group: c1

    Geometry (in Angstrom), charge = 1, multiplicity = 1:

       Center              X                  Y                   Z               Mass
    ------------   -----------------  -----------------  -----------------  -----------------
         N           -1.456861704457    -0.725316937394     0.013913603100    14.003074004430
         C            0.790541295543     0.025512062606    -0.378012396900    12.000000000000
         C           -0.002839704457    -1.177125937394     0.118121603100    12.000000000000
         C           -0.017364704457     1.195442062606     0.189924603100    12.000000000000
         C           -1.441389104457     0.809904762606    -0.026282196900    12.000000000000
         C            2.250279295543    -0.011699937394     0.056346603100    12.000000000000
         H            0.737964295543     0.055199062606    -1.474598396900     1.007825032230
         H            0.126054295543    -2.097389937394    -0.454330396900     1.007825032230
         H            0.197647295543    -1.373788937394     1.174231603100     1.007825032230
         H            0.226670295543     2.149722062606    -0.283355396900     1.007825032230
         H            0.169910295543     1.294858062606     1.264904603100     1.007825032230
         H           -2.003970704457    -1.055698937394     0.817625603100     1.007825032230
         H           -1.902840704457    -1.132313937394    -0.816411396900     1.007825032230
         H           -2.192123704457     1.193361062606     0.643217603100     1.007825032230
         H           -1.787085704457     1.066159062606    -1.083911396900     1.007825032230
         H            2.761851295543    -0.889313937394    -0.347203396900     1.007825032230
         H            2.774153295543     0.875680062606    -0.305772396900     1.007825032230
         H            2.330330295543    -0.034608937394     1.147386603100     1.007825032230

  Basis Set: AUG-CC-PVTZ
    Blend: AUG-CC-PVTZ
  Basis Set: (AUG-CC-PVTZ AUX)
    Blend: AUG-CC-PVTZ-JKFIT
	 Reference Energy          =    -250.6533031835436702 [Eh]
	 Singles Energy            =      -0.0000000000000000 [Eh]
	 Same-Spin Energy          =      -0.2614145755135778 [Eh]
	 Opposite-Spin Energy      =      -0.9377824963532178 [Eh]
	 Correlation Energy        =      -1.1991970718667955 [Eh]
	 Total Energy              =    -251.8525002554104617 [Eh]

	 ================> DF-SCS-MP2 Energies <==================
	-----------------------------------------------------------
	 SCS Same-Spin Scale       =       0.3333333333333333 [-]
	 SCS Opposite-Spin Scale   =       1.2000000000000000 [-]
	 SCS Same-Spin Energy      =      -0.0871381918378593 [Eh]
	 SCS Opposite-Spin Energy  =      -1.1253389956238613 [Eh]
	 SCS Correlation Energy    =      -1.2124771874617206 [Eh]
	 SCS Total Energy          =    -251.8657803710053997 [Eh]
	-----------------------------------------------------------

  Dipole Moment: [D]
     X:    -4.2132      Y:    -1.8706      Z:    -0.0118     Total:     4.6098

*** Psi4 exiting successfully. Buy a developer a beer!
