                               Psi4 1.4a3.dev225

  ==> Input File <==

--------------------------------------------------------------------------
#psi4
#
memory 32 gb

molecule  {
1 1
  N       -1.4684160    -0.7256290     0.0168660
  C        0.7789870     0.0252000    -0.3750600
  C       -0.0143940    -1.1774380     0.1210740
  C       -0.0289190     1.1951300     0.1928770
  C       -1.4778980     0.8076670    -0.0707360
  C        2.2387250    -0.0120120     0.0592990
  H        0.7264100     0.0548870    -1.4716460
  H        0.1381195    -2.2663379    -0.5562783
  H        0.1860930    -1.3741010     1.1771840
  H        0.2151160     2.1494100    -0.2804030
  H        0.1583560     1.2945460     1.2678570
  H       -2.0155250    -1.0560110     0.8205780
  H       -1.9143950    -1.1326260    -0.8134590
  H       -2.2036780     1.1930490     0.6461700
  H       -1.7986400     1.0658470    -1.0809590
  H        2.7502970    -0.8896260    -0.3442510
  H        2.7625990     0.8753680    -0.3028200
  H        2.3187760    -0.0349210     1.1503390
units angstrom
no_reorient  #important for SAPT in psi4, default
symmetry c1  #important for SAPT in psi4, default
}

set PROPERTIES_ORIGIN ["COM"]
properties('MP2/aug-cc-pvtz', properties = ['dipole'])
--------------------------------------------------------------------------

    Molecular point group: c1
  Charge       = 1
  Multiplicity = 1
  Basis Set: AUG-CC-PVTZ
    Blend: AUG-CC-PVTZ
  Basis Set: (AUG-CC-PVTZ AUX)
    Blend: AUG-CC-PVTZ-JKFIT

    Orbital Energies [Eh]
    ---------------------

    Doubly Occupied:

       1A    -15.866680     2A    -11.479221     3A    -11.464526
       4A    -11.404260     5A    -11.397866     6A    -11.359671
       7A     -1.492778     8A     -1.265294     9A     -1.189266
      10A     -1.094104    11A     -1.021677    12A     -0.975449
      13A     -0.929095    14A     -0.885048    15A     -0.827898
      16A     -0.788373    17A     -0.743534    18A     -0.739496
      19A     -0.705128    20A     -0.693174    21A     -0.678945
      22A     -0.653913    23A     -0.639226    24A     -0.626590

  @DF-RHF Final Energy:  -250.63558080219067

   => Energetics <=

    Nuclear Repulsion Energy =            264.9969114381938198
    One-Electron Energy =                -853.4225584494845407
    Two-Electron Energy =                 337.7900662091000754
    Total Energy =                       -250.6355808021906455
  Basis Set: (AUG-CC-PVTZ AUX)
    Blend: AUG-CC-PVTZ-RI
    Molecular point group: c1

    Geometry (in Angstrom), charge = 1, multiplicity = 1:

       Center              X                  Y                   Z               Mass
    ------------   -----------------  -----------------  -----------------  -----------------
         N           -1.453660071896    -0.723074537092     0.021748902226    14.003074004430
         C            0.793742928104     0.027754462908    -0.370177097774    12.000000000000
         C            0.000361928104    -1.174883537092     0.125956902226    12.000000000000
         C           -0.014163071896     1.197684462908     0.197759902226    12.000000000000
         C           -1.463142071896     0.810221462908    -0.065853097774    12.000000000000
         C            2.253480928104    -0.009457537092     0.064181902226    12.000000000000
         H            0.741165928104     0.057441462908    -1.466763097774     1.007825032230
         H            0.152875428104    -2.263783437092    -0.551395397774     1.007825032230
         H            0.200848928104    -1.371546537092     1.182066902226     1.007825032230
         H            0.229871928104     2.151964462908    -0.275520097774     1.007825032230
         H            0.173111928104     1.297100462908     1.272739902226     1.007825032230
         H           -2.000769071896    -1.053456537092     0.825460902226     1.007825032230
         H           -1.899639071896    -1.130071537092    -0.808576097774     1.007825032230
         H           -2.188922071896     1.195603462908     0.651052902226     1.007825032230
         H           -1.783884071896     1.068401462908    -1.076076097774     1.007825032230
         H            2.765052928104    -0.887071537092    -0.339368097774     1.007825032230
         H            2.777354928104     0.877922462908    -0.297937097774     1.007825032230
         H            2.333531928104    -0.032366537092     1.155221902226     1.007825032230

  Basis Set: AUG-CC-PVTZ
    Blend: AUG-CC-PVTZ
  Basis Set: (AUG-CC-PVTZ AUX)
    Blend: AUG-CC-PVTZ-JKFIT
	 Reference Energy          =    -250.6355808021906739 [Eh]
	 Singles Energy            =      -0.0000000000000000 [Eh]
	 Same-Spin Energy          =      -0.2614685149964443 [Eh]
	 Opposite-Spin Energy      =      -0.9393835551272827 [Eh]
	 Correlation Energy        =      -1.2008520701237271 [Eh]
	 Total Energy              =    -251.8364328723143899 [Eh]

	 ================> DF-SCS-MP2 Energies <==================
	-----------------------------------------------------------
	 SCS Same-Spin Scale       =       0.3333333333333333 [-]
	 SCS Opposite-Spin Scale   =       1.2000000000000000 [-]
	 SCS Same-Spin Energy      =      -0.0871561716654814 [Eh]
	 SCS Opposite-Spin Energy  =      -1.1272602661527391 [Eh]
	 SCS Correlation Energy    =      -1.2144164378182205 [Eh]
	 SCS Total Energy          =    -251.8499972400088893 [Eh]
	-----------------------------------------------------------

  Dipole Moment: [D]
     X:    -4.2157      Y:    -1.8378      Z:    -0.0283     Total:     4.5990

*** Psi4 exiting successfully. Buy a developer a beer!
