                               Psi4 1.4a3.dev225

  ==> Input File <==

--------------------------------------------------------------------------
#psi4
#
memory 32 gb

molecule  {
1 1
  N       -1.4684160    -0.7256290     0.0168660
  C        0.7789870     0.0252000    -0.3750600
  C       -0.0143940    -1.1774380     0.1210740
  C       -0.0289190     1.1951300     0.1928770
  C       -1.4778980     0.8076670    -0.0707360
  C        2.2387250    -0.0120120     0.0592990
  H        0.7264100     0.0548870    -1.4716460
  H        0.1145000    -2.0977020    -0.4513780
  H        0.1860930    -1.3741010     1.1771840
  H        0.2151160     2.1494100    -0.2804030
  H        0.1583560     1.2945460     1.2678570
  H       -2.0155250    -1.0560110     0.8205780
  H       -1.9143950    -1.1326260    -0.8134590
  H       -2.2036780     1.1930490     0.6461700
  H       -1.7986400     1.0658470    -1.0809590
  H        2.7250443    -0.9118143    -0.3262061
  H        2.7625990     0.8753680    -0.3028200
  H        2.3187760    -0.0349210     1.1503390
units angstrom
no_reorient  #important for SAPT in psi4, default
symmetry c1  #important for SAPT in psi4, default
}

set PROPERTIES_ORIGIN ["COM"]
properties('MP2/aug-cc-pvtz', properties = ['dipole'])
--------------------------------------------------------------------------

    Molecular point group: c1
  Charge       = 1
  Multiplicity = 1
  Basis Set: AUG-CC-PVTZ
    Blend: AUG-CC-PVTZ
  Basis Set: (AUG-CC-PVTZ AUX)
    Blend: AUG-CC-PVTZ-JKFIT

    Orbital Energies [Eh]
    ---------------------

    Doubly Occupied:

       1A    -15.865638     2A    -11.463758     3A    -11.460114
       4A    -11.402835     5A    -11.396553     6A    -11.359796
       7A     -1.492717     8A     -1.265080     9A     -1.194079
      10A     -1.098999    11A     -1.023871    12A     -0.974881
      13A     -0.935007    14A     -0.892312    15A     -0.827394
      16A     -0.791599    17A     -0.753688    18A     -0.740746
      19A     -0.711744    20A     -0.704327    21A     -0.679417
      22A     -0.653854    23A     -0.638992    24A     -0.629442

  @DF-RHF Final Energy:  -250.65675758526015

   => Energetics <=

    Nuclear Repulsion Energy =            265.9177237015961737
    One-Electron Energy =                -855.2352803693752321
    Two-Electron Energy =                 338.6607990825189063
    Total Energy =                       -250.6567575852601522
  Basis Set: (AUG-CC-PVTZ AUX)
    Blend: AUG-CC-PVTZ-RI
    Molecular point group: c1

    Geometry (in Angstrom), charge = 1, multiplicity = 1:

       Center              X                  Y                   Z               Mass
    ------------   -----------------  -----------------  -----------------  -----------------
         N           -1.453087988766    -0.724788808218     0.020309743057    14.003074004430
         C            0.794315011234     0.026040191782    -0.371616256943    12.000000000000
         C            0.000934011234    -1.176597808218     0.124517743057    12.000000000000
         C           -0.013590988766     1.195970191782     0.196320743057    12.000000000000
         C           -1.462569988766     0.808507191782    -0.067292256943    12.000000000000
         C            2.254053011234    -0.011171808218     0.062742743057    12.000000000000
         H            0.741738011234     0.055727191782    -1.468202256943     1.007825032230
         H            0.129828011234    -2.096861808218    -0.447934256943     1.007825032230
         H            0.201421011234    -1.373260808218     1.180627743057     1.007825032230
         H            0.230444011234     2.150250191782    -0.276959256943     1.007825032230
         H            0.173684011234     1.295386191782     1.271300743057     1.007825032230
         H           -2.000196988766    -1.055170808218     0.824021743057     1.007825032230
         H           -1.899066988766    -1.131785808218    -0.810015256943     1.007825032230
         H           -2.188349988766     1.193889191782     0.649613743057     1.007825032230
         H           -1.783311988766     1.066687191782    -1.077515256943     1.007825032230
         H            2.740372311234    -0.910974108218    -0.322762356943     1.007825032230
         H            2.777927011234     0.876208191782    -0.299376256943     1.007825032230
         H            2.334104011234    -0.034080808218     1.153782743057     1.007825032230

  Basis Set: AUG-CC-PVTZ
    Blend: AUG-CC-PVTZ
  Basis Set: (AUG-CC-PVTZ AUX)
    Blend: AUG-CC-PVTZ-JKFIT
	 Reference Energy          =    -250.6567575852601522 [Eh]
	 Singles Energy            =      -0.0000000000000000 [Eh]
	 Same-Spin Energy          =      -0.2611040803982431 [Eh]
	 Opposite-Spin Energy      =      -0.9374431035449169 [Eh]
	 Correlation Energy        =      -1.1985471839431601 [Eh]
	 Total Energy              =    -251.8553047692033147 [Eh]

	 ================> DF-SCS-MP2 Energies <==================
	-----------------------------------------------------------
	 SCS Same-Spin Scale       =       0.3333333333333333 [-]
	 SCS Opposite-Spin Scale   =       1.2000000000000000 [-]
	 SCS Same-Spin Energy      =      -0.0870346934660810 [Eh]
	 SCS Opposite-Spin Energy  =      -1.1249317242539003 [Eh]
	 SCS Correlation Energy    =      -1.2119664177199814 [Eh]
	 SCS Total Energy          =    -251.8687240029801444 [Eh]
	-----------------------------------------------------------

  Dipole Moment: [D]
     X:    -4.2271      Y:    -1.8711      Z:    -0.0070     Total:     4.6228

*** Psi4 exiting successfully. Buy a developer a beer!
