                               Psi4 1.4a3.dev225

  ==> Input File <==

--------------------------------------------------------------------------
#psi4
#
memory 32 gb

molecule  {
1 1
  N       -1.4684160    -0.7256290     0.0168660
  C        0.8380974     0.0365618    -0.2273558
  C       -0.0143940    -1.1774380     0.1210740
  C       -0.0289190     1.1951300     0.1928770
  C       -1.4778980     0.8076670    -0.0707360
  C        2.2387250    -0.0120120     0.0592990
  H        0.7264100     0.0548870    -1.4716460
  H        0.1145000    -2.0977020    -0.4513780
  H        0.1860930    -1.3741010     1.1771840
  H        0.2151160     2.1494100    -0.2804030
  H        0.1583560     1.2945460     1.2678570
  H       -2.0155250    -1.0560110     0.8205780
  H       -1.9143950    -1.1326260    -0.8134590
  H       -2.2036780     1.1930490     0.6461700
  H       -1.7986400     1.0658470    -1.0809590
  H        2.7502970    -0.8896260    -0.3442510
  H        2.7625990     0.8753680    -0.3028200
  H        2.3187760    -0.0349210     1.1503390
units angstrom
no_reorient  #important for SAPT in psi4, default
symmetry c1  #important for SAPT in psi4, default
}

set PROPERTIES_ORIGIN ["COM"]
properties('MP2/aug-cc-pvtz', properties = ['dipole'])
--------------------------------------------------------------------------

    Molecular point group: c1
  Charge       = 1
  Multiplicity = 1
  Basis Set: AUG-CC-PVTZ
    Blend: AUG-CC-PVTZ
  Basis Set: (AUG-CC-PVTZ AUX)
    Blend: AUG-CC-PVTZ-JKFIT

    Orbital Energies [Eh]
    ---------------------

    Doubly Occupied:

       1A    -15.869096     2A    -11.467295     3A    -11.461986
       4A    -11.413114     5A    -11.398447     6A    -11.357837
       7A     -1.494405     8A     -1.275735     9A     -1.198512
      10A     -1.115395    11A     -1.030887    12A     -0.966931
      13A     -0.931566    14A     -0.890721    15A     -0.827228
      16A     -0.789911    17A     -0.759602    18A     -0.751111
      19A     -0.716533    20A     -0.709936    21A     -0.684501
      22A     -0.680537    23A     -0.635976    24A     -0.583709

  @DF-RHF Final Energy:  -250.62974195079391

   => Energetics <=

    Nuclear Repulsion Energy =            266.4787861813642849
    One-Electron Energy =                -856.1951182633283679
    Two-Electron Energy =                 339.0865901311701691
    Total Energy =                       -250.6297419507939139
  Basis Set: (AUG-CC-PVTZ AUX)
    Blend: AUG-CC-PVTZ-RI
    Molecular point group: c1

    Geometry (in Angstrom), charge = 1, multiplicity = 1:

       Center              X                  Y                   Z               Mass
    ------------   -----------------  -----------------  -----------------  -----------------
         N           -1.461622261990    -0.726632119499    -0.000065703473    14.003074004430
         C            0.844891138010     0.035558680501    -0.244287503473    12.000000000000
         C           -0.007600261990    -1.178441119499     0.104142296527    12.000000000000
         C           -0.022125261990     1.194126880501     0.175945296527    12.000000000000
         C           -1.471104261990     0.806663880501    -0.087667703473    12.000000000000
         C            2.245518738010    -0.013015119499     0.042367296527    12.000000000000
         H            0.733203738010     0.053883880501    -1.488577703473     1.007825032230
         H            0.121293738010    -2.098705119499    -0.468309703473     1.007825032230
         H            0.192886738010    -1.375104119499     1.160252296527     1.007825032230
         H            0.221909738010     2.148406880501    -0.297334703473     1.007825032230
         H            0.165149738010     1.293542880501     1.250925296527     1.007825032230
         H           -2.008731261990    -1.057014119499     0.803646296527     1.007825032230
         H           -1.907601261990    -1.133629119499    -0.830390703473     1.007825032230
         H           -2.196884261990     1.192045880501     0.629238296527     1.007825032230
         H           -1.791846261990     1.064843880501    -1.097890703473     1.007825032230
         H            2.757090738010    -0.890629119499    -0.361182703473     1.007825032230
         H            2.769392738010     0.874364880501    -0.319751703473     1.007825032230
         H            2.325569738010    -0.035924119499     1.133407296527     1.007825032230

  Basis Set: AUG-CC-PVTZ
    Blend: AUG-CC-PVTZ
  Basis Set: (AUG-CC-PVTZ AUX)
    Blend: AUG-CC-PVTZ-JKFIT
	 Reference Energy          =    -250.6297419507939139 [Eh]
	 Singles Energy            =      -0.0000000000000000 [Eh]
	 Same-Spin Energy          =      -0.2623429821359430 [Eh]
	 Opposite-Spin Energy      =      -0.9395743880063920 [Eh]
	 Correlation Energy        =      -1.2019173701423349 [Eh]
	 Total Energy              =    -251.8316593209362395 [Eh]

	 ================> DF-SCS-MP2 Energies <==================
	-----------------------------------------------------------
	 SCS Same-Spin Scale       =       0.3333333333333333 [-]
	 SCS Opposite-Spin Scale   =       1.2000000000000000 [-]
	 SCS Same-Spin Energy      =      -0.0874476607119810 [Eh]
	 SCS Opposite-Spin Energy  =      -1.1274892656076705 [Eh]
	 SCS Correlation Energy    =      -1.2149369263196514 [Eh]
	 SCS Total Energy          =    -251.8446788771135516 [Eh]
	-----------------------------------------------------------

  Dipole Moment: [D]
     X:    -4.2571      Y:    -1.8676      Z:    -0.0092     Total:     4.6487

*** Psi4 exiting successfully. Buy a developer a beer!
