                               Psi4 1.4a3.dev225

  ==> Input File <==

--------------------------------------------------------------------------
#psi4
#
memory 32 gb

molecule  {
1 1
  N       -1.4684160    -0.7256290     0.0168660
  C        0.7789870     0.0252000    -0.3750600
  C       -0.0143940    -1.1774380     0.1210740
  C       -0.0289190     1.1951300     0.1928770
  C       -1.2876033     0.8585526    -0.0361156
  C        2.2387250    -0.0120120     0.0592990
  H        0.7264100     0.0548870    -1.4716460
  H        0.1145000    -2.0977020    -0.4513780
  H        0.1860930    -1.3741010     1.1771840
  H        0.2151160     2.1494100    -0.2804030
  H        0.1583560     1.2945460     1.2678570
  H       -2.0155250    -1.0560110     0.8205780
  H       -1.9143950    -1.1326260    -0.8134590
  H       -2.2036780     1.1930490     0.6461700
  H       -1.7986400     1.0658470    -1.0809590
  H        2.7502970    -0.8896260    -0.3442510
  H        2.7625990     0.8753680    -0.3028200
  H        2.3187760    -0.0349210     1.1503390
units angstrom
no_reorient  #important for SAPT in psi4, default
symmetry c1  #important for SAPT in psi4, default
}

set PROPERTIES_ORIGIN ["COM"]
properties('MP2/aug-cc-pvtz', properties = ['dipole'])
--------------------------------------------------------------------------

    Molecular point group: c1
  Charge       = 1
  Multiplicity = 1
  Basis Set: AUG-CC-PVTZ
    Blend: AUG-CC-PVTZ
  Basis Set: (AUG-CC-PVTZ AUX)
    Blend: AUG-CC-PVTZ-JKFIT

    Orbital Energies [Eh]
    ---------------------

    Doubly Occupied:

       1A    -15.857331     2A    -11.477135     3A    -11.458197
       4A    -11.408009     5A    -11.387357     6A    -11.361286
       7A     -1.483969     8A     -1.294829     9A     -1.207762
      10A     -1.099809    11A     -1.009176    12A     -0.976973
      13A     -0.934307    14A     -0.886001    15A     -0.834362
      16A     -0.790770    17A     -0.778391    18A     -0.723114
      19A     -0.717594    20A     -0.711506    21A     -0.660218
      22A     -0.654384    23A     -0.643441    24A     -0.622617

  @DF-RHF Final Energy:  -250.60483599851051

   => Energetics <=

    Nuclear Repulsion Energy =            268.0760403074103237
    One-Electron Energy =                -859.4046755258010535
    Two-Electron Energy =                 340.7237992198801635
    Total Energy =                       -250.6048359985105094
  Basis Set: (AUG-CC-PVTZ AUX)
    Blend: AUG-CC-PVTZ-RI
    Molecular point group: c1

    Geometry (in Angstrom), charge = 1, multiplicity = 1:

       Center              X                  Y                   Z               Mass
    ------------   -----------------  -----------------  -----------------  -----------------
         N           -1.479906430640    -0.732140856633     0.015695658754    14.003074004430
         C            0.767496569360     0.018688143367    -0.376230341246    12.000000000000
         C           -0.025884430640    -1.183949856633     0.119903658754    12.000000000000
         C           -0.040409430640     1.188618143367     0.191706658754    12.000000000000
         C           -1.299093730640     0.852040743367    -0.037285941246    12.000000000000
         C            2.227234569360    -0.018523856633     0.058128658754    12.000000000000
         H            0.714919569360     0.048375143367    -1.472816341246     1.007825032230
         H            0.103009569360    -2.104213856633    -0.452548341246     1.007825032230
         H            0.174602569360    -1.380612856633     1.176013658754     1.007825032230
         H            0.203625569360     2.142898143367    -0.281573341246     1.007825032230
         H            0.146865569360     1.288034143367     1.266686658754     1.007825032230
         H           -2.027015430640    -1.062522856633     0.819407658754     1.007825032230
         H           -1.925885430640    -1.139137856633    -0.814629341246     1.007825032230
         H           -2.215168430640     1.186537143367     0.644999658754     1.007825032230
         H           -1.810130430640     1.059335143367    -1.082129341246     1.007825032230
         H            2.738806569360    -0.896137856633    -0.345421341246     1.007825032230
         H            2.751108569360     0.868856143367    -0.303990341246     1.007825032230
         H            2.307285569360    -0.041432856633     1.149168658754     1.007825032230

  Basis Set: AUG-CC-PVTZ
    Blend: AUG-CC-PVTZ
  Basis Set: (AUG-CC-PVTZ AUX)
    Blend: AUG-CC-PVTZ-JKFIT
	 Reference Energy          =    -250.6048359985105094 [Eh]
	 Singles Energy            =      -0.0000000000000000 [Eh]
	 Same-Spin Energy          =      -0.2643825040619588 [Eh]
	 Opposite-Spin Energy      =      -0.9416902398392715 [Eh]
	 Correlation Energy        =      -1.2060727439012302 [Eh]
	 Total Energy              =    -251.8109087424117263 [Eh]

	 ================> DF-SCS-MP2 Energies <==================
	-----------------------------------------------------------
	 SCS Same-Spin Scale       =       0.3333333333333333 [-]
	 SCS Opposite-Spin Scale   =       1.2000000000000000 [-]
	 SCS Same-Spin Energy      =      -0.0881275013539863 [Eh]
	 SCS Opposite-Spin Energy  =      -1.1300282878071257 [Eh]
	 SCS Correlation Energy    =      -1.2181557891611119 [Eh]
	 SCS Total Energy          =    -251.8229917876716115 [Eh]
	-----------------------------------------------------------

  Dipole Moment: [D]
     X:    -4.0497      Y:    -1.7152      Z:    -0.0286     Total:     4.3980

*** Psi4 exiting successfully. Buy a developer a beer!
