                               Psi4 1.4a3.dev225

  ==> Input File <==

--------------------------------------------------------------------------
#psi4
#
memory 32 gb

molecule  {
1 1
  N       -1.4684160    -0.7256290     0.0168660
  C        0.7789870     0.0252000    -0.3750600
  C       -0.0143940    -1.1774380     0.1210740
  C       -0.0289190     1.1951300     0.1928770
  C       -1.4280077     0.8096479     0.0241254
  C        2.2387250    -0.0120120     0.0592990
  H        0.7264100     0.0548870    -1.4716460
  H        0.1145000    -2.0977020    -0.4513780
  H        0.1860930    -1.3741010     1.1771840
  H        0.2151160     2.1494100    -0.2804030
  H        0.1583560     1.2945460     1.2678570
  H       -2.0155250    -1.0560110     0.8205780
  H       -1.9143950    -1.1326260    -0.8134590
  H       -2.2036780     1.1930490     0.6461700
  H       -1.7986400     1.0658470    -1.0809590
  H        2.7502970    -0.8896260    -0.3442510
  H        2.7625990     0.8753680    -0.3028200
  H        2.3187760    -0.0349210     1.1503390
units angstrom
no_reorient  #important for SAPT in psi4, default
symmetry c1  #important for SAPT in psi4, default
}

set PROPERTIES_ORIGIN ["COM"]
properties('MP2/aug-cc-pvtz', properties = ['dipole'])
--------------------------------------------------------------------------

    Molecular point group: c1
  Charge       = 1
  Multiplicity = 1
  Basis Set: AUG-CC-PVTZ
    Blend: AUG-CC-PVTZ
  Basis Set: (AUG-CC-PVTZ AUX)
    Blend: AUG-CC-PVTZ-JKFIT

    Orbital Energies [Eh]
    ---------------------

    Doubly Occupied:

       1A    -15.865974     2A    -11.468050     3A    -11.460656
       4A    -11.404623     5A    -11.393976     6A    -11.360264
       7A     -1.494242     8A     -1.271041     9A     -1.198893
      10A     -1.100394    11A     -1.020976    12A     -0.974821
      13A     -0.938029    14A     -0.895881    15A     -0.826877
      16A     -0.784241    17A     -0.754940    18A     -0.751537
      19A     -0.711910    20A     -0.708422    21A     -0.665503
      22A     -0.653102    23A     -0.637731    24A     -0.631661

  @DF-RHF Final Energy:  -250.64390297555823

   => Energetics <=

    Nuclear Repulsion Energy =            266.6275636202785790
    One-Electron Energy =                -856.5954452877462018
    Two-Electron Energy =                 339.3239786919093604
    Total Energy =                       -250.6439029755582624
  Basis Set: (AUG-CC-PVTZ AUX)
    Blend: AUG-CC-PVTZ-RI
    Molecular point group: c1

    Geometry (in Angstrom), charge = 1, multiplicity = 1:

       Center              X                  Y                   Z               Mass
    ------------   -----------------  -----------------  -----------------  -----------------
         N           -1.460337185473    -0.725324631044     0.007299405516    14.003074004430
         C            0.787065814527     0.025504368956    -0.384626594484    12.000000000000
         C           -0.006315185473    -1.177133631044     0.111507405516    12.000000000000
         C           -0.020840185473     1.195434368956     0.183310405516    12.000000000000
         C           -1.419928885473     0.809952268956     0.014558805516    12.000000000000
         C            2.246803814527    -0.011707631044     0.049732405516    12.000000000000
         H            0.734488814527     0.055191368956    -1.481212594484     1.007825032230
         H            0.122578814527    -2.097397631044    -0.460944594484     1.007825032230
         H            0.194171814527    -1.373796631044     1.167617405516     1.007825032230
         H            0.223194814527     2.149714368956    -0.289969594484     1.007825032230
         H            0.166434814527     1.294850368956     1.258290405516     1.007825032230
         H           -2.007446185473    -1.055706631044     0.811011405516     1.007825032230
         H           -1.906316185473    -1.132321631044    -0.823025594484     1.007825032230
         H           -2.195599185473     1.193353368956     0.636603405516     1.007825032230
         H           -1.790561185473     1.066151368956    -1.090525594484     1.007825032230
         H            2.758375814527    -0.889321631044    -0.353817594484     1.007825032230
         H            2.770677814527     0.875672368956    -0.312386594484     1.007825032230
         H            2.326854814527    -0.034616631044     1.140772405516     1.007825032230

  Basis Set: AUG-CC-PVTZ
    Blend: AUG-CC-PVTZ
  Basis Set: (AUG-CC-PVTZ AUX)
    Blend: AUG-CC-PVTZ-JKFIT
	 Reference Energy          =    -250.6439029755582339 [Eh]
	 Singles Energy            =      -0.0000000000000000 [Eh]
	 Same-Spin Energy          =      -0.2618864832011002 [Eh]
	 Opposite-Spin Energy      =      -0.9385160947083386 [Eh]
	 Correlation Energy        =      -1.2004025779094389 [Eh]
	 Total Energy              =    -251.8443055534676773 [Eh]

	 ================> DF-SCS-MP2 Energies <==================
	-----------------------------------------------------------
	 SCS Same-Spin Scale       =       0.3333333333333333 [-]
	 SCS Opposite-Spin Scale   =       1.2000000000000000 [-]
	 SCS Same-Spin Energy      =      -0.0872954944003667 [Eh]
	 SCS Opposite-Spin Energy  =      -1.1262193136500063 [Eh]
	 SCS Correlation Energy    =      -1.2135148080503730 [Eh]
	 SCS Total Energy          =    -251.8574177836086108 [Eh]
	-----------------------------------------------------------

  Dipole Moment: [D]
     X:    -4.1961      Y:    -1.8780      Z:    -0.0013     Total:     4.5972

*** Psi4 exiting successfully. Buy a developer a beer!
