                               Psi4 1.4a3.dev225

  ==> Input File <==

--------------------------------------------------------------------------
#psi4
#
memory 32 gb

molecule  {
1 1
  N       -1.4684160    -0.7256290     0.0168660
  C        0.7789870     0.0252000    -0.3750600
  C       -0.0143940    -1.1774380     0.1210740
  C       -0.0289190     1.1951300     0.1928770
  C       -1.5525709     0.7907023    -0.2120839
  C        2.2387250    -0.0120120     0.0592990
  H        0.7264100     0.0548870    -1.4716460
  H        0.1145000    -2.0977020    -0.4513780
  H        0.1860930    -1.3741010     1.1771840
  H        0.2151160     2.1494100    -0.2804030
  H        0.1583560     1.2945460     1.2678570
  H       -2.0155250    -1.0560110     0.8205780
  H       -1.9143950    -1.1326260    -0.8134590
  H       -2.2036780     1.1930490     0.6461700
  H       -1.7986400     1.0658470    -1.0809590
  H        2.7502970    -0.8896260    -0.3442510
  H        2.7625990     0.8753680    -0.3028200
  H        2.3187760    -0.0349210     1.1503390
units angstrom
no_reorient  #important for SAPT in psi4, default
symmetry c1  #important for SAPT in psi4, default
}

set PROPERTIES_ORIGIN ["COM"]
properties('MP2/aug-cc-pvtz', properties = ['dipole'])
--------------------------------------------------------------------------

    Molecular point group: c1
  Charge       = 1
  Multiplicity = 1
  Basis Set: AUG-CC-PVTZ
    Blend: AUG-CC-PVTZ
  Basis Set: (AUG-CC-PVTZ AUX)
    Blend: AUG-CC-PVTZ-JKFIT

    Orbital Energies [Eh]
    ---------------------

    Doubly Occupied:

       1A    -15.867367     2A    -11.461579     3A    -11.459990
       4A    -11.403041     5A    -11.401741     6A    -11.359185
       7A     -1.492064     8A     -1.259502     9A     -1.190183
      10A     -1.097447    11A     -1.036088    12A     -0.973300
      13A     -0.932847    14A     -0.894707    15A     -0.833025
      16A     -0.808958    17A     -0.748950    18A     -0.727990
      19A     -0.713201    20A     -0.702326    21A     -0.683431
      22A     -0.646208    23A     -0.638257    24A     -0.619990

  @DF-RHF Final Energy:  -250.62413329081537

   => Energetics <=

    Nuclear Repulsion Energy =            264.8056021886952180
    One-Electron Energy =                -852.9567198560812358
    Two-Electron Energy =                 337.5269843765705673
    Total Energy =                       -250.6241332908153936
  Basis Set: (AUG-CC-PVTZ AUX)
    Blend: AUG-CC-PVTZ-RI
    Molecular point group: c1

    Geometry (in Angstrom), charge = 1, multiplicity = 1:

       Center              X                  Y                   Z               Mass
    ------------   -----------------  -----------------  -----------------  -----------------
         N           -1.442975850646    -0.722684036510     0.040221719222    14.003074004430
         C            0.804427149354     0.028144963490    -0.351704280778    12.000000000000
         C            0.011046149354    -1.174493036510     0.144429719222    12.000000000000
         C           -0.003478850646     1.198074963490     0.216232719222    12.000000000000
         C           -1.527130750646     0.793647263490    -0.188728180778    12.000000000000
         C            2.264165149354    -0.009067036510     0.082654719222    12.000000000000
         H            0.751850149354     0.057831963490    -1.448290280778     1.007825032230
         H            0.139940149354    -2.094757036510    -0.428022280778     1.007825032230
         H            0.211533149354    -1.371156036510     1.200539719222     1.007825032230
         H            0.240556149354     2.152354963490    -0.257047280778     1.007825032230
         H            0.183796149354     1.297490963490     1.291212719222     1.007825032230
         H           -1.990084850646    -1.053066036510     0.843933719222     1.007825032230
         H           -1.888954850646    -1.129681036510    -0.790103280778     1.007825032230
         H           -2.178237850646     1.195993963490     0.669525719222     1.007825032230
         H           -1.773199850646     1.068791963490    -1.057603280778     1.007825032230
         H            2.775737149354    -0.886681036510    -0.320895280778     1.007825032230
         H            2.788039149354     0.878312963490    -0.279464280778     1.007825032230
         H            2.344216149354    -0.031976036510     1.173694719222     1.007825032230

  Basis Set: AUG-CC-PVTZ
    Blend: AUG-CC-PVTZ
  Basis Set: (AUG-CC-PVTZ AUX)
    Blend: AUG-CC-PVTZ-JKFIT
	 Reference Energy          =    -250.6241332908153652 [Eh]
	 Singles Energy            =      -0.0000000000000000 [Eh]
	 Same-Spin Energy          =      -0.2611169632096585 [Eh]
	 Opposite-Spin Energy      =      -0.9386155469752077 [Eh]
	 Correlation Energy        =      -1.1997325101848662 [Eh]
	 Total Energy              =    -251.8238658010002382 [Eh]

	 ================> DF-SCS-MP2 Energies <==================
	-----------------------------------------------------------
	 SCS Same-Spin Scale       =       0.3333333333333333 [-]
	 SCS Opposite-Spin Scale   =       1.2000000000000000 [-]
	 SCS Same-Spin Energy      =      -0.0870389877365528 [Eh]
	 SCS Opposite-Spin Energy  =      -1.1263386563702491 [Eh]
	 SCS Correlation Energy    =      -1.2133776441068020 [Eh]
	 SCS Total Energy          =    -251.8375109349221646 [Eh]
	-----------------------------------------------------------

  Dipole Moment: [D]
     X:    -4.1799      Y:    -1.8885      Z:     0.0129     Total:     4.5867

*** Psi4 exiting successfully. Buy a developer a beer!
