                               Psi4 1.4a3.dev225

  ==> Input File <==

--------------------------------------------------------------------------
#psi4
#
memory 32 gb

molecule  {
1 1
  N       -1.4684160    -0.7256290     0.0168660
  C        0.7789870     0.0252000    -0.3750600
  C       -0.0143940    -1.1774380     0.1210740
  C       -0.0289190     1.1951300     0.1928770
  C       -1.5730454     0.7822242    -0.0880462
  C        2.2387250    -0.0120120     0.0592990
  H        0.7264100     0.0548870    -1.4716460
  H        0.1145000    -2.0977020    -0.4513780
  H        0.1860930    -1.3741010     1.1771840
  H        0.2151160     2.1494100    -0.2804030
  H        0.1583560     1.2945460     1.2678570
  H       -2.0155250    -1.0560110     0.8205780
  H       -1.9143950    -1.1326260    -0.8134590
  H       -2.2036780     1.1930490     0.6461700
  H       -1.7986400     1.0658470    -1.0809590
  H        2.7502970    -0.8896260    -0.3442510
  H        2.7625990     0.8753680    -0.3028200
  H        2.3187760    -0.0349210     1.1503390
units angstrom
no_reorient  #important for SAPT in psi4, default
symmetry c1  #important for SAPT in psi4, default
}

set PROPERTIES_ORIGIN ["COM"]
properties('MP2/aug-cc-pvtz', properties = ['dipole'])
--------------------------------------------------------------------------

    Molecular point group: c1
  Charge       = 1
  Multiplicity = 1
  Basis Set: AUG-CC-PVTZ
    Blend: AUG-CC-PVTZ
  Basis Set: (AUG-CC-PVTZ AUX)
    Blend: AUG-CC-PVTZ-JKFIT

    Orbital Energies [Eh]
    ---------------------

    Doubly Occupied:

       1A    -15.868411     2A    -11.461144     3A    -11.459438
       4A    -11.402393     5A    -11.401000     6A    -11.359678
       7A     -1.496165     8A     -1.259412     9A     -1.188162
      10A     -1.098201    11A     -1.028667    12A     -0.975941
      13A     -0.935105    14A     -0.893934    15A     -0.827539
      16A     -0.798812    17A     -0.766944    18A     -0.731811
      19A     -0.712167    20A     -0.691707    21A     -0.686410
      22A     -0.647686    23A     -0.636521    24A     -0.625715

  @DF-RHF Final Energy:  -250.64905925030826

   => Energetics <=

    Nuclear Repulsion Energy =            264.8784611784282674
    One-Electron Energy =                -853.1491147363960863
    Two-Electron Energy =                 337.6215943076595067
    Total Energy =                       -250.6490592503082553
  Basis Set: (AUG-CC-PVTZ AUX)
    Blend: AUG-CC-PVTZ-RI
    Molecular point group: c1

    Geometry (in Angstrom), charge = 1, multiplicity = 1:

       Center              X                  Y                   Z               Mass
    ------------   -----------------  -----------------  -----------------  -----------------
         N           -1.440122161515    -0.721502378261     0.022933627387    14.003074004430
         C            0.807280838485     0.029326621739    -0.368992372613    12.000000000000
         C            0.013899838485    -1.173311378261     0.127141627387    12.000000000000
         C           -0.000625161515     1.199256621739     0.198944627387    12.000000000000
         C           -1.544751561515     0.786350821739    -0.081978572613    12.000000000000
         C            2.267018838485    -0.007885378261     0.065366627387    12.000000000000
         H            0.754703838485     0.059013621739    -1.465578372613     1.007825032230
         H            0.142793838485    -2.093575378261    -0.445310372613     1.007825032230
         H            0.214386838485    -1.369974378261     1.183251627387     1.007825032230
         H            0.243409838485     2.153536621739    -0.274335372613     1.007825032230
         H            0.186649838485     1.298672621739     1.273924627387     1.007825032230
         H           -1.987231161515    -1.051884378261     0.826645627387     1.007825032230
         H           -1.886101161515    -1.128499378261    -0.807391372613     1.007825032230
         H           -2.175384161515     1.197175621739     0.652237627387     1.007825032230
         H           -1.770346161515     1.069973621739    -1.074891372613     1.007825032230
         H            2.778590838485    -0.885499378261    -0.338183372613     1.007825032230
         H            2.790892838485     0.879494621739    -0.296752372613     1.007825032230
         H            2.347069838485    -0.030794378261     1.156406627387     1.007825032230

  Basis Set: AUG-CC-PVTZ
    Blend: AUG-CC-PVTZ
  Basis Set: (AUG-CC-PVTZ AUX)
    Blend: AUG-CC-PVTZ-JKFIT
	 Reference Energy          =    -250.6490592503082553 [Eh]
	 Singles Energy            =      -0.0000000000000000 [Eh]
	 Same-Spin Energy          =      -0.2608238408936365 [Eh]
	 Opposite-Spin Energy      =      -0.9375230158139543 [Eh]
	 Correlation Energy        =      -1.1983468567075908 [Eh]
	 Total Energy              =    -251.8474061070158427 [Eh]

	 ================> DF-SCS-MP2 Energies <==================
	-----------------------------------------------------------
	 SCS Same-Spin Scale       =       0.3333333333333333 [-]
	 SCS Opposite-Spin Scale   =       1.2000000000000000 [-]
	 SCS Same-Spin Energy      =      -0.0869412802978788 [Eh]
	 SCS Opposite-Spin Energy  =      -1.1250276189767450 [Eh]
	 SCS Correlation Energy    =      -1.2119688992746238 [Eh]
	 SCS Total Energy          =    -251.8610281495828929 [Eh]
	-----------------------------------------------------------

  Dipole Moment: [D]
     X:    -4.1876      Y:    -1.9199      Z:    -0.0028     Total:     4.6068

*** Psi4 exiting successfully. Buy a developer a beer!
