                               Psi4 1.4a3.dev225

  ==> Input File <==

--------------------------------------------------------------------------
#psi4
#
memory 32 gb

molecule  {
1 1
  N       -1.4684160    -0.7256290     0.0168660
  C        0.7789870     0.0252000    -0.3750600
  C       -0.0143940    -1.1774380     0.1210740
  C       -0.0408032     1.2099504     0.1429278
  C       -1.4778980     0.8076670    -0.0707360
  C        2.2387250    -0.0120120     0.0592990
  H        0.7264100     0.0548870    -1.4716460
  H        0.1145000    -2.0977020    -0.4513780
  H        0.1860930    -1.3741010     1.1771840
  H        0.2151160     2.1494100    -0.2804030
  H        0.1583560     1.2945460     1.2678570
  H       -2.0155250    -1.0560110     0.8205780
  H       -1.9143950    -1.1326260    -0.8134590
  H       -2.2036780     1.1930490     0.6461700
  H       -1.7986400     1.0658470    -1.0809590
  H        2.7502970    -0.8896260    -0.3442510
  H        2.7625990     0.8753680    -0.3028200
  H        2.3187760    -0.0349210     1.1503390
units angstrom
no_reorient  #important for SAPT in psi4, default
symmetry c1  #important for SAPT in psi4, default
}

set PROPERTIES_ORIGIN ["COM"]
properties('MP2/aug-cc-pvtz', properties = ['dipole'])
--------------------------------------------------------------------------

    Molecular point group: c1
  Charge       = 1
  Multiplicity = 1
  Basis Set: AUG-CC-PVTZ
    Blend: AUG-CC-PVTZ
  Basis Set: (AUG-CC-PVTZ AUX)
    Blend: AUG-CC-PVTZ-JKFIT

    Orbital Energies [Eh]
    ---------------------

    Doubly Occupied:

       1A    -15.866641     2A    -11.463764     3A    -11.460748
       4A    -11.403377     5A    -11.397591     6A    -11.359944
       7A     -1.493471     8A     -1.265481     9A     -1.196586
      10A     -1.099284    11A     -1.023871    12A     -0.974312
      13A     -0.936805    14A     -0.893356    15A     -0.825882
      16A     -0.790069    17A     -0.755799    18A     -0.743696
      19A     -0.713741    20A     -0.708656    21A     -0.673312
      22A     -0.655210    23A     -0.638722    24A     -0.624853

  @DF-RHF Final Energy:  -250.65375211318636

   => Energetics <=

    Nuclear Repulsion Energy =            265.8807417817852752
    One-Electron Energy =                -855.1386442036952076
    Two-Electron Energy =                 338.6041503087234901
    Total Energy =                       -250.6537521131863855
  Basis Set: (AUG-CC-PVTZ AUX)
    Blend: AUG-CC-PVTZ-RI
    Molecular point group: c1

    Geometry (in Angstrom), charge = 1, multiplicity = 1:

       Center              X                  Y                   Z               Mass
    ------------   -----------------  -----------------  -----------------  -----------------
         N           -1.451727196501    -0.727114171282     0.027482776794    14.003074004430
         C            0.795675803499     0.023714828718    -0.364443223206    12.000000000000
         C            0.002294803499    -1.178923171282     0.131690776794    12.000000000000
         C           -0.024114396501     1.208465228718     0.153544576794    12.000000000000
         C           -1.461209196501     0.806181828718    -0.060119223206    12.000000000000
         C            2.255413803499    -0.013497171282     0.069915776794    12.000000000000
         H            0.743098803499     0.053401828718    -1.461029223206     1.007825032230
         H            0.131188803499    -2.099187171282    -0.440761223206     1.007825032230
         H            0.202781803499    -1.375586171282     1.187800776794     1.007825032230
         H            0.231804803499     2.147924828718    -0.269786223206     1.007825032230
         H            0.175044803499     1.293060828718     1.278473776794     1.007825032230
         H           -1.998836196501    -1.057496171282     0.831194776794     1.007825032230
         H           -1.897706196501    -1.134111171282    -0.802842223206     1.007825032230
         H           -2.186989196501     1.191563828718     0.656786776794     1.007825032230
         H           -1.781951196501     1.064361828718    -1.070342223206     1.007825032230
         H            2.766985803499    -0.891111171282    -0.333634223206     1.007825032230
         H            2.779287803499     0.873882828718    -0.292203223206     1.007825032230
         H            2.335464803499    -0.036406171282     1.160955776794     1.007825032230

  Basis Set: AUG-CC-PVTZ
    Blend: AUG-CC-PVTZ
  Basis Set: (AUG-CC-PVTZ AUX)
    Blend: AUG-CC-PVTZ-JKFIT
	 Reference Energy          =    -250.6537521131863571 [Eh]
	 Singles Energy            =      -0.0000000000000000 [Eh]
	 Same-Spin Energy          =      -0.2611611969874219 [Eh]
	 Opposite-Spin Energy      =      -0.9375525851018329 [Eh]
	 Correlation Energy        =      -1.1987137820892548 [Eh]
	 Total Energy              =    -251.8524658952755999 [Eh]

	 ================> DF-SCS-MP2 Energies <==================
	-----------------------------------------------------------
	 SCS Same-Spin Scale       =       0.3333333333333333 [-]
	 SCS Opposite-Spin Scale   =       1.2000000000000000 [-]
	 SCS Same-Spin Energy      =      -0.0870537323291406 [Eh]
	 SCS Opposite-Spin Energy  =      -1.1250631021221995 [Eh]
	 SCS Correlation Energy    =      -1.2121168344513402 [Eh]
	 SCS Total Energy          =    -251.8658689476376935 [Eh]
	-----------------------------------------------------------

  Dipole Moment: [D]
     X:    -4.2193      Y:    -1.8919      Z:    -0.0082     Total:     4.6241

*** Psi4 exiting successfully. Buy a developer a beer!
