                               Psi4 1.4a3.dev225

  ==> Input File <==

--------------------------------------------------------------------------
#psi4
#
memory 32 gb

molecule  {
1 1
  N       -1.4684160    -0.7256290     0.0168660
  C        0.7789870     0.0252000    -0.3750600
  C       -0.0143940    -1.1774380     0.1210740
  C       -0.0289190     1.1951300     0.1928770
  C       -1.4778980     0.8076670    -0.0707360
  C        2.2387250    -0.0120120     0.0592990
  H        0.7264100     0.0548870    -1.4716460
  H        0.1085951    -2.0555430    -0.4251529
  H        0.1860930    -1.3741010     1.1771840
  H        0.2151160     2.1494100    -0.2804030
  H        0.1583560     1.2945460     1.2678570
  H       -2.0155250    -1.0560110     0.8205780
  H       -1.9143950    -1.1326260    -0.8134590
  H       -2.2036780     1.1930490     0.6461700
  H       -1.7986400     1.0658470    -1.0809590
  H        2.7502970    -0.8896260    -0.3442510
  H        2.7625990     0.8753680    -0.3028200
  H        2.3187760    -0.0349210     1.1503390
units angstrom
no_reorient  #important for SAPT in psi4, default
symmetry c1  #important for SAPT in psi4, default
}

set PROPERTIES_ORIGIN ["COM"]
properties('MP2/aug-cc-pvtz', properties = ['dipole'])
--------------------------------------------------------------------------

    Molecular point group: c1
  Charge       = 1
  Multiplicity = 1
  Basis Set: AUG-CC-PVTZ
    Blend: AUG-CC-PVTZ
  Basis Set: (AUG-CC-PVTZ AUX)
    Blend: AUG-CC-PVTZ-JKFIT

    Orbital Energies [Eh]
    ---------------------

    Doubly Occupied:

       1A    -15.865444     2A    -11.463723     3A    -11.454675
       4A    -11.402865     5A    -11.396508     6A    -11.359598
       7A     -1.492863     8A     -1.265165     9A     -1.196091
      10A     -1.100913    11A     -1.024792    12A     -0.974896
      13A     -0.937594    14A     -0.894565    15A     -0.827848
      16A     -0.793116    17A     -0.757299    18A     -0.739600
      19A     -0.714679    20A     -0.703675    21A     -0.679692
      22A     -0.654877    23A     -0.638501    24A     -0.629790

  @DF-RHF Final Energy:  -250.65608046847618

   => Energetics <=

    Nuclear Repulsion Energy =            266.1355653752268040
    One-Electron Energy =                -855.6457564964330231
    Two-Electron Energy =                 338.8541106527300144
    Total Energy =                       -250.6560804684761479
  Basis Set: (AUG-CC-PVTZ AUX)
    Blend: AUG-CC-PVTZ-RI
    Molecular point group: c1

    Geometry (in Angstrom), charge = 1, multiplicity = 1:

       Center              X                  Y                   Z               Mass
    ------------   -----------------  -----------------  -----------------  -----------------
         N           -1.453314468237    -0.725542038167     0.020213988120    14.003074004430
         C            0.794088531763     0.025286961833    -0.371712011880    12.000000000000
         C            0.000707531763    -1.177351038167     0.124421988120    12.000000000000
         C           -0.013817468237     1.195216961833     0.196224988120    12.000000000000
         C           -1.462796468237     0.807753961833    -0.067388011880    12.000000000000
         C            2.253826531763    -0.011925038167     0.062646988120    12.000000000000
         H            0.741511531763     0.054973961833    -1.468298011880     1.007825032230
         H            0.123696631763    -2.055456038167    -0.421804911880     1.007825032230
         H            0.201194531763    -1.374014038167     1.180531988120     1.007825032230
         H            0.230217531763     2.149496961833    -0.277055011880     1.007825032230
         H            0.173457531763     1.294632961833     1.271204988120     1.007825032230
         H           -2.000423468237    -1.055924038167     0.823925988120     1.007825032230
         H           -1.899293468237    -1.132539038167    -0.810111011880     1.007825032230
         H           -2.188576468237     1.193135961833     0.649517988120     1.007825032230
         H           -1.783538468237     1.065933961833    -1.077611011880     1.007825032230
         H            2.765398531763    -0.889539038167    -0.340903011880     1.007825032230
         H            2.777700531763     0.875454961833    -0.299472011880     1.007825032230
         H            2.333877531763    -0.034834038167     1.153686988120     1.007825032230

  Basis Set: AUG-CC-PVTZ
    Blend: AUG-CC-PVTZ
  Basis Set: (AUG-CC-PVTZ AUX)
    Blend: AUG-CC-PVTZ-JKFIT
	 Reference Energy          =    -250.6560804684761763 [Eh]
	 Singles Energy            =      -0.0000000000000000 [Eh]
	 Same-Spin Energy          =      -0.2610269370568095 [Eh]
	 Opposite-Spin Energy      =      -0.9370507002645984 [Eh]
	 Correlation Energy        =      -1.1980776373214077 [Eh]
	 Total Energy              =    -251.8541581057975804 [Eh]

	 ================> DF-SCS-MP2 Energies <==================
	-----------------------------------------------------------
	 SCS Same-Spin Scale       =       0.3333333333333333 [-]
	 SCS Opposite-Spin Scale   =       1.2000000000000000 [-]
	 SCS Same-Spin Energy      =      -0.0870089790189365 [Eh]
	 SCS Opposite-Spin Energy  =      -1.1244608403175180 [Eh]
	 SCS Correlation Energy    =      -1.2114698193364546 [Eh]
	 SCS Total Energy          =    -251.8675502878126338 [Eh]
	-----------------------------------------------------------

  Dipole Moment: [D]
     X:    -4.2229      Y:    -1.8705      Z:    -0.0118     Total:     4.6186

*** Psi4 exiting successfully. Buy a developer a beer!
