                               Psi4 1.4a3.dev225

  ==> Input File <==

--------------------------------------------------------------------------
#psi4
#
memory 32 gb

molecule  {
1 1
  N       -1.4684160    -0.7256290     0.0168660
  C        0.7789870     0.0252000    -0.3750600
  C       -0.0143940    -1.1774380     0.1210740
  C       -0.0289190     1.1951300     0.1928770
  C       -1.4742900     0.7854589    -0.0565861
  C        2.2387250    -0.0120120     0.0592990
  H        0.7264100     0.0548870    -1.4716460
  H        0.1145000    -2.0977020    -0.4513780
  H        0.1860930    -1.3741010     1.1771840
  H        0.2151160     2.1494100    -0.2804030
  H        0.1583560     1.2945460     1.2678570
  H       -2.0155250    -1.0560110     0.8205780
  H       -1.9143950    -1.1326260    -0.8134590
  H       -2.2036780     1.1930490     0.6461700
  H       -1.7986400     1.0658470    -1.0809590
  H        2.7502970    -0.8896260    -0.3442510
  H        2.7625990     0.8753680    -0.3028200
  H        2.3187760    -0.0349210     1.1503390
units angstrom
no_reorient  #important for SAPT in psi4, default
symmetry c1  #important for SAPT in psi4, default
}

set PROPERTIES_ORIGIN ["COM"]
properties('MP2/aug-cc-pvtz', properties = ['dipole'])
--------------------------------------------------------------------------

    Molecular point group: c1
  Charge       = 1
  Multiplicity = 1
  Basis Set: AUG-CC-PVTZ
    Blend: AUG-CC-PVTZ
  Basis Set: (AUG-CC-PVTZ AUX)
    Blend: AUG-CC-PVTZ-JKFIT

    Orbital Energies [Eh]
    ---------------------

    Doubly Occupied:

       1A    -15.867750     2A    -11.462917     3A    -11.460894
       4A    -11.403012     5A    -11.396241     6A    -11.359605
       7A     -1.498251     8A     -1.265565     9A     -1.193673
      10A     -1.099795    11A     -1.022984    12A     -0.976605
      13A     -0.937155    14A     -0.895525    15A     -0.828158
      16A     -0.787736    17A     -0.758224    18A     -0.739721
      19A     -0.711746    20A     -0.703314    21A     -0.676314
      22A     -0.654492    23A     -0.638195    24A     -0.628856

  @DF-RHF Final Energy:  -250.65620100032839

   => Energetics <=

    Nuclear Repulsion Energy =            266.1953524089759640
    One-Electron Energy =                -855.7696458858949882
    Two-Electron Energy =                 338.9180924765906298
    Total Energy =                       -250.6562010003283945
  Basis Set: (AUG-CC-PVTZ AUX)
    Blend: AUG-CC-PVTZ-RI
    Molecular point group: c1

    Geometry (in Angstrom), charge = 1, multiplicity = 1:

       Center              X                  Y                   Z               Mass
    ------------   -----------------  -----------------  -----------------  -----------------
         N           -1.453886464017    -0.721953223372     0.018548790374    14.003074004430
         C            0.793516535983     0.028875776628    -0.373377209626    12.000000000000
         C            0.000135535983    -1.173762223372     0.122756790374    12.000000000000
         C           -0.014389464017     1.198805776628     0.194559790374    12.000000000000
         C           -1.459760464017     0.789134676628    -0.054903309626    12.000000000000
         C            2.253254535983    -0.008336223372     0.060981790374    12.000000000000
         H            0.740939535983     0.058562776628    -1.469963209626     1.007825032230
         H            0.129029535983    -2.094026223372    -0.449695209626     1.007825032230
         H            0.200622535983    -1.370425223372     1.178866790374     1.007825032230
         H            0.229645535983     2.153085776628    -0.278720209626     1.007825032230
         H            0.172885535983     1.298221776628     1.269539790374     1.007825032230
         H           -2.000995464017    -1.052335223372     0.822260790374     1.007825032230
         H           -1.899865464017    -1.128950223372    -0.811776209626     1.007825032230
         H           -2.189148464017     1.196724776628     0.647852790374     1.007825032230
         H           -1.784110464017     1.069522776628    -1.079276209626     1.007825032230
         H            2.764826535983    -0.885950223372    -0.342568209626     1.007825032230
         H            2.777128535983     0.879043776628    -0.301137209626     1.007825032230
         H            2.333305535983    -0.031245223372     1.152021790374     1.007825032230

  Basis Set: AUG-CC-PVTZ
    Blend: AUG-CC-PVTZ
  Basis Set: (AUG-CC-PVTZ AUX)
    Blend: AUG-CC-PVTZ-JKFIT
	 Reference Energy          =    -250.6562010003283945 [Eh]
	 Singles Energy            =      -0.0000000000000000 [Eh]
	 Same-Spin Energy          =      -0.2612349279991043 [Eh]
	 Opposite-Spin Energy      =      -0.9374565578542517 [Eh]
	 Correlation Energy        =      -1.1986914858533559 [Eh]
	 Total Energy              =    -251.8548924861817397 [Eh]

	 ================> DF-SCS-MP2 Energies <==================
	-----------------------------------------------------------
	 SCS Same-Spin Scale       =       0.3333333333333333 [-]
	 SCS Opposite-Spin Scale   =       1.2000000000000000 [-]
	 SCS Same-Spin Energy      =      -0.0870783093330348 [Eh]
	 SCS Opposite-Spin Energy  =      -1.1249478694251021 [Eh]
	 SCS Correlation Energy    =      -1.2120261787581368 [Eh]
	 SCS Total Energy          =    -251.8682271790865173 [Eh]
	-----------------------------------------------------------

  Dipole Moment: [D]
     X:    -4.2233      Y:    -1.9062      Z:    -0.0127     Total:     4.6336

*** Psi4 exiting successfully. Buy a developer a beer!
