                               Psi4 1.4a3.dev225

  ==> Input File <==

--------------------------------------------------------------------------
#psi4
#
memory 32 gb

molecule  {
1 1
  N       -1.4684160    -0.7256290     0.0168660
  C        0.7789870     0.0252000    -0.3750600
  C       -0.0143940    -1.1774380     0.1210740
  C       -0.0160505     1.1788842     0.2421343
  C       -1.4778980     0.8076670    -0.0707360
  C        2.2387250    -0.0120120     0.0592990
  H        0.7264100     0.0548870    -1.4716460
  H        0.1145000    -2.0977020    -0.4513780
  H        0.1860930    -1.3741010     1.1771840
  H        0.2151160     2.1494100    -0.2804030
  H        0.1583560     1.2945460     1.2678570
  H       -2.0155250    -1.0560110     0.8205780
  H       -1.9143950    -1.1326260    -0.8134590
  H       -2.2036780     1.1930490     0.6461700
  H       -1.7986400     1.0658470    -1.0809590
  H        2.7502970    -0.8896260    -0.3442510
  H        2.7625990     0.8753680    -0.3028200
  H        2.3187760    -0.0349210     1.1503390
units angstrom
no_reorient  #important for SAPT in psi4, default
symmetry c1  #important for SAPT in psi4, default
}

set PROPERTIES_ORIGIN ["COM"]
properties('MP2/aug-cc-pvtz', properties = ['dipole'])
--------------------------------------------------------------------------

    Molecular point group: c1
  Charge       = 1
  Multiplicity = 1
  Basis Set: AUG-CC-PVTZ
    Blend: AUG-CC-PVTZ
  Basis Set: (AUG-CC-PVTZ AUX)
    Blend: AUG-CC-PVTZ-JKFIT

    Orbital Energies [Eh]
    ---------------------

    Doubly Occupied:

       1A    -15.864686     2A    -11.464272     3A    -11.459449
       4A    -11.403195     5A    -11.396616     6A    -11.359325
       7A     -1.492030     8A     -1.264908     9A     -1.191476
      10A     -1.098734    11A     -1.024930    12A     -0.975818
      13A     -0.934179    14A     -0.891451    15A     -0.829348
      16A     -0.793585    17A     -0.752173    18A     -0.736467
      19A     -0.711999    20A     -0.702906    21A     -0.681534
      22A     -0.653114    23A     -0.641444    24A     -0.627754

  @DF-RHF Final Energy:  -250.65344740273198

   => Energetics <=

    Nuclear Repulsion Energy =            265.8790877143480884
    One-Electron Energy =                -855.1622855058991490
    Two-Electron Energy =                 338.6297503888190477
    Total Energy =                       -250.6534474027320130
  Basis Set: (AUG-CC-PVTZ AUX)
    Blend: AUG-CC-PVTZ-RI
    Molecular point group: c1

    Geometry (in Angstrom), charge = 1, multiplicity = 1:

       Center              X                  Y                   Z               Mass
    ------------   -----------------  -----------------  -----------------  -----------------
         N           -1.455177171394    -0.722784235153     0.013655601002    14.003074004430
         C            0.792225828606     0.028044764847    -0.378270398998    12.000000000000
         C           -0.001155171394    -1.174593235153     0.117863601002    12.000000000000
         C           -0.002811671394     1.181728964847     0.238923901002    12.000000000000
         C           -1.464659171394     0.810511764847    -0.073946398998    12.000000000000
         C            2.251963828606    -0.009167235153     0.056088601002    12.000000000000
         H            0.739648828606     0.057731764847    -1.474856398998     1.007825032230
         H            0.127738828606    -2.094857235153    -0.454588398998     1.007825032230
         H            0.199331828606    -1.371256235153     1.173973601002     1.007825032230
         H            0.228354828606     2.152254764847    -0.283613398998     1.007825032230
         H            0.171594828606     1.297390764847     1.264646601002     1.007825032230
         H           -2.002286171394    -1.053166235153     0.817367601002     1.007825032230
         H           -1.901156171394    -1.129781235153    -0.816669398998     1.007825032230
         H           -2.190439171394     1.195893764847     0.642959601002     1.007825032230
         H           -1.785401171394     1.068691764847    -1.084169398998     1.007825032230
         H            2.763535828606    -0.886781235153    -0.347461398998     1.007825032230
         H            2.775837828606     0.878212764847    -0.306030398998     1.007825032230
         H            2.332014828606    -0.032076235153     1.147128601002     1.007825032230

  Basis Set: AUG-CC-PVTZ
    Blend: AUG-CC-PVTZ
  Basis Set: (AUG-CC-PVTZ AUX)
    Blend: AUG-CC-PVTZ-JKFIT
	 Reference Energy          =    -250.6534474027319845 [Eh]
	 Singles Energy            =      -0.0000000000000000 [Eh]
	 Same-Spin Energy          =      -0.2611439877471596 [Eh]
	 Opposite-Spin Energy      =      -0.9375913802767374 [Eh]
	 Correlation Energy        =      -1.1987353680238970 [Eh]
	 Total Energy              =    -251.8521827707558884 [Eh]

	 ================> DF-SCS-MP2 Energies <==================
	-----------------------------------------------------------
	 SCS Same-Spin Scale       =       0.3333333333333333 [-]
	 SCS Opposite-Spin Scale   =       1.2000000000000000 [-]
	 SCS Same-Spin Energy      =      -0.0870479959157199 [Eh]
	 SCS Opposite-Spin Energy  =      -1.1251096563320848 [Eh]
	 SCS Correlation Energy    =      -1.2121576522478046 [Eh]
	 SCS Total Energy          =    -251.8656050549797953 [Eh]
	-----------------------------------------------------------

  Dipole Moment: [D]
     X:    -4.2233      Y:    -1.8482      Z:    -0.0311     Total:     4.6101

*** Psi4 exiting successfully. Buy a developer a beer!
