                               Psi4 1.4a3.dev225

  ==> Input File <==

--------------------------------------------------------------------------
#psi4
#
memory 32 gb

molecule  {
1 1
  N       -1.4684160    -0.7256290     0.0168660
  C        0.8033442     0.0593260    -0.4081953
  C       -0.0143940    -1.1774380     0.1210740
  C       -0.0289190     1.1951300     0.1928770
  C       -1.4778980     0.8076670    -0.0707360
  C        2.2387250    -0.0120120     0.0592990
  H        0.7264100     0.0548870    -1.4716460
  H        0.1145000    -2.0977020    -0.4513780
  H        0.1860930    -1.3741010     1.1771840
  H        0.2151160     2.1494100    -0.2804030
  H        0.1583560     1.2945460     1.2678570
  H       -2.0155250    -1.0560110     0.8205780
  H       -1.9143950    -1.1326260    -0.8134590
  H       -2.2036780     1.1930490     0.6461700
  H       -1.7986400     1.0658470    -1.0809590
  H        2.7502970    -0.8896260    -0.3442510
  H        2.7625990     0.8753680    -0.3028200
  H        2.3187760    -0.0349210     1.1503390
units angstrom
no_reorient  #important for SAPT in psi4, default
symmetry c1  #important for SAPT in psi4, default
}

set PROPERTIES_ORIGIN ["COM"]
properties('MP2/aug-cc-pvtz', properties = ['dipole'])
--------------------------------------------------------------------------

    Molecular point group: c1
  Charge       = 1
  Multiplicity = 1
  Basis Set: AUG-CC-PVTZ
    Blend: AUG-CC-PVTZ
  Basis Set: (AUG-CC-PVTZ AUX)
    Blend: AUG-CC-PVTZ-JKFIT

    Orbital Energies [Eh]
    ---------------------

    Doubly Occupied:

       1A    -15.864914     2A    -11.463959     3A    -11.459645
       4A    -11.403913     5A    -11.396806     6A    -11.358860
       7A     -1.490684     8A     -1.262532     9A     -1.191144
      10A     -1.098902    11A     -1.023634    12A     -0.975869
      13A     -0.935398    14A     -0.891554    15A     -0.825766
      16A     -0.791237    17A     -0.752197    18A     -0.739244
      19A     -0.713867    20A     -0.701670    21A     -0.681443
      22A     -0.655666    23A     -0.641704    24A     -0.624348

  @DF-RHF Final Energy:  -250.65438879731278

   => Energetics <=

    Nuclear Repulsion Energy =            265.4074712393061759
    One-Electron Energy =                -854.2338102508508655
    Two-Electron Energy =                 338.1719502142318561
    Total Energy =                       -250.6543887973127767
  Basis Set: (AUG-CC-PVTZ AUX)
    Blend: AUG-CC-PVTZ-RI
    Molecular point group: c1

    Geometry (in Angstrom), charge = 1, multiplicity = 1:

       Center              X                  Y                   Z               Mass
    ------------   -----------------  -----------------  -----------------  -----------------
         N           -1.456778440207    -0.729804941795     0.025139293745    14.003074004430
         C            0.814981759793     0.055150058205    -0.399922006255    12.000000000000
         C           -0.002756440207    -1.181613941795     0.129347293745    12.000000000000
         C           -0.017281440207     1.190954058205     0.201150293745    12.000000000000
         C           -1.466260440207     0.803491058205    -0.062462706255    12.000000000000
         C            2.250362559793    -0.016187941795     0.067572293745    12.000000000000
         H            0.738047559793     0.050711058205    -1.463372706255     1.007825032230
         H            0.126137559793    -2.101877941795    -0.443104706255     1.007825032230
         H            0.197730559793    -1.378276941795     1.185457293745     1.007825032230
         H            0.226753559793     2.145234058205    -0.272129706255     1.007825032230
         H            0.169993559793     1.290370058205     1.276130293745     1.007825032230
         H           -2.003887440207    -1.060186941795     0.828851293745     1.007825032230
         H           -1.902757440207    -1.136801941795    -0.805185706255     1.007825032230
         H           -2.192040440207     1.188873058205     0.654443293745     1.007825032230
         H           -1.787002440207     1.061671058205    -1.072685706255     1.007825032230
         H            2.761934559793    -0.893801941795    -0.335977706255     1.007825032230
         H            2.774236559793     0.871192058205    -0.294546706255     1.007825032230
         H            2.330413559793    -0.039096941795     1.158612293745     1.007825032230

  Basis Set: AUG-CC-PVTZ
    Blend: AUG-CC-PVTZ
  Basis Set: (AUG-CC-PVTZ AUX)
    Blend: AUG-CC-PVTZ-JKFIT
	 Reference Energy          =    -250.6543887973127767 [Eh]
	 Singles Energy            =      -0.0000000000000000 [Eh]
	 Same-Spin Energy          =      -0.2609638689152366 [Eh]
	 Opposite-Spin Energy      =      -0.9374244528137092 [Eh]
	 Correlation Energy        =      -1.1983883217289457 [Eh]
	 Total Energy              =    -251.8527771190417184 [Eh]

	 ================> DF-SCS-MP2 Energies <==================
	-----------------------------------------------------------
	 SCS Same-Spin Scale       =       0.3333333333333333 [-]
	 SCS Opposite-Spin Scale   =       1.2000000000000000 [-]
	 SCS Same-Spin Energy      =      -0.0869879563050789 [Eh]
	 SCS Opposite-Spin Energy  =      -1.1249093433764510 [Eh]
	 SCS Correlation Energy    =      -1.2118972996815298 [Eh]
	 SCS Total Energy          =    -251.8662860969943154 [Eh]
	-----------------------------------------------------------

  Dipole Moment: [D]
     X:    -4.2224      Y:    -1.8697      Z:    -0.0091     Total:     4.6178

*** Psi4 exiting successfully. Buy a developer a beer!
