                               Psi4 1.4a3.dev225

  ==> Input File <==

--------------------------------------------------------------------------
#psi4
#
memory 32 gb

molecule  {
1 1
  N       -1.4684160    -0.7256290     0.0168660
  C        0.7789870     0.0252000    -0.3750600
  C       -0.0143940    -1.1774380     0.1210740
  C       -0.0289190     1.1951300     0.1928770
  C       -1.4778980     0.8076670    -0.0707360
  C        2.2387250    -0.0120120     0.0592990
  H        0.7264100     0.0548870    -1.4716460
  H        0.1145000    -2.0977020    -0.4513780
  H        0.1677470    -1.3561050     1.0805426
  H        0.2151160     2.1494100    -0.2804030
  H        0.1583560     1.2945460     1.2678570
  H       -2.0155250    -1.0560110     0.8205780
  H       -1.9143950    -1.1326260    -0.8134590
  H       -2.2036780     1.1930490     0.6461700
  H       -1.7986400     1.0658470    -1.0809590
  H        2.7502970    -0.8896260    -0.3442510
  H        2.7625990     0.8753680    -0.3028200
  H        2.3187760    -0.0349210     1.1503390
units angstrom
no_reorient  #important for SAPT in psi4, default
symmetry c1  #important for SAPT in psi4, default
}

set PROPERTIES_ORIGIN ["COM"]
properties('MP2/aug-cc-pvtz', properties = ['dipole'])
--------------------------------------------------------------------------

    Molecular point group: c1
  Charge       = 1
  Multiplicity = 1
  Basis Set: AUG-CC-PVTZ
    Blend: AUG-CC-PVTZ
  Basis Set: (AUG-CC-PVTZ AUX)
    Blend: AUG-CC-PVTZ-JKFIT

    Orbital Energies [Eh]
    ---------------------

    Doubly Occupied:

       1A    -15.865252     2A    -11.463772     3A    -11.448950
       4A    -11.402518     5A    -11.396741     6A    -11.359660
       7A     -1.493185     8A     -1.265993     9A     -1.198071
      10A     -1.103530    11A     -1.025888    12A     -0.979798
      13A     -0.935155    14A     -0.893156    15A     -0.831283
      16A     -0.798758    17A     -0.753832    18A     -0.740678
      19A     -0.719082    20A     -0.704831    21A     -0.680020
      22A     -0.654578    23A     -0.638942    24A     -0.629365

  @DF-RHF Final Energy:  -250.65111836230523

   => Energetics <=

    Nuclear Repulsion Energy =            266.3843257036691625
    One-Electron Energy =                -856.1048096058183319
    Two-Electron Energy =                 339.0693655398440001
    Total Energy =                       -250.6511183623052261
  Basis Set: (AUG-CC-PVTZ AUX)
    Blend: AUG-CC-PVTZ-RI
    Molecular point group: c1

    Geometry (in Angstrom), charge = 1, multiplicity = 1:

       Center              X                  Y                   Z               Mass
    ------------   -----------------  -----------------  -----------------  -----------------
         N           -1.453168836499    -0.725259193428     0.021652226052    14.003074004430
         C            0.794234163501     0.025569806572    -0.370273773948    12.000000000000
         C            0.000853163501    -1.177068193428     0.125860226052    12.000000000000
         C           -0.013671836499     1.195499806572     0.197663226052    12.000000000000
         C           -1.462650836499     0.808036806572    -0.065949773948    12.000000000000
         C            2.253972163501    -0.011642193428     0.064085226052    12.000000000000
         H            0.741657163501     0.055256806572    -1.466859773948     1.007825032230
         H            0.129747163501    -2.097332193428    -0.446591773948     1.007825032230
         H            0.182994163501    -1.355735193428     1.085328826052     1.007825032230
         H            0.230363163501     2.149779806572    -0.275616773948     1.007825032230
         H            0.173603163501     1.294915806572     1.272643226052     1.007825032230
         H           -2.000277836499    -1.055641193428     0.825364226052     1.007825032230
         H           -1.899147836499    -1.132256193428    -0.808672773948     1.007825032230
         H           -2.188430836499     1.193418806572     0.650956226052     1.007825032230
         H           -1.783392836499     1.066216806572    -1.076172773948     1.007825032230
         H            2.765544163501    -0.889256193428    -0.339464773948     1.007825032230
         H            2.777846163501     0.875737806572    -0.298033773948     1.007825032230
         H            2.334023163501    -0.034551193428     1.155125226052     1.007825032230

  Basis Set: AUG-CC-PVTZ
    Blend: AUG-CC-PVTZ
  Basis Set: (AUG-CC-PVTZ AUX)
    Blend: AUG-CC-PVTZ-JKFIT
	 Reference Energy          =    -250.6511183623052261 [Eh]
	 Singles Energy            =      -0.0000000000000000 [Eh]
	 Same-Spin Energy          =      -0.2609508394833218 [Eh]
	 Opposite-Spin Energy      =      -0.9367524376100543 [Eh]
	 Correlation Energy        =      -1.1977032770933762 [Eh]
	 Total Energy              =    -251.8488216393986079 [Eh]

	 ================> DF-SCS-MP2 Energies <==================
	-----------------------------------------------------------
	 SCS Same-Spin Scale       =       0.3333333333333333 [-]
	 SCS Opposite-Spin Scale   =       1.2000000000000000 [-]
	 SCS Same-Spin Energy      =      -0.0869836131611073 [Eh]
	 SCS Opposite-Spin Energy  =      -1.1241029251320651 [Eh]
	 SCS Correlation Energy    =      -1.2110865382931724 [Eh]
	 SCS Total Energy          =    -251.8622049005983854 [Eh]
	-----------------------------------------------------------

  Dipole Moment: [D]
     X:    -4.2263      Y:    -1.8707      Z:    -0.0102     Total:     4.6218

*** Psi4 exiting successfully. Buy a developer a beer!
