                               Psi4 1.4a3.dev225

  ==> Input File <==

--------------------------------------------------------------------------
#psi4
#
memory 32 gb

molecule  {
1 1
  N       -1.4684160    -0.7256290     0.0168660
  C        0.7789870     0.0252000    -0.3750600
  C       -0.0143940    -1.1774380     0.1210740
  C       -0.0289190     1.1951300     0.1928770
  C       -1.4778980     0.8076670    -0.0707360
  C        2.2387250    -0.0120120     0.0592990
  H        0.7264100     0.0548870    -1.4716460
  H        0.1145000    -2.0977020    -0.4513780
  H        0.1769200    -1.3651030     1.1288633
  H        0.2151160     2.1494100    -0.2804030
  H        0.1583560     1.2945460     1.2678570
  H       -2.0155250    -1.0560110     0.8205780
  H       -1.9143950    -1.1326260    -0.8134590
  H       -2.2036780     1.1930490     0.6461700
  H       -1.7986400     1.0658470    -1.0809590
  H        2.7502970    -0.8896260    -0.3442510
  H        2.7625990     0.8753680    -0.3028200
  H        2.3187760    -0.0349210     1.1503390
units angstrom
no_reorient  #important for SAPT in psi4, default
symmetry c1  #important for SAPT in psi4, default
}

set PROPERTIES_ORIGIN ["COM"]
properties('MP2/aug-cc-pvtz', properties = ['dipole'])
--------------------------------------------------------------------------

    Molecular point group: c1
  Charge       = 1
  Multiplicity = 1
  Basis Set: AUG-CC-PVTZ
    Blend: AUG-CC-PVTZ
  Basis Set: (AUG-CC-PVTZ AUX)
    Blend: AUG-CC-PVTZ-JKFIT

    Orbital Energies [Eh]
    ---------------------

    Doubly Occupied:

       1A    -15.865404     2A    -11.463787     3A    -11.454562
       4A    -11.402766     5A    -11.396718     6A    -11.359626
       7A     -1.492897     8A     -1.265436     9A     -1.195826
      10A     -1.101041    11A     -1.024757    12A     -0.977280
      13A     -0.935103    14A     -0.892721    15A     -0.829295
      16A     -0.795202    17A     -0.753744    18A     -0.740093
      19A     -0.715610    20A     -0.704477    21A     -0.679872
      22A     -0.654673    23A     -0.638789    24A     -0.629378

  @DF-RHF Final Energy:  -250.65606819972402

   => Energetics <=

    Nuclear Repulsion Energy =            266.1257561430979308
    One-Electron Energy =                -855.6255372958609087
    Two-Electron Energy =                 338.8437129530390166
    Total Energy =                       -250.6560681997240181
  Basis Set: (AUG-CC-PVTZ AUX)
    Blend: AUG-CC-PVTZ-RI
    Molecular point group: c1

    Geometry (in Angstrom), charge = 1, multiplicity = 1:

       Center              X                  Y                   Z               Mass
    ------------   -----------------  -----------------  -----------------  -----------------
         N           -1.453276212851    -0.725153865573     0.021086598614    14.003074004430
         C            0.794126787149     0.025675134427    -0.370839401386    12.000000000000
         C            0.000745787149    -1.176962865573     0.125294598614    12.000000000000
         C           -0.013779212851     1.195605134427     0.197097598614    12.000000000000
         C           -1.462758212851     0.808142134427    -0.066515401386    12.000000000000
         C            2.253864787149    -0.011536865573     0.063519598614    12.000000000000
         H            0.741549787149     0.055362134427    -1.467425401386     1.007825032230
         H            0.129639787149    -2.097226865573    -0.447157401386     1.007825032230
         H            0.192059787149    -1.364627865573     1.133083898614     1.007825032230
         H            0.230255787149     2.149885134427    -0.276182401386     1.007825032230
         H            0.173495787149     1.295021134427     1.272077598614     1.007825032230
         H           -2.000385212851    -1.055535865573     0.824798598614     1.007825032230
         H           -1.899255212851    -1.132150865573    -0.809238401386     1.007825032230
         H           -2.188538212851     1.193524134427     0.650390598614     1.007825032230
         H           -1.783500212851     1.066322134427    -1.076738401386     1.007825032230
         H            2.765436787149    -0.889150865573    -0.340030401386     1.007825032230
         H            2.777738787149     0.875843134427    -0.298599401386     1.007825032230
         H            2.333915787149    -0.034445865573     1.154559598614     1.007825032230

  Basis Set: AUG-CC-PVTZ
    Blend: AUG-CC-PVTZ
  Basis Set: (AUG-CC-PVTZ AUX)
    Blend: AUG-CC-PVTZ-JKFIT
	 Reference Energy          =    -250.6560681997240181 [Eh]
	 Singles Energy            =      -0.0000000000000000 [Eh]
	 Same-Spin Energy          =      -0.2610151393571297 [Eh]
	 Opposite-Spin Energy      =      -0.9370400890098445 [Eh]
	 Correlation Energy        =      -1.1980552283669743 [Eh]
	 Total Energy              =    -251.8541234280909862 [Eh]

	 ================> DF-SCS-MP2 Energies <==================
	-----------------------------------------------------------
	 SCS Same-Spin Scale       =       0.3333333333333333 [-]
	 SCS Opposite-Spin Scale   =       1.2000000000000000 [-]
	 SCS Same-Spin Energy      =      -0.0870050464523766 [Eh]
	 SCS Opposite-Spin Energy  =      -1.1244481068118133 [Eh]
	 SCS Correlation Energy    =      -1.2114531532641899 [Eh]
	 SCS Total Energy          =    -251.8675213529882058 [Eh]
	-----------------------------------------------------------

  Dipole Moment: [D]
     X:    -4.2232      Y:    -1.8695      Z:    -0.0122     Total:     4.6185

*** Psi4 exiting successfully. Buy a developer a beer!
