                               Psi4 1.4a3.dev225

  ==> Input File <==

--------------------------------------------------------------------------
#psi4
#
memory 32 gb

molecule  {
1 1
  N       -1.4684160    -0.7256290     0.0168660
  C        0.7001341    -0.0684681    -0.2716682
  C       -0.0143940    -1.1774380     0.1210740
  C       -0.0289190     1.1951300     0.1928770
  C       -1.4778980     0.8076670    -0.0707360
  C        2.2387250    -0.0120120     0.0592990
  H        0.7264100     0.0548870    -1.4716460
  H        0.1145000    -2.0977020    -0.4513780
  H        0.1860930    -1.3741010     1.1771840
  H        0.2151160     2.1494100    -0.2804030
  H        0.1583560     1.2945460     1.2678570
  H       -2.0155250    -1.0560110     0.8205780
  H       -1.9143950    -1.1326260    -0.8134590
  H       -2.2036780     1.1930490     0.6461700
  H       -1.7986400     1.0658470    -1.0809590
  H        2.7502970    -0.8896260    -0.3442510
  H        2.7625990     0.8753680    -0.3028200
  H        2.3187760    -0.0349210     1.1503390
units angstrom
no_reorient  #important for SAPT in psi4, default
symmetry c1  #important for SAPT in psi4, default
}

set PROPERTIES_ORIGIN ["COM"]
properties('MP2/aug-cc-pvtz', properties = ['dipole'])
--------------------------------------------------------------------------

    Molecular point group: c1
  Charge       = 1
  Multiplicity = 1
  Basis Set: AUG-CC-PVTZ
    Blend: AUG-CC-PVTZ
  Basis Set: (AUG-CC-PVTZ AUX)
    Blend: AUG-CC-PVTZ-JKFIT

    Orbital Energies [Eh]
    ---------------------

    Doubly Occupied:

       1A    -15.866777     2A    -11.463389     3A    -11.457804
       4A    -11.404279     5A    -11.398943     6A    -11.365081
       7A     -1.499503     8A     -1.278677     9A     -1.204491
      10A     -1.097678    11A     -1.026092    12A     -0.973453
      13A     -0.937630    14A     -0.895603    15A     -0.832050
      16A     -0.794382    17A     -0.759508    18A     -0.743846
      19A     -0.713590    20A     -0.705382    21A     -0.680846
      22A     -0.677537    23A     -0.627118    24A     -0.597197

  @DF-RHF Final Energy:  -250.62626256168164

   => Energetics <=

    Nuclear Repulsion Energy =            267.3829810902004169
    One-Electron Energy =                -858.0167847553894944
    Two-Electron Energy =                 340.0075411035074922
    Total Energy =                       -250.6262625616816422
  Basis Set: (AUG-CC-PVTZ AUX)
    Blend: AUG-CC-PVTZ-RI
    Molecular point group: c1

    Geometry (in Angstrom), charge = 1, multiplicity = 1:

       Center              X                  Y                   Z               Mass
    ------------   -----------------  -----------------  -----------------  -----------------
         N           -1.442393251776    -0.711993291492     0.006110457812    14.003074004430
         C            0.726156848224    -0.054832391492    -0.282423742188    12.000000000000
         C            0.011628748224    -1.163802291492     0.110318457812    12.000000000000
         C           -0.002896251776     1.208765708508     0.182121457812    12.000000000000
         C           -1.451875251776     0.821302708508    -0.081491542188    12.000000000000
         C            2.264747748224     0.001623708508     0.048543457812    12.000000000000
         H            0.752432748224     0.068522708508    -1.482401542188     1.007825032230
         H            0.140522748224    -2.084066291492    -0.462133542188     1.007825032230
         H            0.212115748224    -1.360465291492     1.166428457812     1.007825032230
         H            0.241138748224     2.163045708508    -0.291158542188     1.007825032230
         H            0.184378748224     1.308181708508     1.257101457812     1.007825032230
         H           -1.989502251776    -1.042375291492     0.809822457812     1.007825032230
         H           -1.888372251776    -1.118990291492    -0.824214542188     1.007825032230
         H           -2.177655251776     1.206684708508     0.635414457812     1.007825032230
         H           -1.772617251776     1.079482708508    -1.091714542188     1.007825032230
         H            2.776319748224    -0.875990291492    -0.355006542188     1.007825032230
         H            2.788621748224     0.889003708508    -0.313575542188     1.007825032230
         H            2.344798748224    -0.021285291492     1.139583457812     1.007825032230

  Basis Set: AUG-CC-PVTZ
    Blend: AUG-CC-PVTZ
  Basis Set: (AUG-CC-PVTZ AUX)
    Blend: AUG-CC-PVTZ-JKFIT
	 Reference Energy          =    -250.6262625616816422 [Eh]
	 Singles Energy            =      -0.0000000000000000 [Eh]
	 Same-Spin Energy          =      -0.2627601278873676 [Eh]
	 Opposite-Spin Energy      =      -0.9397778392502790 [Eh]
	 Correlation Energy        =      -1.2025379671376466 [Eh]
	 Total Energy              =    -251.8288005288193006 [Eh]

	 ================> DF-SCS-MP2 Energies <==================
	-----------------------------------------------------------
	 SCS Same-Spin Scale       =       0.3333333333333333 [-]
	 SCS Opposite-Spin Scale   =       1.2000000000000000 [-]
	 SCS Same-Spin Energy      =      -0.0875867092957892 [Eh]
	 SCS Opposite-Spin Energy  =      -1.1277334071003349 [Eh]
	 SCS Correlation Energy    =      -1.2153201163961240 [Eh]
	 SCS Total Energy          =    -251.8415826780777707 [Eh]
	-----------------------------------------------------------

  Dipole Moment: [D]
     X:    -4.1492      Y:    -1.8124      Z:    -0.0319     Total:     4.5279

*** Psi4 exiting successfully. Buy a developer a beer!
