                               Psi4 1.4a3.dev225

  ==> Input File <==

--------------------------------------------------------------------------
#psi4
#
memory 32 gb

molecule  {
1 1
  N       -1.4684160    -0.7256290     0.0168660
  C        0.7912905     0.0420874    -0.3917167
  C       -0.0143940    -1.1774380     0.1210740
  C       -0.0289190     1.1951300     0.1928770
  C       -1.4778980     0.8076670    -0.0707360
  C        2.2387250    -0.0120120     0.0592990
  H        0.7264100     0.0548870    -1.4716460
  H        0.1145000    -2.0977020    -0.4513780
  H        0.1860930    -1.3741010     1.1771840
  H        0.2151160     2.1494100    -0.2804030
  H        0.1583560     1.2945460     1.2678570
  H       -2.0155250    -1.0560110     0.8205780
  H       -1.9143950    -1.1326260    -0.8134590
  H       -2.2036780     1.1930490     0.6461700
  H       -1.7986400     1.0658470    -1.0809590
  H        2.7502970    -0.8896260    -0.3442510
  H        2.7625990     0.8753680    -0.3028200
  H        2.3187760    -0.0349210     1.1503390
units angstrom
no_reorient  #important for SAPT in psi4, default
symmetry c1  #important for SAPT in psi4, default
}

set PROPERTIES_ORIGIN ["COM"]
properties('MP2/aug-cc-pvtz', properties = ['dipole'])
--------------------------------------------------------------------------

    Molecular point group: c1
  Charge       = 1
  Multiplicity = 1
  Basis Set: AUG-CC-PVTZ
    Blend: AUG-CC-PVTZ
  Basis Set: (AUG-CC-PVTZ AUX)
    Blend: AUG-CC-PVTZ-JKFIT

    Orbital Energies [Eh]
    ---------------------

    Doubly Occupied:

       1A    -15.865281     2A    -11.463892     3A    -11.459920
       4A    -11.403398     5A    -11.396703     6A    -11.359154
       7A     -1.491686     8A     -1.263676     9A     -1.192535
      10A     -1.098962    11A     -1.023700    12A     -0.975345
      13A     -0.935183    14A     -0.891979    15A     -0.826783
      16A     -0.791399    17A     -0.752929    18A     -0.739386
      19A     -0.712875    20A     -0.702624    21A     -0.680459
      22A     -0.653797    23A     -0.640609    24A     -0.628263

  @DF-RHF Final Energy:  -250.65634399950602

   => Energetics <=

    Nuclear Repulsion Energy =            265.6436990405534289
    One-Electron Energy =                -854.6990129855225860
    Two-Electron Energy =                 338.3989699454631364
    Total Energy =                       -250.6563439995060207
  Basis Set: (AUG-CC-PVTZ AUX)
    Blend: AUG-CC-PVTZ-RI
    Molecular point group: c1

    Geometry (in Angstrom), charge = 1, multiplicity = 1:

       Center              X                  Y                   Z               Mass
    ------------   -----------------  -----------------  -----------------  -----------------
         N           -1.455098422982    -0.727402265029     0.022842544046    14.003074004430
         C            0.804608077018     0.040314134971    -0.385740155954    12.000000000000
         C           -0.001076422982    -1.179211265029     0.127050544046    12.000000000000
         C           -0.015601422982     1.193356734971     0.198853544046    12.000000000000
         C           -1.464580422982     0.805893734971    -0.064759455954    12.000000000000
         C            2.252042577018    -0.013785265029     0.065275544046    12.000000000000
         H            0.739727577018     0.053113734971    -1.465669455954     1.007825032230
         H            0.127817577018    -2.099475265029    -0.445401455954     1.007825032230
         H            0.199410577018    -1.375874265029     1.183160544046     1.007825032230
         H            0.228433577018     2.147636734971    -0.274426455954     1.007825032230
         H            0.171673577018     1.292772734971     1.273833544046     1.007825032230
         H           -2.002207422982    -1.057784265029     0.826554544046     1.007825032230
         H           -1.901077422982    -1.134399265029    -0.807482455954     1.007825032230
         H           -2.190360422982     1.191275734971     0.652146544046     1.007825032230
         H           -1.785322422982     1.064073734971    -1.074982455954     1.007825032230
         H            2.763614577018    -0.891399265029    -0.338274455954     1.007825032230
         H            2.775916577018     0.873594734971    -0.296843455954     1.007825032230
         H            2.332093577018    -0.036694265029     1.156315544046     1.007825032230

  Basis Set: AUG-CC-PVTZ
    Blend: AUG-CC-PVTZ
  Basis Set: (AUG-CC-PVTZ AUX)
    Blend: AUG-CC-PVTZ-JKFIT
	 Reference Energy          =    -250.6563439995060207 [Eh]
	 Singles Energy            =      -0.0000000000000000 [Eh]
	 Same-Spin Energy          =      -0.2610059440711013 [Eh]
	 Opposite-Spin Energy      =      -0.9373674309886217 [Eh]
	 Correlation Energy        =      -1.1983733750597230 [Eh]
	 Total Energy              =    -251.8547173745657517 [Eh]

	 ================> DF-SCS-MP2 Energies <==================
	-----------------------------------------------------------
	 SCS Same-Spin Scale       =       0.3333333333333333 [-]
	 SCS Opposite-Spin Scale   =       1.2000000000000000 [-]
	 SCS Same-Spin Energy      =      -0.0870019813570338 [Eh]
	 SCS Opposite-Spin Energy  =      -1.1248409171863460 [Eh]
	 SCS Correlation Energy    =      -1.2118428985433798 [Eh]
	 SCS Total Energy          =    -251.8681868980494016 [Eh]
	-----------------------------------------------------------

  Dipole Moment: [D]
     X:    -4.2229      Y:    -1.8696      Z:    -0.0125     Total:     4.6183

*** Psi4 exiting successfully. Buy a developer a beer!
