                               Psi4 1.4a3.dev225

  ==> Input File <==

--------------------------------------------------------------------------
#psi4
#
memory 32 gb

molecule  {
1 1
  N       -1.4684160    -0.7256290     0.0168660
  C        0.7789870     0.0252000    -0.3750600
  C       -0.0143940    -1.1774380     0.1210740
  C       -0.0289190     1.1951300     0.1928770
  C       -1.4778980     0.8076670    -0.0707360
  C        2.2387250    -0.0120120     0.0592990
  H        0.7264100     0.0548870    -1.4716460
  H        0.1145000    -2.0977020    -0.4513780
  H        0.1860930    -1.3741010     1.1771840
  H        0.2597786     2.3240597    -0.3670214
  H        0.1583560     1.2945460     1.2678570
  H       -2.0155250    -1.0560110     0.8205780
  H       -1.9143950    -1.1326260    -0.8134590
  H       -2.2036780     1.1930490     0.6461700
  H       -1.7986400     1.0658470    -1.0809590
  H        2.7502970    -0.8896260    -0.3442510
  H        2.7625990     0.8753680    -0.3028200
  H        2.3187760    -0.0349210     1.1503390
units angstrom
no_reorient  #important for SAPT in psi4, default
symmetry c1  #important for SAPT in psi4, default
}

set PROPERTIES_ORIGIN ["COM"]
properties('MP2/aug-cc-pvtz', properties = ['dipole'])
--------------------------------------------------------------------------

    Molecular point group: c1
  Charge       = 1
  Multiplicity = 1
  Basis Set: AUG-CC-PVTZ
    Blend: AUG-CC-PVTZ
  Basis Set: (AUG-CC-PVTZ AUX)
    Blend: AUG-CC-PVTZ-JKFIT

    Orbital Energies [Eh]
    ---------------------

    Doubly Occupied:

       1A    -15.866560     2A    -11.465053     3A    -11.461326
       4A    -11.416793     5A    -11.404324     6A    -11.359659
       7A     -1.493786     8A     -1.263317     9A     -1.192378
      10A     -1.099386    11A     -1.015811    12A     -0.974773
      13A     -0.930296    14A     -0.891459    15A     -0.825976
      16A     -0.791691    17A     -0.750912    18A     -0.738874
      19A     -0.711951    20A     -0.696251    21A     -0.663179
      22A     -0.653718    23A     -0.632780    24A     -0.628518

  @DF-RHF Final Energy:  -250.63599221459248

   => Energetics <=

    Nuclear Repulsion Energy =            265.0082689673277514
    One-Electron Energy =                -853.4309818813695756
    Two-Electron Energy =                 337.7867206994492904
    Total Energy =                       -250.6359922145924770
  Basis Set: (AUG-CC-PVTZ AUX)
    Blend: AUG-CC-PVTZ-RI
    Molecular point group: c1

    Geometry (in Angstrom), charge = 1, multiplicity = 1:

       Center              X                  Y                   Z               Mass
    ------------   -----------------  -----------------  -----------------  -----------------
         N           -1.453906396033    -0.727092934061     0.021534899858    14.003074004430
         C            0.793496603967     0.023736065939    -0.370391100142    12.000000000000
         C            0.000115603967    -1.178901934061     0.125742899858    12.000000000000
         C           -0.014409396033     1.193666065939     0.197545899858    12.000000000000
         C           -1.463388396033     0.806203065939    -0.066067100142    12.000000000000
         C            2.253234603967    -0.013475934061     0.063967899858    12.000000000000
         H            0.740919603967     0.053423065939    -1.466977100142     1.007825032230
         H            0.129009603967    -2.099165934061    -0.446709100142     1.007825032230
         H            0.200602603967    -1.375564934061     1.181852899858     1.007825032230
         H            0.274288203967     2.322595765939    -0.362352500142     1.007825032230
         H            0.172865603967     1.293082065939     1.272525899858     1.007825032230
         H           -2.001015396033    -1.057474934061     0.825246899858     1.007825032230
         H           -1.899885396033    -1.134089934061    -0.808790100142     1.007825032230
         H           -2.189168396033     1.191585065939     0.650838899858     1.007825032230
         H           -1.784130396033     1.064383065939    -1.076290100142     1.007825032230
         H            2.764806603967    -0.891089934061    -0.339582100142     1.007825032230
         H            2.777108603967     0.873904065939    -0.298151100142     1.007825032230
         H            2.333285603967    -0.036384934061     1.155007899858     1.007825032230

  Basis Set: AUG-CC-PVTZ
    Blend: AUG-CC-PVTZ
  Basis Set: (AUG-CC-PVTZ AUX)
    Blend: AUG-CC-PVTZ-JKFIT
	 Reference Energy          =    -250.6359922145924770 [Eh]
	 Singles Energy            =      -0.0000000000000000 [Eh]
	 Same-Spin Energy          =      -0.2613386561183428 [Eh]
	 Opposite-Spin Energy      =      -0.9392419755167208 [Eh]
	 Correlation Energy        =      -1.2005806316350638 [Eh]
	 Total Energy              =    -251.8365728462275399 [Eh]

	 ================> DF-SCS-MP2 Energies <==================
	-----------------------------------------------------------
	 SCS Same-Spin Scale       =       0.3333333333333333 [-]
	 SCS Opposite-Spin Scale   =       1.2000000000000000 [-]
	 SCS Same-Spin Energy      =      -0.0871128853727809 [Eh]
	 SCS Opposite-Spin Energy  =      -1.1270903706200650 [Eh]
	 SCS Correlation Energy    =      -1.2142032559928460 [Eh]
	 SCS Total Energy          =    -251.8501954705853336 [Eh]
	-----------------------------------------------------------

  Dipole Moment: [D]
     X:    -4.2205      Y:    -1.8936      Z:    -0.0219     Total:     4.6258

*** Psi4 exiting successfully. Buy a developer a beer!
