                               Psi4 1.4a3.dev225

  ==> Input File <==

--------------------------------------------------------------------------
#psi4
#
memory 32 gb

molecule  {
1 1
  N       -1.4684160    -0.7256290     0.0168660
  C        0.7789870     0.0252000    -0.3750600
  C       -0.0143940    -1.1774380     0.1210740
  C       -0.0289190     1.1951300     0.1928770
  C       -1.4163692     0.7993076    -0.1581201
  C        2.2387250    -0.0120120     0.0592990
  H        0.7264100     0.0548870    -1.4716460
  H        0.1145000    -2.0977020    -0.4513780
  H        0.1860930    -1.3741010     1.1771840
  H        0.2151160     2.1494100    -0.2804030
  H        0.1583560     1.2945460     1.2678570
  H       -2.0155250    -1.0560110     0.8205780
  H       -1.9143950    -1.1326260    -0.8134590
  H       -2.2036780     1.1930490     0.6461700
  H       -1.7986400     1.0658470    -1.0809590
  H        2.7502970    -0.8896260    -0.3442510
  H        2.7625990     0.8753680    -0.3028200
  H        2.3187760    -0.0349210     1.1503390
units angstrom
no_reorient  #important for SAPT in psi4, default
symmetry c1  #important for SAPT in psi4, default
}

set PROPERTIES_ORIGIN ["COM"]
properties('MP2/aug-cc-pvtz', properties = ['dipole'])
--------------------------------------------------------------------------

    Molecular point group: c1
  Charge       = 1
  Multiplicity = 1
  Basis Set: AUG-CC-PVTZ
    Blend: AUG-CC-PVTZ
  Basis Set: (AUG-CC-PVTZ AUX)
    Blend: AUG-CC-PVTZ-JKFIT

    Orbital Energies [Eh]
    ---------------------

    Doubly Occupied:

       1A    -15.865593     2A    -11.466490     3A    -11.459612
       4A    -11.403114     5A    -11.395658     6A    -11.359318
       7A     -1.494084     8A     -1.270017     9A     -1.196373
      10A     -1.099421    11A     -1.024955    12A     -0.975418
      13A     -0.934736    14A     -0.894335    15A     -0.831850
      16A     -0.794272    17A     -0.747428    18A     -0.737145
      19A     -0.712486    20A     -0.711126    21A     -0.677820
      22A     -0.653646    23A     -0.640399    24A     -0.623044

  @DF-RHF Final Energy:  -250.64318447087149

   => Energetics <=

    Nuclear Repulsion Energy =            266.6313141541327809
    One-Electron Energy =                -856.6123156769609750
    Two-Electron Energy =                 339.3378170519566197
    Total Energy =                       -250.6431844708715175
  Basis Set: (AUG-CC-PVTZ AUX)
    Blend: AUG-CC-PVTZ-RI
    Molecular point group: c1

    Geometry (in Angstrom), charge = 1, multiplicity = 1:

       Center              X                  Y                   Z               Mass
    ------------   -----------------  -----------------  -----------------  -----------------
         N           -1.461959333068    -0.723883423605     0.032700367809    14.003074004430
         C            0.785443666932     0.026945576395    -0.359225632191    12.000000000000
         C           -0.007937333068    -1.175692423605     0.136908367809    12.000000000000
         C           -0.022462333068     1.196875576395     0.208711367809    12.000000000000
         C           -1.409912533068     0.801053176395    -0.142285732191    12.000000000000
         C            2.245181666932    -0.010266423605     0.075133367809    12.000000000000
         H            0.732866666932     0.056632576395    -1.455811632191     1.007825032230
         H            0.120956666932    -2.095956423605    -0.435543632191     1.007825032230
         H            0.192549666932    -1.372355423605     1.193018367809     1.007825032230
         H            0.221572666932     2.151155576395    -0.264568632191     1.007825032230
         H            0.164812666932     1.296291576395     1.283691367809     1.007825032230
         H           -2.009068333068    -1.054265423605     0.836412367809     1.007825032230
         H           -1.907938333068    -1.130880423605    -0.797624632191     1.007825032230
         H           -2.197221333068     1.194794576395     0.662004367809     1.007825032230
         H           -1.792183333068     1.067592576395    -1.065124632191     1.007825032230
         H            2.756753666932    -0.887880423605    -0.328416632191     1.007825032230
         H            2.769055666932     0.877113576395    -0.286985632191     1.007825032230
         H            2.325232666932    -0.033175423605     1.166173367809     1.007825032230

  Basis Set: AUG-CC-PVTZ
    Blend: AUG-CC-PVTZ
  Basis Set: (AUG-CC-PVTZ AUX)
    Blend: AUG-CC-PVTZ-JKFIT
	 Reference Energy          =    -250.6431844708714891 [Eh]
	 Singles Energy            =      -0.0000000000000000 [Eh]
	 Same-Spin Energy          =      -0.2617974424052900 [Eh]
	 Opposite-Spin Energy      =      -0.9384152639409189 [Eh]
	 Correlation Energy        =      -1.2002127063462089 [Eh]
	 Total Energy              =    -251.8433971772176960 [Eh]

	 ================> DF-SCS-MP2 Energies <==================
	-----------------------------------------------------------
	 SCS Same-Spin Scale       =       0.3333333333333333 [-]
	 SCS Opposite-Spin Scale   =       1.2000000000000000 [-]
	 SCS Same-Spin Energy      =      -0.0872658141350967 [Eh]
	 SCS Opposite-Spin Energy  =      -1.1260983167291025 [Eh]
	 SCS Correlation Energy    =      -1.2133641308641991 [Eh]
	 SCS Total Energy          =    -251.8565486017356818 [Eh]
	-----------------------------------------------------------

  Dipole Moment: [D]
     X:    -4.2055      Y:    -1.8540      Z:    -0.0283     Total:     4.5961

*** Psi4 exiting successfully. Buy a developer a beer!
