                               Psi4 1.4a3.dev225

  ==> Input File <==

--------------------------------------------------------------------------
#psi4
#
memory 32 gb

molecule  {
1 1
  N       -1.4684160    -0.7256290     0.0168660
  C        0.7789870     0.0252000    -0.3750600
  C       -0.0143940    -1.1774380     0.1210740
  C       -0.0289190     1.1951300     0.1928770
  C       -1.4778980     0.8076670    -0.0707360
  C        2.2387250    -0.0120120     0.0592990
  H        0.7264100     0.0548870    -1.4716460
  H        0.1145000    -2.0977020    -0.4513780
  H        0.1860930    -1.3741010     1.1771840
  H        0.2195823     2.1668750    -0.2890648
  H        0.1583560     1.2945460     1.2678570
  H       -2.0155250    -1.0560110     0.8205780
  H       -1.9143950    -1.1326260    -0.8134590
  H       -2.2036780     1.1930490     0.6461700
  H       -1.7986400     1.0658470    -1.0809590
  H        2.7502970    -0.8896260    -0.3442510
  H        2.7625990     0.8753680    -0.3028200
  H        2.3187760    -0.0349210     1.1503390
units angstrom
no_reorient  #important for SAPT in psi4, default
symmetry c1  #important for SAPT in psi4, default
}

set PROPERTIES_ORIGIN ["COM"]
properties('MP2/aug-cc-pvtz', properties = ['dipole'])
--------------------------------------------------------------------------

    Molecular point group: c1
  Charge       = 1
  Multiplicity = 1
  Basis Set: AUG-CC-PVTZ
    Blend: AUG-CC-PVTZ
  Basis Set: (AUG-CC-PVTZ AUX)
    Blend: AUG-CC-PVTZ-JKFIT

    Orbital Energies [Eh]
    ---------------------

    Doubly Occupied:

       1A    -15.865677     2A    -11.463916     3A    -11.460136
       4A    -11.403171     5A    -11.398872     6A    -11.359592
       7A     -1.492785     8A     -1.264724     9A     -1.193747
      10A     -1.098979    11A     -1.022664    12A     -0.974843
      13A     -0.934475    14A     -0.892261    15A     -0.827481
      16A     -0.791596    17A     -0.753199    18A     -0.739496
      19A     -0.711762    20A     -0.702413    21A     -0.678414
      22A     -0.654778    23A     -0.638264    24A     -0.629464

  @DF-RHF Final Energy:  -250.65631743114338

   => Energetics <=

    Nuclear Repulsion Energy =            265.7859813914492406
    One-Electron Energy =                -854.9791787068342046
    Two-Electron Energy =                 338.5368798842415572
    Total Energy =                       -250.6563174311434068
  Basis Set: (AUG-CC-PVTZ AUX)
    Blend: AUG-CC-PVTZ-RI
    Molecular point group: c1

    Geometry (in Angstrom), charge = 1, multiplicity = 1:

       Center              X                  Y                   Z               Mass
    ------------   -----------------  -----------------  -----------------  -----------------
         N           -1.453435870354    -0.725252977704     0.020622363576    14.003074004430
         C            0.793967129646     0.025576022296    -0.371303636424    12.000000000000
         C            0.000586129646    -1.177061977704     0.124830363576    12.000000000000
         C           -0.013938870354     1.195506022296     0.196633363576    12.000000000000
         C           -1.462917870354     0.808043022296    -0.066979636424    12.000000000000
         C            2.253705129646    -0.011635977704     0.063055363576    12.000000000000
         H            0.741390129646     0.055263022296    -1.467889636424     1.007825032230
         H            0.129480129646    -2.097325977704    -0.447621636424     1.007825032230
         H            0.201073129646    -1.373724977704     1.180940363576     1.007825032230
         H            0.234562429646     2.167251022296    -0.285308436424     1.007825032230
         H            0.173336129646     1.294922022296     1.271613363576     1.007825032230
         H           -2.000544870354    -1.055634977704     0.824334363576     1.007825032230
         H           -1.899414870354    -1.132249977704    -0.809702636424     1.007825032230
         H           -2.188697870354     1.193425022296     0.649926363576     1.007825032230
         H           -1.783659870354     1.066223022296    -1.077202636424     1.007825032230
         H            2.765277129646    -0.889249977704    -0.340494636424     1.007825032230
         H            2.777579129646     0.875744022296    -0.299063636424     1.007825032230
         H            2.333756129646    -0.034544977704     1.154095363576     1.007825032230

  Basis Set: AUG-CC-PVTZ
    Blend: AUG-CC-PVTZ
  Basis Set: (AUG-CC-PVTZ AUX)
    Blend: AUG-CC-PVTZ-JKFIT
	 Reference Energy          =    -250.6563174311433784 [Eh]
	 Singles Energy            =      -0.0000000000000000 [Eh]
	 Same-Spin Energy          =      -0.2611169633331158 [Eh]
	 Opposite-Spin Energy      =      -0.9375561857985730 [Eh]
	 Correlation Energy        =      -1.1986731491316889 [Eh]
	 Total Energy              =    -251.8549905802750573 [Eh]

	 ================> DF-SCS-MP2 Energies <==================
	-----------------------------------------------------------
	 SCS Same-Spin Scale       =       0.3333333333333333 [-]
	 SCS Opposite-Spin Scale   =       1.2000000000000000 [-]
	 SCS Same-Spin Energy      =      -0.0870389877777053 [Eh]
	 SCS Opposite-Spin Energy  =      -1.1250674229582875 [Eh]
	 SCS Correlation Energy    =      -1.2121064107359929 [Eh]
	 SCS Total Energy          =    -251.8684238418793768 [Eh]
	-----------------------------------------------------------

  Dipole Moment: [D]
     X:    -4.2204      Y:    -1.8689      Z:    -0.0167     Total:     4.6157

*** Psi4 exiting successfully. Buy a developer a beer!
