                               Psi4 1.4a3.dev225

  ==> Input File <==

--------------------------------------------------------------------------
#psi4
#
memory 32 gb

molecule  {
1 1
  N       -1.4684160    -0.7256290     0.0168660
  C        0.7826444     0.0025390    -0.3884789
  C       -0.0143940    -1.1774380     0.1210740
  C       -0.0289190     1.1951300     0.1928770
  C       -1.4778980     0.8076670    -0.0707360
  C        2.2387250    -0.0120120     0.0592990
  H        0.7264100     0.0548870    -1.4716460
  H        0.1145000    -2.0977020    -0.4513780
  H        0.1860930    -1.3741010     1.1771840
  H        0.2151160     2.1494100    -0.2804030
  H        0.1583560     1.2945460     1.2678570
  H       -2.0155250    -1.0560110     0.8205780
  H       -1.9143950    -1.1326260    -0.8134590
  H       -2.2036780     1.1930490     0.6461700
  H       -1.7986400     1.0658470    -1.0809590
  H        2.7502970    -0.8896260    -0.3442510
  H        2.7625990     0.8753680    -0.3028200
  H        2.3187760    -0.0349210     1.1503390
units angstrom
no_reorient  #important for SAPT in psi4, default
symmetry c1  #important for SAPT in psi4, default
}

set PROPERTIES_ORIGIN ["COM"]
properties('MP2/aug-cc-pvtz', properties = ['dipole'])
--------------------------------------------------------------------------

    Molecular point group: c1
  Charge       = 1
  Multiplicity = 1
  Basis Set: AUG-CC-PVTZ
    Blend: AUG-CC-PVTZ
  Basis Set: (AUG-CC-PVTZ AUX)
    Blend: AUG-CC-PVTZ-JKFIT

    Orbital Energies [Eh]
    ---------------------

    Doubly Occupied:

       1A    -15.865731     2A    -11.463419     3A    -11.460072
       4A    -11.402598     5A    -11.397212     6A    -11.359625
       7A     -1.492783     8A     -1.263259     9A     -1.194580
      10A     -1.099189    11A     -1.021436    12A     -0.976193
      13A     -0.935597    14A     -0.893053    15A     -0.828160
      16A     -0.791728    17A     -0.753385    18A     -0.738882
      19A     -0.711687    20A     -0.703163    21A     -0.679292
      22A     -0.656844    23A     -0.643131    24A     -0.623117

  @DF-RHF Final Energy:  -250.65634751069774

   => Energetics <=

    Nuclear Repulsion Energy =            265.7587560891581688
    One-Electron Energy =                -854.9219380765207461
    Two-Electron Energy =                 338.5068344766648352
    Total Energy =                       -250.6563475106977421
  Basis Set: (AUG-CC-PVTZ AUX)
    Blend: AUG-CC-PVTZ-RI
    Molecular point group: c1

    Geometry (in Angstrom), charge = 1, multiplicity = 1:

       Center              X                  Y                   Z               Mass
    ------------   -----------------  -----------------  -----------------  -----------------
         N           -1.453893349276    -0.721890099203     0.022391266864    14.003074004430
         C            0.797167050724     0.006277900797    -0.382953633136    12.000000000000
         C            0.000128650724    -1.173699099203     0.126599266864    12.000000000000
         C           -0.014396349276     1.198868900797     0.198402266864    12.000000000000
         C           -1.463375349276     0.811405900797    -0.065210733136    12.000000000000
         C            2.253247650724    -0.008273099203     0.064824266864    12.000000000000
         H            0.740932650724     0.058625900797    -1.466120733136     1.007825032230
         H            0.129022650724    -2.093963099203    -0.445852733136     1.007825032230
         H            0.200615650724    -1.370362099203     1.182709266864     1.007825032230
         H            0.229638650724     2.153148900797    -0.274877733136     1.007825032230
         H            0.172878650724     1.298284900797     1.273382266864     1.007825032230
         H           -2.001002349276    -1.052272099203     0.826103266864     1.007825032230
         H           -1.899872349276    -1.128887099203    -0.807933733136     1.007825032230
         H           -2.189155349276     1.196787900797     0.651695266864     1.007825032230
         H           -1.784117349276     1.069585900797    -1.075433733136     1.007825032230
         H            2.764819650724    -0.885887099203    -0.338725733136     1.007825032230
         H            2.777121650724     0.879106900797    -0.297294733136     1.007825032230
         H            2.333298650724    -0.031182099203     1.155864266864     1.007825032230

  Basis Set: AUG-CC-PVTZ
    Blend: AUG-CC-PVTZ
  Basis Set: (AUG-CC-PVTZ AUX)
    Blend: AUG-CC-PVTZ-JKFIT
	 Reference Energy          =    -250.6563475106977421 [Eh]
	 Singles Energy            =      -0.0000000000000000 [Eh]
	 Same-Spin Energy          =      -0.2610673101428496 [Eh]
	 Opposite-Spin Energy      =      -0.9374062182072724 [Eh]
	 Correlation Energy        =      -1.1984735283501220 [Eh]
	 Total Energy              =    -251.8548210390478630 [Eh]

	 ================> DF-SCS-MP2 Energies <==================
	-----------------------------------------------------------
	 SCS Same-Spin Scale       =       0.3333333333333333 [-]
	 SCS Opposite-Spin Scale   =       1.2000000000000000 [-]
	 SCS Same-Spin Energy      =      -0.0870224367142832 [Eh]
	 SCS Opposite-Spin Energy  =      -1.1248874618487268 [Eh]
	 SCS Correlation Energy    =      -1.2119098985630099 [Eh]
	 SCS Total Energy          =    -251.8682574092607638 [Eh]
	-----------------------------------------------------------

  Dipole Moment: [D]
     X:    -4.2167      Y:    -1.8597      Z:    -0.0115     Total:     4.6086

*** Psi4 exiting successfully. Buy a developer a beer!
