                               Psi4 1.4a3.dev225

  ==> Input File <==

--------------------------------------------------------------------------
#psi4
#
memory 32 gb

molecule  {
1 1
  N       -1.4684160    -0.7256290     0.0168660
  C        0.7789870     0.0252000    -0.3750600
  C       -0.0143940    -1.1774380     0.1210740
  C       -0.0289190     1.1951300     0.1928770
  C       -1.4778980     0.8076670    -0.0707360
  C        2.2387250    -0.0120120     0.0592990
  H        0.7264100     0.0548870    -1.4716460
  H        0.1145000    -2.0977020    -0.4513780
  H        0.1860930    -1.3741010     1.1771840
  H        0.2151160     2.1494100    -0.2804030
  H        0.1583560     1.2945460     1.2678570
  H       -2.0155250    -1.0560110     0.8205780
  H       -1.9143950    -1.1326260    -0.8134590
  H       -2.1903673     1.1859811     0.6330220
  H       -1.7986400     1.0658470    -1.0809590
  H        2.7502970    -0.8896260    -0.3442510
  H        2.7625990     0.8753680    -0.3028200
  H        2.3187760    -0.0349210     1.1503390
units angstrom
no_reorient  #important for SAPT in psi4, default
symmetry c1  #important for SAPT in psi4, default
}

set PROPERTIES_ORIGIN ["COM"]
properties('MP2/aug-cc-pvtz', properties = ['dipole'])
--------------------------------------------------------------------------

    Molecular point group: c1
  Charge       = 1
  Multiplicity = 1
  Basis Set: AUG-CC-PVTZ
    Blend: AUG-CC-PVTZ
  Basis Set: (AUG-CC-PVTZ AUX)
    Blend: AUG-CC-PVTZ-JKFIT

    Orbital Energies [Eh]
    ---------------------

    Doubly Occupied:

       1A    -15.865544     2A    -11.461709     3A    -11.460004
       4A    -11.403002     5A    -11.396625     6A    -11.359541
       7A     -1.492765     8A     -1.265006     9A     -1.195128
      10A     -1.098917    11A     -1.025194    12A     -0.975078
      13A     -0.935105    14A     -0.893284    15A     -0.827735
      16A     -0.792927    17A     -0.755048    18A     -0.739939
      19A     -0.711880    20A     -0.703595    21A     -0.680264
      22A     -0.654798    23A     -0.638548    24A     -0.629594

  @DF-RHF Final Energy:  -250.65699534576069

   => Energetics <=

    Nuclear Repulsion Energy =            265.9797767598730047
    One-Electron Energy =                -855.3510823172615574
    Two-Electron Energy =                 338.7143102116278328
    Total Energy =                       -250.6569953457606630
  Basis Set: (AUG-CC-PVTZ AUX)
    Blend: AUG-CC-PVTZ-RI
    Molecular point group: c1

    Geometry (in Angstrom), charge = 1, multiplicity = 1:

       Center              X                  Y                   Z               Mass
    ------------   -----------------  -----------------  -----------------  -----------------
         N           -1.453539400214    -0.724965803028     0.020674877670    14.003074004430
         C            0.793863599786     0.025863196972    -0.371251122330    12.000000000000
         C            0.000482599786    -1.176774803028     0.124882877670    12.000000000000
         C           -0.014042400214     1.195793196972     0.196685877670    12.000000000000
         C           -1.463021400214     0.808330196972    -0.066927122330    12.000000000000
         C            2.253601599786    -0.011348803028     0.063107877670    12.000000000000
         H            0.741286599786     0.055550196972    -1.467837122330     1.007825032230
         H            0.129376599786    -2.097038803028    -0.447569122330     1.007825032230
         H            0.200969599786    -1.373437803028     1.180992877670     1.007825032230
         H            0.229992599786     2.150073196972    -0.276594122330     1.007825032230
         H            0.173232599786     1.295209196972     1.271665877670     1.007825032230
         H           -2.000648400214    -1.055347803028     0.824386877670     1.007825032230
         H           -1.899518400214    -1.131962803028    -0.809650122330     1.007825032230
         H           -2.175490700214     1.186644296972     0.636830877670     1.007825032230
         H           -1.783763400214     1.066510196972    -1.077150122330     1.007825032230
         H            2.765173599786    -0.888962803028    -0.340442122330     1.007825032230
         H            2.777475599786     0.876031196972    -0.299011122330     1.007825032230
         H            2.333652599786    -0.034257803028     1.154147877670     1.007825032230

  Basis Set: AUG-CC-PVTZ
    Blend: AUG-CC-PVTZ
  Basis Set: (AUG-CC-PVTZ AUX)
    Blend: AUG-CC-PVTZ-JKFIT
	 Reference Energy          =    -250.6569953457606914 [Eh]
	 Singles Energy            =      -0.0000000000000000 [Eh]
	 Same-Spin Energy          =      -0.2610706343470683 [Eh]
	 Opposite-Spin Energy      =      -0.9372552232589269 [Eh]
	 Correlation Energy        =      -1.1983258576059952 [Eh]
	 Total Energy              =    -251.8553212033666853 [Eh]

	 ================> DF-SCS-MP2 Energies <==================
	-----------------------------------------------------------
	 SCS Same-Spin Scale       =       0.3333333333333333 [-]
	 SCS Opposite-Spin Scale   =       1.2000000000000000 [-]
	 SCS Same-Spin Energy      =      -0.0870235447823561 [Eh]
	 SCS Opposite-Spin Energy  =      -1.1247062679107123 [Eh]
	 SCS Correlation Energy    =      -1.2117298126930685 [Eh]
	 SCS Total Energy          =    -251.8687251584537705 [Eh]
	-----------------------------------------------------------

  Dipole Moment: [D]
     X:    -4.2231      Y:    -1.8679      Z:    -0.0176     Total:     4.6177

*** Psi4 exiting successfully. Buy a developer a beer!
