                               Psi4 1.4a3.dev225

  ==> Input File <==

--------------------------------------------------------------------------
#psi4
#
memory 32 gb

molecule  {
1 1
  N       -1.4684160    -0.7256290     0.0168660
  C        0.7789870     0.0252000    -0.3750600
  C       -0.0143940    -1.1774380     0.1210740
  C       -0.0289190     1.1951300     0.1928770
  C       -1.4778980     0.8076670    -0.0707360
  C        2.2387250    -0.0120120     0.0592990
  H        0.7264100     0.0548870    -1.4716460
  H        0.1145000    -2.0977020    -0.4513780
  H        0.1860930    -1.3741010     1.1771840
  H        0.2151160     2.1494100    -0.2804030
  H        0.1583560     1.2945460     1.2678570
  H       -2.0155250    -1.0560110     0.8205780
  H       -1.9143950    -1.1326260    -0.8134590
  H       -2.2036780     1.1930490     0.6461700
  H       -1.7986400     1.0658470    -1.0809590
  H        2.6566928    -0.7290457    -0.2704119
  H        2.7625990     0.8753680    -0.3028200
  H        2.3187760    -0.0349210     1.1503390
units angstrom
no_reorient  #important for SAPT in psi4, default
symmetry c1  #important for SAPT in psi4, default
}

set PROPERTIES_ORIGIN ["COM"]
properties('MP2/aug-cc-pvtz', properties = ['dipole'])
--------------------------------------------------------------------------

    Molecular point group: c1
  Charge       = 1
  Multiplicity = 1
  Basis Set: AUG-CC-PVTZ
    Blend: AUG-CC-PVTZ
  Basis Set: (AUG-CC-PVTZ AUX)
    Blend: AUG-CC-PVTZ-JKFIT

    Orbital Energies [Eh]
    ---------------------

    Doubly Occupied:

       1A    -15.865437     2A    -11.463218     3A    -11.460006
       4A    -11.402003     5A    -11.395881     6A    -11.335788
       7A     -1.492465     8A     -1.266555     9A     -1.195372
      10A     -1.116976    11A     -1.026768    12A     -0.977109
      13A     -0.937884    14A     -0.893727    15A     -0.829764
      16A     -0.792854    17A     -0.761439    18A     -0.750318
      19A     -0.719393    20A     -0.703678    21A     -0.679606
      22A     -0.655982    23A     -0.641322    24A     -0.636616

  @DF-RHF Final Energy:  -250.62259011305943

   => Energetics <=

    Nuclear Repulsion Energy =            266.8624753749713250
    One-Electron Energy =                -856.9698104508916003
    Two-Electron Energy =                 339.4847449628608160
    Total Energy =                       -250.6225901130594025
  Basis Set: (AUG-CC-PVTZ AUX)
    Blend: AUG-CC-PVTZ-RI
    Molecular point group: c1

    Geometry (in Angstrom), charge = 1, multiplicity = 1:

       Center              X                  Y                   Z               Mass
    ------------   -----------------  -----------------  -----------------  -----------------
         N           -1.452287886867    -0.726928241937     0.019656633098    14.003074004430
         C            0.795115113133     0.023900758063    -0.372269366902    12.000000000000
         C            0.001734113133    -1.178737241937     0.123864633098    12.000000000000
         C           -0.012790886867     1.193830758063     0.195667633098    12.000000000000
         C           -1.461769886867     0.806367758063    -0.067945366902    12.000000000000
         C            2.254853113133    -0.013311241937     0.062089633098    12.000000000000
         H            0.742538113133     0.053587758063    -1.468855366902     1.007825032230
         H            0.130628113133    -2.099001241937    -0.448587366902     1.007825032230
         H            0.202221113133    -1.375400241937     1.179974633098     1.007825032230
         H            0.231244113133     2.148110758063    -0.277612366902     1.007825032230
         H            0.174484113133     1.293246758063     1.270647633098     1.007825032230
         H           -1.999396886867    -1.057310241937     0.823368633098     1.007825032230
         H           -1.898266886867    -1.133925241937    -0.810668366902     1.007825032230
         H           -2.187549886867     1.191749758063     0.648960633098     1.007825032230
         H           -1.782511886867     1.064547758063    -1.078168366902     1.007825032230
         H            2.672820913133    -0.730344941937    -0.267621266902     1.007825032230
         H            2.778727113133     0.874068758063    -0.300029366902     1.007825032230
         H            2.334904113133    -0.036220241937     1.153129633098     1.007825032230

  Basis Set: AUG-CC-PVTZ
    Blend: AUG-CC-PVTZ
  Basis Set: (AUG-CC-PVTZ AUX)
    Blend: AUG-CC-PVTZ-JKFIT
	 Reference Energy          =    -250.6225901130594309 [Eh]
	 Singles Energy            =      -0.0000000000000000 [Eh]
	 Same-Spin Energy          =      -0.2612367109347948 [Eh]
	 Opposite-Spin Energy      =      -0.9368012897897197 [Eh]
	 Correlation Energy        =      -1.1980380007245146 [Eh]
	 Total Energy              =    -251.8206281137839539 [Eh]

	 ================> DF-SCS-MP2 Energies <==================
	-----------------------------------------------------------
	 SCS Same-Spin Scale       =       0.3333333333333333 [-]
	 SCS Opposite-Spin Scale   =       1.2000000000000000 [-]
	 SCS Same-Spin Energy      =      -0.0870789036449316 [Eh]
	 SCS Opposite-Spin Energy  =      -1.1241615477476636 [Eh]
	 SCS Correlation Energy    =      -1.2112404513925952 [Eh]
	 SCS Total Energy          =    -251.8338305644520290 [Eh]
	-----------------------------------------------------------

  Dipole Moment: [D]
     X:    -4.1890      Y:    -1.9046      Z:    -0.0268     Total:     4.6017

*** Psi4 exiting successfully. Buy a developer a beer!
