                               Psi4 1.4a3.dev225

  ==> Input File <==

--------------------------------------------------------------------------
#psi4
#
memory 32 gb

molecule  {
1 1
  N       -1.4684160    -0.7256290     0.0168660
  C        0.7789870     0.0252000    -0.3750600
  C       -0.0143940    -1.1774380     0.1210740
  C       -0.0289190     1.1951300     0.1928770
  C       -1.4791328     1.0073376    -0.0821438
  C        2.2387250    -0.0120120     0.0592990
  H        0.7264100     0.0548870    -1.4716460
  H        0.1145000    -2.0977020    -0.4513780
  H        0.1860930    -1.3741010     1.1771840
  H        0.2151160     2.1494100    -0.2804030
  H        0.1583560     1.2945460     1.2678570
  H       -2.0155250    -1.0560110     0.8205780
  H       -1.9143950    -1.1326260    -0.8134590
  H       -2.2036780     1.1930490     0.6461700
  H       -1.7986400     1.0658470    -1.0809590
  H        2.7502970    -0.8896260    -0.3442510
  H        2.7625990     0.8753680    -0.3028200
  H        2.3187760    -0.0349210     1.1503390
units angstrom
no_reorient  #important for SAPT in psi4, default
symmetry c1  #important for SAPT in psi4, default
}

set PROPERTIES_ORIGIN ["COM"]
properties('MP2/aug-cc-pvtz', properties = ['dipole'])
--------------------------------------------------------------------------

    Molecular point group: c1
  Charge       = 1
  Multiplicity = 1
  Basis Set: AUG-CC-PVTZ
    Blend: AUG-CC-PVTZ
  Basis Set: (AUG-CC-PVTZ AUX)
    Blend: AUG-CC-PVTZ-JKFIT

    Orbital Energies [Eh]
    ---------------------

    Doubly Occupied:

       1A    -15.839580     2A    -11.480853     3A    -11.451875
       4A    -11.405218     5A    -11.401754     6A    -11.360282
       7A     -1.451953     8A     -1.265508     9A     -1.200923
      10A     -1.092375    11A     -1.032002    12A     -0.964590
      13A     -0.918627    14A     -0.867203    15A     -0.832099
      16A     -0.810193    17A     -0.758697    18A     -0.713382
      19A     -0.710648    20A     -0.700726    21A     -0.683605
      22A     -0.659821    23A     -0.639948    24A     -0.634646

  @DF-RHF Final Energy:  -250.63453192675706

   => Energetics <=

    Nuclear Repulsion Energy =            263.7031466593929281
    One-Electron Energy =                -850.9223402898469431
    Two-Electron Energy =                 336.5846617036969519
    Total Energy =                       -250.6345319267570630
  Basis Set: (AUG-CC-PVTZ AUX)
    Blend: AUG-CC-PVTZ-RI
    Molecular point group: c1

    Geometry (in Angstrom), charge = 1, multiplicity = 1:

       Center              X                  Y                   Z               Mass
    ------------   -----------------  -----------------  -----------------  -----------------
         N           -1.453211485594    -0.752878170722     0.022110964331    14.003074004430
         C            0.794191514406    -0.002049170722    -0.369815035669    12.000000000000
         C            0.000810514406    -1.204687170722     0.126318964331    12.000000000000
         C           -0.013714485594     1.167880829278     0.198121964331    12.000000000000
         C           -1.463928285594     0.980088429278    -0.076898835669    12.000000000000
         C            2.253929514406    -0.039261170722     0.064543964331    12.000000000000
         H            0.741614514406     0.027637829278    -1.466401035669     1.007825032230
         H            0.129704514406    -2.124951170722    -0.446133035669     1.007825032230
         H            0.201297514406    -1.401350170722     1.182428964331     1.007825032230
         H            0.230320514406     2.122160829278    -0.275158035669     1.007825032230
         H            0.173560514406     1.267296829278     1.273101964331     1.007825032230
         H           -2.000320485594    -1.083260170722     0.825822964331     1.007825032230
         H           -1.899190485594    -1.159875170722    -0.808214035669     1.007825032230
         H           -2.188473485594     1.165799829278     0.651414964331     1.007825032230
         H           -1.783435485594     1.038597829278    -1.075714035669     1.007825032230
         H            2.765501514406    -0.916875170722    -0.339006035669     1.007825032230
         H            2.777803514406     0.848118829278    -0.297575035669     1.007825032230
         H            2.333980514406    -0.062170170722     1.155583964331     1.007825032230

  Basis Set: AUG-CC-PVTZ
    Blend: AUG-CC-PVTZ
  Basis Set: (AUG-CC-PVTZ AUX)
    Blend: AUG-CC-PVTZ-JKFIT
	 Reference Energy          =    -250.6345319267570630 [Eh]
	 Singles Energy            =      -0.0000000000000000 [Eh]
	 Same-Spin Energy          =      -0.2611108416540032 [Eh]
	 Opposite-Spin Energy      =      -0.9385425549361356 [Eh]
	 Correlation Energy        =      -1.1996533965901388 [Eh]
	 Total Energy              =    -251.8341853233472136 [Eh]

	 ================> DF-SCS-MP2 Energies <==================
	-----------------------------------------------------------
	 SCS Same-Spin Scale       =       0.3333333333333333 [-]
	 SCS Opposite-Spin Scale   =       1.2000000000000000 [-]
	 SCS Same-Spin Energy      =      -0.0870369472180011 [Eh]
	 SCS Opposite-Spin Energy  =      -1.1262510659233627 [Eh]
	 SCS Correlation Energy    =      -1.2132880131413637 [Eh]
	 SCS Total Energy          =    -251.8478199398984145 [Eh]
	-----------------------------------------------------------

  Dipole Moment: [D]
     X:    -4.1435      Y:    -1.4428      Z:    -0.0445     Total:     4.3877

*** Psi4 exiting successfully. Buy a developer a beer!
