                               Psi4 1.4a3.dev225

  ==> Input File <==

--------------------------------------------------------------------------
#psi4
#
memory 32 gb

molecule  {
1 1
  N       -1.4684160    -0.7256290     0.0168660
  C        0.7789870     0.0252000    -0.3750600
  C       -0.0143940    -1.1774380     0.1210740
  C       -0.0289190     1.1951300     0.1928770
  C       -1.4778980     0.8076670    -0.0707360
  C        2.2387250    -0.0120120     0.0592990
  H        0.7359847     0.0494807    -1.2719485
  H        0.1145000    -2.0977020    -0.4513780
  H        0.1860930    -1.3741010     1.1771840
  H        0.2151160     2.1494100    -0.2804030
  H        0.1583560     1.2945460     1.2678570
  H       -2.0155250    -1.0560110     0.8205780
  H       -1.9143950    -1.1326260    -0.8134590
  H       -2.2036780     1.1930490     0.6461700
  H       -1.7986400     1.0658470    -1.0809590
  H        2.7502970    -0.8896260    -0.3442510
  H        2.7625990     0.8753680    -0.3028200
  H        2.3187760    -0.0349210     1.1503390
units angstrom
no_reorient  #important for SAPT in psi4, default
symmetry c1  #important for SAPT in psi4, default
}

set PROPERTIES_ORIGIN ["COM"]
properties('MP2/aug-cc-pvtz', properties = ['dipole'])
--------------------------------------------------------------------------

    Molecular point group: c1
  Charge       = 1
  Multiplicity = 1
  Basis Set: AUG-CC-PVTZ
    Blend: AUG-CC-PVTZ
  Basis Set: (AUG-CC-PVTZ AUX)
    Blend: AUG-CC-PVTZ-JKFIT

    Orbital Energies [Eh]
    ---------------------

    Doubly Occupied:

       1A    -15.865580     2A    -11.463918     3A    -11.458889
       4A    -11.395544     5A    -11.378590     6A    -11.358188
       7A     -1.492996     8A     -1.274197     9A     -1.195004
      10A     -1.099136    11A     -1.024225    12A     -0.994272
      13A     -0.943883    14A     -0.897013    15A     -0.836096
      16A     -0.793097    17A     -0.753494    18A     -0.739643
      19A     -0.714862    20A     -0.703589    21A     -0.679462
      22A     -0.655818    23A     -0.652745    24A     -0.629598

  @DF-RHF Final Energy:  -250.62427043538955

   => Energetics <=

    Nuclear Repulsion Energy =            267.0032012653174434
    One-Electron Energy =                -857.2552653339796507
    Two-Electron Energy =                 339.6277936332726313
    Total Energy =                       -250.6242704353895761
  Basis Set: (AUG-CC-PVTZ AUX)
    Blend: AUG-CC-PVTZ-RI
    Molecular point group: c1

    Geometry (in Angstrom), charge = 1, multiplicity = 1:

       Center              X                  Y                   Z               Mass
    ------------   -----------------  -----------------  -----------------  -----------------
         N           -1.453495667733    -0.724985253212     0.018183372894    14.003074004430
         C            0.793907332267     0.025843746788    -0.373742627106    12.000000000000
         C            0.000526332267    -1.176794253212     0.122391372894    12.000000000000
         C           -0.013998667733     1.195773746788     0.194194372894    12.000000000000
         C           -1.462977667733     0.808310746788    -0.069418627106    12.000000000000
         C            2.253645332267    -0.011368253212     0.060616372894    12.000000000000
         H            0.750905032267     0.050124446788    -1.270631127106     1.007825032230
         H            0.129420332267    -2.097058253212    -0.450060627106     1.007825032230
         H            0.201013332267    -1.373457253212     1.178501372894     1.007825032230
         H            0.230036332267     2.150053746788    -0.279085627106     1.007825032230
         H            0.173276332267     1.295189746788     1.269174372894     1.007825032230
         H           -2.000604667733    -1.055367253212     0.821895372894     1.007825032230
         H           -1.899474667733    -1.131982253212    -0.812141627106     1.007825032230
         H           -2.188757667733     1.193692746788     0.647487372894     1.007825032230
         H           -1.783719667733     1.066490746788    -1.079641627106     1.007825032230
         H            2.765217332267    -0.888982253212    -0.342933627106     1.007825032230
         H            2.777519332267     0.876011746788    -0.301502627106     1.007825032230
         H            2.333696332267    -0.034277253212     1.151656372894     1.007825032230

  Basis Set: AUG-CC-PVTZ
    Blend: AUG-CC-PVTZ
  Basis Set: (AUG-CC-PVTZ AUX)
    Blend: AUG-CC-PVTZ-JKFIT
	 Reference Energy          =    -250.6242704353895476 [Eh]
	 Singles Energy            =      -0.0000000000000000 [Eh]
	 Same-Spin Energy          =      -0.2610440299654720 [Eh]
	 Opposite-Spin Energy      =      -0.9366882587878400 [Eh]
	 Correlation Energy        =      -1.1977322887533119 [Eh]
	 Total Energy              =    -251.8220027241428625 [Eh]

	 ================> DF-SCS-MP2 Energies <==================
	-----------------------------------------------------------
	 SCS Same-Spin Scale       =       0.3333333333333333 [-]
	 SCS Opposite-Spin Scale   =       1.2000000000000000 [-]
	 SCS Same-Spin Energy      =      -0.0870146766551573 [Eh]
	 SCS Opposite-Spin Energy  =      -1.1240259105454080 [Eh]
	 SCS Correlation Energy    =      -1.2110405872005654 [Eh]
	 SCS Total Energy          =    -251.8353110225901048 [Eh]
	-----------------------------------------------------------

  Dipole Moment: [D]
     X:    -4.2571      Y:    -1.8733      Z:    -0.0715     Total:     4.6516

*** Psi4 exiting successfully. Buy a developer a beer!
