                               Psi4 1.4a3.dev225

  ==> Input File <==

--------------------------------------------------------------------------
#psi4
#
memory 32 gb

molecule  {
1 1
  N       -1.4684160    -0.7256290     0.0168660
  C        0.7789870     0.0252000    -0.3750600
  C       -0.0143940    -1.1774380     0.1210740
  C       -0.0289190     1.1951300     0.1928770
  C       -1.4778980     0.8076670    -0.0707360
  C        2.2387250    -0.0120120     0.0592990
  H        0.7264100     0.0548870    -1.4716460
  H        0.1145000    -2.0977020    -0.4513780
  H        0.1860930    -1.3741010     1.1771840
  H        0.2151160     2.1494100    -0.2804030
  H        0.1583560     1.2945460     1.2678570
  H       -2.0155250    -1.0560110     0.8205780
  H       -1.9143950    -1.1326260    -0.8134590
  H       -2.2036780     1.1930490     0.6461700
  H       -1.7986400     1.0658470    -1.0809590
  H        2.7377467    -0.9008555    -0.3352887
  H        2.7625990     0.8753680    -0.3028200
  H        2.3187760    -0.0349210     1.1503390
units angstrom
no_reorient  #important for SAPT in psi4, default
symmetry c1  #important for SAPT in psi4, default
}

set PROPERTIES_ORIGIN ["COM"]
properties('MP2/aug-cc-pvtz', properties = ['dipole'])
--------------------------------------------------------------------------

    Molecular point group: c1
  Charge       = 1
  Multiplicity = 1
  Basis Set: AUG-CC-PVTZ
    Blend: AUG-CC-PVTZ
  Basis Set: (AUG-CC-PVTZ AUX)
    Blend: AUG-CC-PVTZ-JKFIT

    Orbital Energies [Eh]
    ---------------------

    Doubly Occupied:

       1A    -15.865622     2A    -11.463791     3A    -11.460074
       4A    -11.402948     5A    -11.396631     6A    -11.359694
       7A     -1.492710     8A     -1.265055     9A     -1.194049
      10A     -1.098973    11A     -1.023852    12A     -0.974895
      13A     -0.935051    14A     -0.892349    15A     -0.827564
      16A     -0.791617    17A     -0.753702    18A     -0.740164
      19A     -0.711786    20A     -0.704019    21A     -0.679550
      22A     -0.654302    23A     -0.638779    24A     -0.629488

  @DF-RHF Final Energy:  -250.65686241010118

   => Energetics <=

    Nuclear Repulsion Energy =            265.8996757656621526
    One-Electron Energy =                -855.1997465262741116
    Two-Electron Energy =                 338.6432083505108039
    Total Energy =                       -250.6568624101012119
  Basis Set: (AUG-CC-PVTZ AUX)
    Blend: AUG-CC-PVTZ-RI
    Molecular point group: c1

    Geometry (in Angstrom), charge = 1, multiplicity = 1:

       Center              X                  Y                   Z               Mass
    ------------   -----------------  -----------------  -----------------  -----------------
         N           -1.453236679203    -0.724917088602     0.020416061214    14.003074004430
         C            0.794166320797     0.025911911398    -0.371509938786    12.000000000000
         C            0.000785320797    -1.176726088602     0.124624061214    12.000000000000
         C           -0.013739679203     1.195841911398     0.196427061214    12.000000000000
         C           -1.462718679203     0.808378911398    -0.067185938786    12.000000000000
         C            2.253904320797    -0.011300088602     0.062849061214    12.000000000000
         H            0.741589320797     0.055598911398    -1.468095938786     1.007825032230
         H            0.129679320797    -2.096990088602    -0.447827938786     1.007825032230
         H            0.201272320797    -1.373389088602     1.180734061214     1.007825032230
         H            0.230295320797     2.150121911398    -0.276852938786     1.007825032230
         H            0.173535320797     1.295257911398     1.271407061214     1.007825032230
         H           -2.000345679203    -1.055299088602     0.824128061214     1.007825032230
         H           -1.899215679203    -1.131914088602    -0.809908938786     1.007825032230
         H           -2.188498679203     1.193760911398     0.649720061214     1.007825032230
         H           -1.783460679203     1.066558911398    -1.077408938786     1.007825032230
         H            2.752926020797    -0.900143588602    -0.331738638786     1.007825032230
         H            2.777778320797     0.876079911398    -0.299269938786     1.007825032230
         H            2.333955320797    -0.034209088602     1.153889061214     1.007825032230

  Basis Set: AUG-CC-PVTZ
    Blend: AUG-CC-PVTZ
  Basis Set: (AUG-CC-PVTZ AUX)
    Blend: AUG-CC-PVTZ-JKFIT
	 Reference Energy          =    -250.6568624101011835 [Eh]
	 Singles Energy            =      -0.0000000000000000 [Eh]
	 Same-Spin Energy          =      -0.2610986329724366 [Eh]
	 Opposite-Spin Energy      =      -0.9374225623061321 [Eh]
	 Correlation Energy        =      -1.1985211952785688 [Eh]
	 Total Energy              =    -251.8553836053797568 [Eh]

	 ================> DF-SCS-MP2 Energies <==================
	-----------------------------------------------------------
	 SCS Same-Spin Scale       =       0.3333333333333333 [-]
	 SCS Opposite-Spin Scale   =       1.2000000000000000 [-]
	 SCS Same-Spin Energy      =      -0.0870328776574789 [Eh]
	 SCS Opposite-Spin Energy  =      -1.1249070747673584 [Eh]
	 SCS Correlation Energy    =      -1.2119399524248373 [Eh]
	 SCS Total Energy          =    -251.8688023625260257 [Eh]
	-----------------------------------------------------------

  Dipole Moment: [D]
     X:    -4.2239      Y:    -1.8694      Z:    -0.0115     Total:     4.6191

*** Psi4 exiting successfully. Buy a developer a beer!
