                               Psi4 1.4a3.dev225

  ==> Input File <==

--------------------------------------------------------------------------
#psi4
#
memory 32 gb

molecule  {
1 1
  N       -1.4684160    -0.7256290     0.0168660
  C        0.7789870     0.0252000    -0.3750600
  C       -0.0143940    -1.1774380     0.1210740
  C       -0.0289190     1.1951300     0.1928770
  C       -1.4778980     0.8076670    -0.0707360
  C        2.2387250    -0.0120120     0.0592990
  H        0.7264100     0.0548870    -1.4716460
  H        0.1145000    -2.0977020    -0.4513780
  H        0.1860930    -1.3741010     1.1771840
  H        0.2151160     2.1494100    -0.2804030
  H        0.1583560     1.2945460     1.2678570
  H       -2.0155250    -1.0560110     0.8205780
  H       -1.9143950    -1.1326260    -0.8134590
  H       -2.2036780     1.1930490     0.6461700
  H       -1.7986400     1.0658470    -1.0809590
  H        2.7034949    -0.8093358    -0.3073315
  H        2.7625990     0.8753680    -0.3028200
  H        2.3187760    -0.0349210     1.1503390
units angstrom
no_reorient  #important for SAPT in psi4, default
symmetry c1  #important for SAPT in psi4, default
}

set PROPERTIES_ORIGIN ["COM"]
properties('MP2/aug-cc-pvtz', properties = ['dipole'])
--------------------------------------------------------------------------

    Molecular point group: c1
  Charge       = 1
  Multiplicity = 1
  Basis Set: AUG-CC-PVTZ
    Blend: AUG-CC-PVTZ
  Basis Set: (AUG-CC-PVTZ AUX)
    Blend: AUG-CC-PVTZ-JKFIT

    Orbital Energies [Eh]
    ---------------------

    Doubly Occupied:

       1A    -15.865488     2A    -11.463460     3A    -11.459991
       4A    -11.402423     5A    -11.396196     6A    -11.347684
       7A     -1.492545     8A     -1.265486     9A     -1.194452
      10A     -1.106389    11A     -1.025136    12A     -0.975838
      13A     -0.936308    14A     -0.892921    15A     -0.828457
      16A     -0.792001    17A     -0.755098    18A     -0.746022
      19A     -0.716455    20A     -0.703728    21A     -0.679585
      22A     -0.655104    23A     -0.638928    24A     -0.635170

  @DF-RHF Final Energy:  -250.65077007504939

   => Energetics <=

    Nuclear Repulsion Energy =            266.3372978637519850
    One-Electron Energy =                -856.0264037904436236
    Two-Electron Energy =                 339.0383358516421595
    Total Energy =                       -250.6507700750494223
  Basis Set: (AUG-CC-PVTZ AUX)
    Blend: AUG-CC-PVTZ-RI
    Molecular point group: c1

    Geometry (in Angstrom), charge = 1, multiplicity = 1:

       Center              X                  Y                   Z               Mass
    ------------   -----------------  -----------------  -----------------  -----------------
         N           -1.452835738035    -0.725988390413     0.020088802722    14.003074004430
         C            0.794567261965     0.024840609587    -0.371837197278    12.000000000000
         C            0.001186261965    -1.177797390413     0.124296802722    12.000000000000
         C           -0.013338738035     1.194770609587     0.196099802722    12.000000000000
         C           -1.462317738035     0.807307609587    -0.067513197278    12.000000000000
         C            2.254305261965    -0.012371390413     0.062521802722    12.000000000000
         H            0.741990261965     0.054527609587    -1.468423197278     1.007825032230
         H            0.130080261965    -2.098061390413    -0.448155197278     1.007825032230
         H            0.201673261965    -1.374460390413     1.180406802722     1.007825032230
         H            0.230696261965     2.149050609587    -0.277180197278     1.007825032230
         H            0.173936261965     1.294186609587     1.271079802722     1.007825032230
         H           -1.999944738035    -1.056370390413     0.823800802722     1.007825032230
         H           -1.898814738035    -1.132985390413    -0.810236197278     1.007825032230
         H           -2.188097738035     1.192689609587     0.649392802722     1.007825032230
         H           -1.783059738035     1.065487609587    -1.077736197278     1.007825032230
         H            2.719075161965    -0.809695190413    -0.304108697278     1.007825032230
         H            2.778179261965     0.875008609587    -0.299597197278     1.007825032230
         H            2.334356261965    -0.035280390413     1.153561802722     1.007825032230

  Basis Set: AUG-CC-PVTZ
    Blend: AUG-CC-PVTZ
  Basis Set: (AUG-CC-PVTZ AUX)
    Blend: AUG-CC-PVTZ-JKFIT
	 Reference Energy          =    -250.6507700750493939 [Eh]
	 Singles Energy            =      -0.0000000000000000 [Eh]
	 Same-Spin Energy          =      -0.2611345545409557 [Eh]
	 Opposite-Spin Energy      =      -0.9369239513001162 [Eh]
	 Correlation Energy        =      -1.1980585058410718 [Eh]
	 Total Energy              =    -251.8488285808904550 [Eh]

	 ================> DF-SCS-MP2 Energies <==================
	-----------------------------------------------------------
	 SCS Same-Spin Scale       =       0.3333333333333333 [-]
	 SCS Opposite-Spin Scale   =       1.2000000000000000 [-]
	 SCS Same-Spin Energy      =      -0.0870448515136519 [Eh]
	 SCS Opposite-Spin Energy  =      -1.1243087415601394 [Eh]
	 SCS Correlation Energy    =      -1.2113535930737913 [Eh]
	 SCS Total Energy          =    -251.8621236681231892 [Eh]
	-----------------------------------------------------------

  Dipole Moment: [D]
     X:    -4.2005      Y:    -1.8903      Z:    -0.0232     Total:     4.6063

*** Psi4 exiting successfully. Buy a developer a beer!
