                               Psi4 1.4a3.dev225

  ==> Input File <==

--------------------------------------------------------------------------
#psi4
#
memory 32 gb

molecule  {
1 1
  N       -1.4684160    -0.7256290     0.0168660
  C        0.7789870     0.0252000    -0.3750600
  C       -0.0143940    -1.1774380     0.1210740
  C       -0.0289190     1.1951300     0.1928770
  C       -1.4932847     0.8085904    -0.0488066
  C        2.2387250    -0.0120120     0.0592990
  H        0.7264100     0.0548870    -1.4716460
  H        0.1145000    -2.0977020    -0.4513780
  H        0.1860930    -1.3741010     1.1771840
  H        0.2151160     2.1494100    -0.2804030
  H        0.1583560     1.2945460     1.2678570
  H       -2.0155250    -1.0560110     0.8205780
  H       -1.9143950    -1.1326260    -0.8134590
  H       -2.2036780     1.1930490     0.6461700
  H       -1.7986400     1.0658470    -1.0809590
  H        2.7502970    -0.8896260    -0.3442510
  H        2.7625990     0.8753680    -0.3028200
  H        2.3187760    -0.0349210     1.1503390
units angstrom
no_reorient  #important for SAPT in psi4, default
symmetry c1  #important for SAPT in psi4, default
}

set PROPERTIES_ORIGIN ["COM"]
properties('MP2/aug-cc-pvtz', properties = ['dipole'])
--------------------------------------------------------------------------

    Molecular point group: c1
  Charge       = 1
  Multiplicity = 1
  Basis Set: AUG-CC-PVTZ
    Blend: AUG-CC-PVTZ
  Basis Set: (AUG-CC-PVTZ AUX)
    Blend: AUG-CC-PVTZ-JKFIT

    Orbital Energies [Eh]
    ---------------------

    Doubly Occupied:

       1A    -15.865817     2A    -11.463522     3A    -11.460235
       4A    -11.403147     5A    -11.397256     6A    -11.359722
       7A     -1.492509     8A     -1.264018     9A     -1.193531
      10A     -1.098895    11A     -1.024554    12A     -0.974559
      13A     -0.935231    14A     -0.893023    15A     -0.826781
      16A     -0.791470    17A     -0.757377    18A     -0.738754
      19A     -0.711673    20A     -0.701451    21A     -0.679543
      22A     -0.654272    23A     -0.638028    24A     -0.630280

  @DF-RHF Final Energy:  -250.65616607455925

   => Energetics <=

    Nuclear Repulsion Energy =            265.6950786293970168
    One-Electron Energy =                -854.7911888663390982
    Two-Electron Energy =                 338.4399441623828011
    Total Energy =                       -250.6561660745592803
  Basis Set: (AUG-CC-PVTZ AUX)
    Blend: AUG-CC-PVTZ-RI
    Molecular point group: c1

    Geometry (in Angstrom), charge = 1, multiplicity = 1:

       Center              X                  Y                   Z               Mass
    ------------   -----------------  -----------------  -----------------  -----------------
         N           -1.451239026036    -0.725177239105     0.017464501400    14.003074004430
         C            0.796163973964     0.025651760895    -0.374461498600    12.000000000000
         C            0.002782973964    -1.176986239105     0.121672501400    12.000000000000
         C           -0.011742026036     1.195581760895     0.193475501400    12.000000000000
         C           -1.476107726036     0.809042160895    -0.048208098600    12.000000000000
         C            2.255901973964    -0.011560239105     0.059897501400    12.000000000000
         H            0.743586973964     0.055338760895    -1.471047498600     1.007825032230
         H            0.131676973964    -2.097250239105    -0.450779498600     1.007825032230
         H            0.203269973964    -1.373649239105     1.177782501400     1.007825032230
         H            0.232292973964     2.149861760895    -0.279804498600     1.007825032230
         H            0.175532973964     1.294997760895     1.268455501400     1.007825032230
         H           -1.998348026036    -1.055559239105     0.821176501400     1.007825032230
         H           -1.897218026036    -1.132174239105    -0.812860498600     1.007825032230
         H           -2.186501026036     1.193500760895     0.646768501400     1.007825032230
         H           -1.781463026036     1.066298760895    -1.080360498600     1.007825032230
         H            2.767473973964    -0.889174239105    -0.343652498600     1.007825032230
         H            2.779775973964     0.875819760895    -0.302221498600     1.007825032230
         H            2.335952973964    -0.034469239105     1.150937501400     1.007825032230

  Basis Set: AUG-CC-PVTZ
    Blend: AUG-CC-PVTZ
  Basis Set: (AUG-CC-PVTZ AUX)
    Blend: AUG-CC-PVTZ-JKFIT
	 Reference Energy          =    -250.6561660745592519 [Eh]
	 Singles Energy            =      -0.0000000000000000 [Eh]
	 Same-Spin Energy          =      -0.2610079562014963 [Eh]
	 Opposite-Spin Energy      =      -0.9373816274579785 [Eh]
	 Correlation Energy        =      -1.1983895836594747 [Eh]
	 Total Energy              =    -251.8545556582187146 [Eh]

	 ================> DF-SCS-MP2 Energies <==================
	-----------------------------------------------------------
	 SCS Same-Spin Scale       =       0.3333333333333333 [-]
	 SCS Opposite-Spin Scale   =       1.2000000000000000 [-]
	 SCS Same-Spin Energy      =      -0.0870026520671654 [Eh]
	 SCS Opposite-Spin Energy  =      -1.1248579529495741 [Eh]
	 SCS Correlation Energy    =      -1.2118606050167395 [Eh]
	 SCS Total Energy          =    -251.8680266795759906 [Eh]
	-----------------------------------------------------------

  Dipole Moment: [D]
     X:    -4.2170      Y:    -1.8748      Z:    -0.0130     Total:     4.6149

*** Psi4 exiting successfully. Buy a developer a beer!
