                               Psi4 1.4a3.dev225

  ==> Input File <==

--------------------------------------------------------------------------
#psi4
#
memory 32 gb

molecule  {
1 1
  N       -1.4684160    -0.7256290     0.0168660
  C        0.7789870     0.0252000    -0.3750600
  C       -0.0143940    -1.1774380     0.1210740
  C       -0.0289190     1.1951300     0.1928770
  C       -1.4778980     0.8076670    -0.0707360
  C        2.2387250    -0.0120120     0.0592990
  H        0.7264100     0.0548870    -1.4716460
  H        0.1145000    -2.0977020    -0.4513780
  H        0.1860930    -1.3741010     1.1771840
  H        0.2151160     2.1494100    -0.2804030
  H        0.1583560     1.2945460     1.2678570
  H       -2.0155250    -1.0560110     0.8205780
  H       -1.9143950    -1.1326260    -0.8134590
  H       -2.2702317     1.2283883     0.7119099
  H       -1.7986400     1.0658470    -1.0809590
  H        2.7502970    -0.8896260    -0.3442510
  H        2.7625990     0.8753680    -0.3028200
  H        2.3187760    -0.0349210     1.1503390
units angstrom
no_reorient  #important for SAPT in psi4, default
symmetry c1  #important for SAPT in psi4, default
}

set PROPERTIES_ORIGIN ["COM"]
properties('MP2/aug-cc-pvtz', properties = ['dipole'])
--------------------------------------------------------------------------

    Molecular point group: c1
  Charge       = 1
  Multiplicity = 1
  Basis Set: AUG-CC-PVTZ
    Blend: AUG-CC-PVTZ
  Basis Set: (AUG-CC-PVTZ AUX)
    Blend: AUG-CC-PVTZ-JKFIT

    Orbital Energies [Eh]
    ---------------------

    Doubly Occupied:

       1A    -15.866029     2A    -11.473868     3A    -11.460260
       4A    -11.403460     5A    -11.397217     6A    -11.359910
       7A     -1.492572     8A     -1.265275     9A     -1.189698
      10A     -1.099204    11A     -1.018439    12A     -0.974173
      13A     -0.935137    14A     -0.888592    15A     -0.827877
      16A     -0.786700    17A     -0.748066    18A     -0.736005
      19A     -0.711843    20A     -0.704078    21A     -0.676137
      22A     -0.654717    23A     -0.638865    24A     -0.628162

  @DF-RHF Final Energy:  -250.64983993262069

   => Energetics <=

    Nuclear Repulsion Energy =            265.4260388252171197
    One-Electron Energy =                -854.2791894973895523
    Two-Electron Energy =                 338.2033107395517391
    Total Energy =                       -250.6498399326206936
  Basis Set: (AUG-CC-PVTZ AUX)
    Blend: AUG-CC-PVTZ-RI
    Molecular point group: c1

    Geometry (in Angstrom), charge = 1, multiplicity = 1:

       Center              X                  Y                   Z               Mass
    ------------   -----------------  -----------------  -----------------  -----------------
         N           -1.452604531804    -0.725462208831     0.019751439873    14.003074004430
         C            0.794798468196     0.025366791169    -0.372174560127    12.000000000000
         C            0.001417468196    -1.177271208831     0.123959439873    12.000000000000
         C           -0.013107531804     1.195296791169     0.195762439873    12.000000000000
         C           -1.462086531804     0.807833791169    -0.067850560127    12.000000000000
         C            2.254536468196    -0.011845208831     0.062184439873    12.000000000000
         H            0.742221468196     0.055053791169    -1.468760560127     1.007825032230
         H            0.130311468196    -2.097535208831    -0.448492560127     1.007825032230
         H            0.201904468196    -1.373934208831     1.180069439873     1.007825032230
         H            0.230927468196     2.149576791169    -0.277517560127     1.007825032230
         H            0.174167468196     1.294712791169     1.270742439873     1.007825032230
         H           -1.999713531804    -1.055844208831     0.823463439873     1.007825032230
         H           -1.898583531804    -1.132459208831    -0.810573560127     1.007825032230
         H           -2.254420231804     1.228555091169     0.714795339873     1.007825032230
         H           -1.782828531804     1.066013791169    -1.078073560127     1.007825032230
         H            2.766108468196    -0.889459208831    -0.341365560127     1.007825032230
         H            2.778410468196     0.875534791169    -0.299934560127     1.007825032230
         H            2.334587468196    -0.034754208831     1.153224439873     1.007825032230

  Basis Set: AUG-CC-PVTZ
    Blend: AUG-CC-PVTZ
  Basis Set: (AUG-CC-PVTZ AUX)
    Blend: AUG-CC-PVTZ-JKFIT
	 Reference Energy          =    -250.6498399326206936 [Eh]
	 Singles Energy            =      -0.0000000000000000 [Eh]
	 Same-Spin Energy          =      -0.2612523264109171 [Eh]
	 Opposite-Spin Energy      =      -0.9383044994706888 [Eh]
	 Correlation Energy        =      -1.1995568258816061 [Eh]
	 Total Energy              =    -251.8493967585023086 [Eh]

	 ================> DF-SCS-MP2 Energies <==================
	-----------------------------------------------------------
	 SCS Same-Spin Scale       =       0.3333333333333333 [-]
	 SCS Opposite-Spin Scale   =       1.2000000000000000 [-]
	 SCS Same-Spin Energy      =      -0.0870841088036390 [Eh]
	 SCS Opposite-Spin Energy  =      -1.1259653993648266 [Eh]
	 SCS Correlation Energy    =      -1.2130495081684656 [Eh]
	 SCS Total Energy          =    -251.8628894407891607 [Eh]
	-----------------------------------------------------------

  Dipole Moment: [D]
     X:    -4.2045      Y:    -1.8673      Z:    -0.0095     Total:     4.6005

*** Psi4 exiting successfully. Buy a developer a beer!
