                               Psi4 1.4a3.dev225

  ==> Input File <==

--------------------------------------------------------------------------
#psi4
#
memory 32 gb

molecule  {
1 1
  N       -1.4684160    -0.7256290     0.0168660
  C        0.7789870     0.0252000    -0.3750600
  C       -0.0143940    -1.1774380     0.1210740
  C       -0.0289190     1.1951300     0.1928770
  C       -1.4778980     0.8076670    -0.0707360
  C        2.2387250    -0.0120120     0.0592990
  H        0.7264100     0.0548870    -1.4716460
  H        0.1145000    -2.0977020    -0.4513780
  H        0.1824238    -1.3705018     1.1578557
  H        0.2151160     2.1494100    -0.2804030
  H        0.1583560     1.2945460     1.2678570
  H       -2.0155250    -1.0560110     0.8205780
  H       -1.9143950    -1.1326260    -0.8134590
  H       -2.2036780     1.1930490     0.6461700
  H       -1.7986400     1.0658470    -1.0809590
  H        2.7502970    -0.8896260    -0.3442510
  H        2.7625990     0.8753680    -0.3028200
  H        2.3187760    -0.0349210     1.1503390
units angstrom
no_reorient  #important for SAPT in psi4, default
symmetry c1  #important for SAPT in psi4, default
}

set PROPERTIES_ORIGIN ["COM"]
properties('MP2/aug-cc-pvtz', properties = ['dipole'])
--------------------------------------------------------------------------

    Molecular point group: c1
  Charge       = 1
  Multiplicity = 1
  Basis Set: AUG-CC-PVTZ
    Blend: AUG-CC-PVTZ
  Basis Set: (AUG-CC-PVTZ AUX)
    Blend: AUG-CC-PVTZ-JKFIT

    Orbital Energies [Eh]
    ---------------------

    Doubly Occupied:

       1A    -15.865520     2A    -11.463806     3A    -11.457867
       4A    -11.402939     5A    -11.396710     6A    -11.359606
       7A     -1.492770     8A     -1.265177     9A     -1.194695
      10A     -1.099743    11A     -1.024180    12A     -0.975837
      13A     -0.935094    14A     -0.892509    15A     -0.828314
      16A     -0.793050    17A     -0.753721    18A     -0.739789
      19A     -0.713359    20A     -0.704083    21A     -0.679767
      22A     -0.654743    23A     -0.638677    24A     -0.629392

  @DF-RHF Final Energy:  -250.65698957437425

   => Energetics <=

    Nuclear Repulsion Energy =            265.9778852164101863
    One-Electron Energy =                -855.3470553012891742
    Two-Electron Energy =                 338.7121805105047088
    Total Energy =                       -250.6569895743742791
  Basis Set: (AUG-CC-PVTZ AUX)
    Blend: AUG-CC-PVTZ-RI
    Molecular point group: c1

    Geometry (in Angstrom), charge = 1, multiplicity = 1:

       Center              X                  Y                   Z               Mass
    ------------   -----------------  -----------------  -----------------  -----------------
         N           -1.453340638662    -0.725090668860     0.020747222385    14.003074004430
         C            0.794062361338     0.025738331140    -0.371178777615    12.000000000000
         C            0.000681361338    -1.176899668860     0.124955222385    12.000000000000
         C           -0.013843638662     1.195668331140     0.196758222385    12.000000000000
         C           -1.462822638662     0.808205331140    -0.066854777615    12.000000000000
         C            2.253800361338    -0.011473668860     0.063180222385    12.000000000000
         H            0.741485361338     0.055425331140    -1.467764777615     1.007825032230
         H            0.129575361338    -2.097163668860    -0.447496777615     1.007825032230
         H            0.197499161338    -1.369963468860     1.161736922385     1.007825032230
         H            0.230191361338     2.149948331140    -0.276521777615     1.007825032230
         H            0.173431361338     1.295084331140     1.271738222385     1.007825032230
         H           -2.000449638662    -1.055472668860     0.824459222385     1.007825032230
         H           -1.899319638662    -1.132087668860    -0.809577777615     1.007825032230
         H           -2.188602638662     1.193587331140     0.650051222385     1.007825032230
         H           -1.783564638662     1.066385331140    -1.077077777615     1.007825032230
         H            2.765372361338    -0.889087668860    -0.340369777615     1.007825032230
         H            2.777674361338     0.875906331140    -0.298938777615     1.007825032230
         H            2.333851361338    -0.034382668860     1.154220222385     1.007825032230

  Basis Set: AUG-CC-PVTZ
    Blend: AUG-CC-PVTZ
  Basis Set: (AUG-CC-PVTZ AUX)
    Blend: AUG-CC-PVTZ-JKFIT
	 Reference Energy          =    -250.6569895743742507 [Eh]
	 Singles Energy            =      -0.0000000000000000 [Eh]
	 Same-Spin Energy          =      -0.2610621675726723 [Eh]
	 Opposite-Spin Energy      =      -0.9372515191658040 [Eh]
	 Correlation Energy        =      -1.1983136867384763 [Eh]
	 Total Energy              =    -251.8553032611127378 [Eh]

	 ================> DF-SCS-MP2 Energies <==================
	-----------------------------------------------------------
	 SCS Same-Spin Scale       =       0.3333333333333333 [-]
	 SCS Opposite-Spin Scale   =       1.2000000000000000 [-]
	 SCS Same-Spin Energy      =      -0.0870207225242241 [Eh]
	 SCS Opposite-Spin Energy  =      -1.1247018229989647 [Eh]
	 SCS Correlation Energy    =      -1.2117225455231888 [Eh]
	 SCS Total Energy          =    -251.8687121198974523 [Eh]
	-----------------------------------------------------------

  Dipole Moment: [D]
     X:    -4.2216      Y:    -1.8683      Z:    -0.0143     Total:     4.6166

*** Psi4 exiting successfully. Buy a developer a beer!
