                               Psi4 1.4a3.dev225

  ==> Input File <==

--------------------------------------------------------------------------
#psi4
#
memory 32 gb

molecule  {
1 1
  N       -1.4684160    -0.7256290     0.0168660
  C        0.7962727    -0.0654429    -0.4279012
  C       -0.0143940    -1.1774380     0.1210740
  C       -0.0289190     1.1951300     0.1928770
  C       -1.4778980     0.8076670    -0.0707360
  C        2.2387250    -0.0120120     0.0592990
  H        0.7264100     0.0548870    -1.4716460
  H        0.1145000    -2.0977020    -0.4513780
  H        0.1860930    -1.3741010     1.1771840
  H        0.2151160     2.1494100    -0.2804030
  H        0.1583560     1.2945460     1.2678570
  H       -2.0155250    -1.0560110     0.8205780
  H       -1.9143950    -1.1326260    -0.8134590
  H       -2.2036780     1.1930490     0.6461700
  H       -1.7986400     1.0658470    -1.0809590
  H        2.7502970    -0.8896260    -0.3442510
  H        2.7625990     0.8753680    -0.3028200
  H        2.3187760    -0.0349210     1.1503390
units angstrom
no_reorient  #important for SAPT in psi4, default
symmetry c1  #important for SAPT in psi4, default
}

set PROPERTIES_ORIGIN ["COM"]
properties('MP2/aug-cc-pvtz', properties = ['dipole'])
--------------------------------------------------------------------------

    Molecular point group: c1
  Charge       = 1
  Multiplicity = 1
  Basis Set: AUG-CC-PVTZ
    Blend: AUG-CC-PVTZ
  Basis Set: (AUG-CC-PVTZ AUX)
    Blend: AUG-CC-PVTZ-JKFIT

    Orbital Energies [Eh]
    ---------------------

    Doubly Occupied:

       1A    -15.866094     2A    -11.462306     3A    -11.460384
       4A    -11.402433     5A    -11.398346     6A    -11.360274
       7A     -1.492928     8A     -1.259655     9A     -1.195692
      10A     -1.100186    11A     -1.015156    12A     -0.980034
      13A     -0.936993    14A     -0.894693    15A     -0.830070
      16A     -0.791825    17A     -0.752347    18A     -0.739004
      19A     -0.712526    20A     -0.701352    21A     -0.678421
      22A     -0.662560    23A     -0.654733    24A     -0.600992

  @DF-RHF Final Energy:  -250.64737287509709

   => Energetics <=

    Nuclear Repulsion Energy =            265.3596219796847322
    One-Electron Energy =                -854.1159821982734002
    Two-Electron Energy =                 338.1089873434916626
    Total Energy =                       -250.6473728750970622
  Basis Set: (AUG-CC-PVTZ AUX)
    Blend: AUG-CC-PVTZ-RI
    Molecular point group: c1

    Geometry (in Angstrom), charge = 1, multiplicity = 1:

       Center              X                  Y                   Z               Mass
    ------------   -----------------  -----------------  -----------------  -----------------
         N           -1.455792830659    -0.712414936971     0.027885857160    14.003074004430
         C            0.808895869341    -0.052228836971    -0.416881342840    12.000000000000
         C           -0.001770830659    -1.164223936971     0.132093857160    12.000000000000
         C           -0.016295830659     1.208344063029     0.203896857160    12.000000000000
         C           -1.465274830659     0.820881063029    -0.059716142840    12.000000000000
         C            2.251348169341     0.001202063029     0.070318857160    12.000000000000
         H            0.739033169341     0.068101063029    -1.460626142840     1.007825032230
         H            0.127123169341    -2.084487936971    -0.440358142840     1.007825032230
         H            0.198716169341    -1.360886936971     1.188203857160     1.007825032230
         H            0.227739169341     2.162624063029    -0.269383142840     1.007825032230
         H            0.170979169341     1.307760063029     1.278876857160     1.007825032230
         H           -2.002901830659    -1.042796936971     0.831597857160     1.007825032230
         H           -1.901771830659    -1.119411936971    -0.802439142840     1.007825032230
         H           -2.191054830659     1.206263063029     0.657189857160     1.007825032230
         H           -1.786016830659     1.079061063029    -1.069939142840     1.007825032230
         H            2.762920169341    -0.876411936971    -0.333231142840     1.007825032230
         H            2.775222169341     0.888582063029    -0.291800142840     1.007825032230
         H            2.331399169341    -0.021706936971     1.161358857160     1.007825032230

  Basis Set: AUG-CC-PVTZ
    Blend: AUG-CC-PVTZ
  Basis Set: (AUG-CC-PVTZ AUX)
    Blend: AUG-CC-PVTZ-JKFIT
	 Reference Energy          =    -250.6473728750970906 [Eh]
	 Singles Energy            =      -0.0000000000000000 [Eh]
	 Same-Spin Energy          =      -0.2613013224574703 [Eh]
	 Opposite-Spin Energy      =      -0.9380186156192307 [Eh]
	 Correlation Energy        =      -1.1993199380767010 [Eh]
	 Total Energy              =    -251.8466928131738030 [Eh]

	 ================> DF-SCS-MP2 Energies <==================
	-----------------------------------------------------------
	 SCS Same-Spin Scale       =       0.3333333333333333 [-]
	 SCS Opposite-Spin Scale   =       1.2000000000000000 [-]
	 SCS Same-Spin Energy      =      -0.0871004408191568 [Eh]
	 SCS Opposite-Spin Energy  =      -1.1256223387430768 [Eh]
	 SCS Correlation Energy    =      -1.2127227795622335 [Eh]
	 SCS Total Energy          =    -251.8600956546593181 [Eh]
	-----------------------------------------------------------

  Dipole Moment: [D]
     X:    -4.1990      Y:    -1.8335      Z:     0.0044     Total:     4.5819

*** Psi4 exiting successfully. Buy a developer a beer!
