                               Psi4 1.4a3.dev225

  ==> Input File <==

--------------------------------------------------------------------------
#psi4
#
memory 32 gb

molecule  {
1 1
  N       -1.4684160    -0.7256290     0.0168660
  C        0.7789870     0.0252000    -0.3750600
  C       -0.0143940    -1.1774380     0.1210740
  C       -0.0289190     1.1951300     0.1928770
  C       -1.4588685     0.8127556    -0.0672740
  C        2.2387250    -0.0120120     0.0592990
  H        0.7264100     0.0548870    -1.4716460
  H        0.1145000    -2.0977020    -0.4513780
  H        0.1860930    -1.3741010     1.1771840
  H        0.2151160     2.1494100    -0.2804030
  H        0.1583560     1.2945460     1.2678570
  H       -2.0155250    -1.0560110     0.8205780
  H       -1.9143950    -1.1326260    -0.8134590
  H       -2.2036780     1.1930490     0.6461700
  H       -1.7986400     1.0658470    -1.0809590
  H        2.7502970    -0.8896260    -0.3442510
  H        2.7625990     0.8753680    -0.3028200
  H        2.3187760    -0.0349210     1.1503390
units angstrom
no_reorient  #important for SAPT in psi4, default
symmetry c1  #important for SAPT in psi4, default
}

set PROPERTIES_ORIGIN ["COM"]
properties('MP2/aug-cc-pvtz', properties = ['dipole'])
--------------------------------------------------------------------------

    Molecular point group: c1
  Charge       = 1
  Multiplicity = 1
  Basis Set: AUG-CC-PVTZ
    Blend: AUG-CC-PVTZ
  Basis Set: (AUG-CC-PVTZ AUX)
    Blend: AUG-CC-PVTZ-JKFIT

    Orbital Energies [Eh]
    ---------------------

    Doubly Occupied:

       1A    -15.864978     2A    -11.464935     3A    -11.459827
       4A    -11.403323     5A    -11.395810     6A    -11.359642
       7A     -1.491922     8A     -1.266732     9A     -1.195327
      10A     -1.099089    11A     -1.022714    12A     -0.974831
      13A     -0.935096    14A     -0.891907    15A     -0.828005
      16A     -0.790570    17A     -0.750759    18A     -0.742559
      19A     -0.711857    20A     -0.705865    21A     -0.677554
      22A     -0.655799    23A     -0.638994    24A     -0.629610

  @DF-RHF Final Energy:  -250.65622182390823

   => Energetics <=

    Nuclear Repulsion Energy =            266.0871947614465967
    One-Electron Energy =                -855.5714248424083053
    Two-Electron Energy =                 338.8280082570533978
    Total Energy =                       -250.6562218239082540
  Basis Set: (AUG-CC-PVTZ AUX)
    Blend: AUG-CC-PVTZ-RI
    Molecular point group: c1

    Geometry (in Angstrom), charge = 1, multiplicity = 1:

       Center              X                  Y                   Z               Mass
    ------------   -----------------  -----------------  -----------------  -----------------
         N           -1.456035877528    -0.725757775185     0.020038445509    14.003074004430
         C            0.791367122472     0.025071224815    -0.371887554491    12.000000000000
         C           -0.002013877528    -1.177566775185     0.124246445509    12.000000000000
         C           -0.016538877528     1.195001224815     0.196049445509    12.000000000000
         C           -1.446488377528     0.812626824815    -0.064101554491    12.000000000000
         C            2.251105122472    -0.012140775185     0.062471445509    12.000000000000
         H            0.738790122472     0.054758224815    -1.468473554491     1.007825032230
         H            0.126880122472    -2.097830775185    -0.448205554491     1.007825032230
         H            0.198473122472    -1.374229775185     1.180356445509     1.007825032230
         H            0.227496122472     2.149281224815    -0.277230554491     1.007825032230
         H            0.170736122472     1.294417224815     1.271029445509     1.007825032230
         H           -2.003144877528    -1.056139775185     0.823750445509     1.007825032230
         H           -1.902014877528    -1.132754775185    -0.810286554491     1.007825032230
         H           -2.191297877528     1.192920224815     0.649342445509     1.007825032230
         H           -1.786259877528     1.065718224815    -1.077786554491     1.007825032230
         H            2.762677122472    -0.889754775185    -0.341078554491     1.007825032230
         H            2.774979122472     0.875239224815    -0.299647554491     1.007825032230
         H            2.331156122472    -0.035049775185     1.153511445509     1.007825032230

  Basis Set: AUG-CC-PVTZ
    Blend: AUG-CC-PVTZ
  Basis Set: (AUG-CC-PVTZ AUX)
    Blend: AUG-CC-PVTZ-JKFIT
	 Reference Energy          =    -250.6562218239082256 [Eh]
	 Singles Energy            =      -0.0000000000000000 [Eh]
	 Same-Spin Energy          =      -0.2612530042498471 [Eh]
	 Opposite-Spin Energy      =      -0.9375542558759138 [Eh]
	 Correlation Energy        =      -1.1988072601257609 [Eh]
	 Total Energy              =    -251.8550290840339869 [Eh]

	 ================> DF-SCS-MP2 Energies <==================
	-----------------------------------------------------------
	 SCS Same-Spin Scale       =       0.3333333333333333 [-]
	 SCS Opposite-Spin Scale   =       1.2000000000000000 [-]
	 SCS Same-Spin Energy      =      -0.0870843347499490 [Eh]
	 SCS Opposite-Spin Energy  =      -1.1250651070510964 [Eh]
	 SCS Correlation Energy    =      -1.2121494418010454 [Eh]
	 SCS Total Energy          =    -251.8683712657092713 [Eh]
	-----------------------------------------------------------

  Dipole Moment: [D]
     X:    -4.2188      Y:    -1.8552      Z:    -0.0181     Total:     4.6088

*** Psi4 exiting successfully. Buy a developer a beer!
