                               Psi4 1.4a3.dev225

  ==> Input File <==

--------------------------------------------------------------------------
#psi4
#
memory 32 gb

molecule  {
1 1
  N       -1.4684160    -0.7256290     0.0168660
  C        0.7789870     0.0252000    -0.3750600
  C       -0.0143940    -1.1774380     0.1210740
  C       -0.0289190     1.1951300     0.1928770
  C       -1.4778980     0.8076670    -0.0707360
  C        2.2387250    -0.0120120     0.0592990
  H        0.7264100     0.0548870    -1.4716460
  H        0.1145000    -2.0977020    -0.4513780
  H        0.1860930    -1.3741010     1.1771840
  H        0.2151160     2.1494100    -0.2804030
  H        0.1583560     1.2945460     1.2678570
  H       -2.0155250    -1.0560110     0.8205780
  H       -1.9143950    -1.1326260    -0.8134590
  H       -2.2036780     1.1930490     0.6461700
  H       -1.7986400     1.0658470    -1.0809590
  H        2.7749264    -0.8663685    -0.3618042
  H        2.7625990     0.8753680    -0.3028200
  H        2.3187760    -0.0349210     1.1503390
units angstrom
no_reorient  #important for SAPT in psi4, default
symmetry c1  #important for SAPT in psi4, default
}

set PROPERTIES_ORIGIN ["COM"]
properties('MP2/aug-cc-pvtz', properties = ['dipole'])
--------------------------------------------------------------------------

    Molecular point group: c1
  Charge       = 1
  Multiplicity = 1
  Basis Set: AUG-CC-PVTZ
    Blend: AUG-CC-PVTZ
  Basis Set: (AUG-CC-PVTZ AUX)
    Blend: AUG-CC-PVTZ-JKFIT

    Orbital Energies [Eh]
    ---------------------

    Doubly Occupied:

       1A    -15.865579     2A    -11.463882     3A    -11.459960
       4A    -11.403303     5A    -11.396851     6A    -11.359401
       7A     -1.492691     8A     -1.264993     9A     -1.193969
      10A     -1.098945    11A     -1.023806    12A     -0.974950
      13A     -0.935199    14A     -0.892473    15A     -0.828108
      16A     -0.791673    17A     -0.753756    18A     -0.738561
      19A     -0.712181    20A     -0.702818    21A     -0.679977
      22A     -0.655878    23A     -0.638313    24A     -0.628831

  @DF-RHF Final Energy:  -250.65675254489170

   => Energetics <=

    Nuclear Repulsion Energy =            265.8482594146290694
    One-Electron Energy =                -855.0978265775836462
    Two-Electron Energy =                 338.5928146180629028
    Total Energy =                       -250.6567525448916740
  Basis Set: (AUG-CC-PVTZ AUX)
    Blend: AUG-CC-PVTZ-RI
    Molecular point group: c1

    Geometry (in Angstrom), charge = 1, multiplicity = 1:

       Center              X                  Y                   Z               Mass
    ------------   -----------------  -----------------  -----------------  -----------------
         N           -1.453671893478    -0.725320782949     0.020726443604    14.003074004430
         C            0.793731106522     0.025508217051    -0.371199556396    12.000000000000
         C            0.000350106522    -1.177129782949     0.124934443604    12.000000000000
         C           -0.014174893478     1.195438217051     0.196737443604    12.000000000000
         C           -1.463153893478     0.807975217051    -0.066875556396    12.000000000000
         C            2.253469106522    -0.011703782949     0.063159443604    12.000000000000
         H            0.741154106522     0.055195217051    -1.467785556396     1.007825032230
         H            0.129244106522    -2.097393782949    -0.447517556396     1.007825032230
         H            0.200837106522    -1.373792782949     1.181044443604     1.007825032230
         H            0.229860106522     2.149718217051    -0.276542556396     1.007825032230
         H            0.173100106522     1.294854217051     1.271717443604     1.007825032230
         H           -2.000780893478    -1.055702782949     0.824438443604     1.007825032230
         H           -1.899650893478    -1.132317782949    -0.809598556396     1.007825032230
         H           -2.188933893478     1.193357217051     0.650030443604     1.007825032230
         H           -1.783895893478     1.066155217051    -1.077098556396     1.007825032230
         H            2.789670506522    -0.866060282949    -0.357943756396     1.007825032230
         H            2.777343106522     0.875676217051    -0.298959556396     1.007825032230
         H            2.333520106522    -0.034612782949     1.154199443604     1.007825032230

  Basis Set: AUG-CC-PVTZ
    Blend: AUG-CC-PVTZ
  Basis Set: (AUG-CC-PVTZ AUX)
    Blend: AUG-CC-PVTZ-JKFIT
	 Reference Energy          =    -250.6567525448917024 [Eh]
	 Singles Energy            =      -0.0000000000000000 [Eh]
	 Same-Spin Energy          =      -0.2611019587064408 [Eh]
	 Opposite-Spin Energy      =      -0.9373884605646434 [Eh]
	 Correlation Energy        =      -1.1984904192710841 [Eh]
	 Total Energy              =    -251.8552429641627839 [Eh]

	 ================> DF-SCS-MP2 Energies <==================
	-----------------------------------------------------------
	 SCS Same-Spin Scale       =       0.3333333333333333 [-]
	 SCS Opposite-Spin Scale   =       1.2000000000000000 [-]
	 SCS Same-Spin Energy      =      -0.0870339862354803 [Eh]
	 SCS Opposite-Spin Energy  =      -1.1248661526775721 [Eh]
	 SCS Correlation Energy    =      -1.2119001389130524 [Eh]
	 SCS Total Energy          =    -251.8686526838047541 [Eh]
	-----------------------------------------------------------

  Dipole Moment: [D]
     X:    -4.2140      Y:    -1.8627      Z:    -0.0250     Total:     4.6074

*** Psi4 exiting successfully. Buy a developer a beer!
