                               Psi4 1.4a3.dev225

  ==> Input File <==

--------------------------------------------------------------------------
#psi4
#
memory 32 gb

molecule  {
1 1
  N       -1.4684160    -0.7256290     0.0168660
  C        0.7789870     0.0252000    -0.3750600
  C       -0.0143940    -1.1774380     0.1210740
  C       -0.0289190     1.1951300     0.1928770
  C       -1.4778980     0.8076670    -0.0707360
  C        2.2387250    -0.0120120     0.0592990
  H        0.7264100     0.0548870    -1.4716460
  H        0.1145000    -2.0977020    -0.4513780
  H        0.1860930    -1.3741010     1.1771840
  H        0.2151160     2.1494100    -0.2804030
  H        0.1549376     1.2927313     1.2482350
  H       -2.0155250    -1.0560110     0.8205780
  H       -1.9143950    -1.1326260    -0.8134590
  H       -2.2036780     1.1930490     0.6461700
  H       -1.7986400     1.0658470    -1.0809590
  H        2.7502970    -0.8896260    -0.3442510
  H        2.7625990     0.8753680    -0.3028200
  H        2.3187760    -0.0349210     1.1503390
units angstrom
no_reorient  #important for SAPT in psi4, default
symmetry c1  #important for SAPT in psi4, default
}

set PROPERTIES_ORIGIN ["COM"]
properties('MP2/aug-cc-pvtz', properties = ['dipole'])
--------------------------------------------------------------------------

    Molecular point group: c1
  Charge       = 1
  Multiplicity = 1
  Basis Set: AUG-CC-PVTZ
    Blend: AUG-CC-PVTZ
  Basis Set: (AUG-CC-PVTZ AUX)
    Blend: AUG-CC-PVTZ-JKFIT

    Orbital Energies [Eh]
    ---------------------

    Doubly Occupied:

       1A    -15.865573     2A    -11.463673     3A    -11.460028
       4A    -11.402899     5A    -11.394395     6A    -11.359602
       7A     -1.492684     8A     -1.265434     9A     -1.194244
      10A     -1.098979    11A     -1.024972    12A     -0.975377
      13A     -0.935406    14A     -0.892344    15A     -0.828534
      16A     -0.792300    17A     -0.753669    18A     -0.739575
      19A     -0.711872    20A     -0.703800    21A     -0.681549
      22A     -0.654888    23A     -0.638990    24A     -0.629404

  @DF-RHF Final Energy:  -250.65695263094517

   => Energetics <=

    Nuclear Repulsion Energy =            265.9762380197356606
    One-Electron Energy =                -855.3459969354379382
    Two-Electron Energy =                 338.7128062847571073
    Total Energy =                       -250.6569526309451703
  Basis Set: (AUG-CC-PVTZ AUX)
    Blend: AUG-CC-PVTZ-RI
    Molecular point group: c1

    Geometry (in Angstrom), charge = 1, multiplicity = 1:

       Center              X                  Y                   Z               Mass
    ------------   -----------------  -----------------  -----------------  -----------------
         N           -1.453343574450    -0.725027295391     0.020750660348    14.003074004430
         C            0.794059425550     0.025801704609    -0.371175339652    12.000000000000
         C            0.000678425550    -1.176836295391     0.124958660348    12.000000000000
         C           -0.013846574450     1.195731704609     0.196761660348    12.000000000000
         C           -1.462825574450     0.808268704609    -0.066851339652    12.000000000000
         C            2.253797425550    -0.011410295391     0.063183660348    12.000000000000
         H            0.741482425550     0.055488704609    -1.467761339652     1.007825032230
         H            0.129572425550    -2.097100295391    -0.447493339652     1.007825032230
         H            0.201165425550    -1.373499295391     1.181068660348     1.007825032230
         H            0.230188425550     2.150011704609    -0.276518339652     1.007825032230
         H            0.170010025550     1.293333004609     1.252119660348     1.007825032230
         H           -2.000452574450    -1.055409295391     0.824462660348     1.007825032230
         H           -1.899322574450    -1.132024295391    -0.809574339652     1.007825032230
         H           -2.188605574450     1.193650704609     0.650054660348     1.007825032230
         H           -1.783567574450     1.066448704609    -1.077074339652     1.007825032230
         H            2.765369425550    -0.889024295391    -0.340366339652     1.007825032230
         H            2.777671425550     0.875969704609    -0.298935339652     1.007825032230
         H            2.333848425550    -0.034319295391     1.154223660348     1.007825032230

  Basis Set: AUG-CC-PVTZ
    Blend: AUG-CC-PVTZ
  Basis Set: (AUG-CC-PVTZ AUX)
    Blend: AUG-CC-PVTZ-JKFIT
	 Reference Energy          =    -250.6569526309451703 [Eh]
	 Singles Energy            =      -0.0000000000000000 [Eh]
	 Same-Spin Energy          =      -0.2610801834998605 [Eh]
	 Opposite-Spin Energy      =      -0.9372713772978515 [Eh]
	 Correlation Energy        =      -1.1983515607977120 [Eh]
	 Total Energy              =    -251.8553041917428743 [Eh]

	 ================> DF-SCS-MP2 Energies <==================
	-----------------------------------------------------------
	 SCS Same-Spin Scale       =       0.3333333333333333 [-]
	 SCS Opposite-Spin Scale   =       1.2000000000000000 [-]
	 SCS Same-Spin Energy      =      -0.0870267278332868 [Eh]
	 SCS Opposite-Spin Energy  =      -1.1247256527574216 [Eh]
	 SCS Correlation Energy    =      -1.2117523805907084 [Eh]
	 SCS Total Energy          =    -251.8687050115358659 [Eh]
	-----------------------------------------------------------

  Dipole Moment: [D]
     X:    -4.2198      Y:    -1.8670      Z:    -0.0102     Total:     4.6144

*** Psi4 exiting successfully. Buy a developer a beer!
