                               Psi4 1.4a3.dev225

  ==> Input File <==

--------------------------------------------------------------------------
#psi4
#
memory 32 gb

molecule  {
1 1
  N       -1.4684160    -0.7256290     0.0168660
  C        0.7789870     0.0252000    -0.3750600
  C       -0.0143940    -1.1774380     0.1210740
  C       -0.0289190     1.1951300     0.1928770
  C       -1.4775893     0.7577494    -0.0678840
  C        2.2387250    -0.0120120     0.0592990
  H        0.7264100     0.0548870    -1.4716460
  H        0.1145000    -2.0977020    -0.4513780
  H        0.1860930    -1.3741010     1.1771840
  H        0.2151160     2.1494100    -0.2804030
  H        0.1583560     1.2945460     1.2678570
  H       -2.0155250    -1.0560110     0.8205780
  H       -1.9143950    -1.1326260    -0.8134590
  H       -2.2036780     1.1930490     0.6461700
  H       -1.7986400     1.0658470    -1.0809590
  H        2.7502970    -0.8896260    -0.3442510
  H        2.7625990     0.8753680    -0.3028200
  H        2.3187760    -0.0349210     1.1503390
units angstrom
no_reorient  #important for SAPT in psi4, default
symmetry c1  #important for SAPT in psi4, default
}

set PROPERTIES_ORIGIN ["COM"]
properties('MP2/aug-cc-pvtz', properties = ['dipole'])
--------------------------------------------------------------------------

    Molecular point group: c1
  Charge       = 1
  Multiplicity = 1
  Basis Set: AUG-CC-PVTZ
    Blend: AUG-CC-PVTZ
  Basis Set: (AUG-CC-PVTZ AUX)
    Blend: AUG-CC-PVTZ-JKFIT

    Orbital Energies [Eh]
    ---------------------

    Doubly Occupied:

       1A    -15.870006     2A    -11.461717     3A    -11.461388
       4A    -11.402664     5A    -11.396403     6A    -11.359474
       7A     -1.504866     8A     -1.265385     9A     -1.192422
      10A     -1.100476    11A     -1.023057    12A     -0.978773
      13A     -0.938926    14A     -0.898511    15A     -0.829481
      16A     -0.785934    17A     -0.762721    18A     -0.736469
      19A     -0.711777    20A     -0.702197    21A     -0.675427
      22A     -0.653497    23A     -0.637932    24A     -0.626816

  @DF-RHF Final Energy:  -250.65490797304457

   => Energetics <=

    Nuclear Repulsion Energy =            266.4458591424415772
    One-Electron Energy =                -856.2488895673404841
    Two-Electron Energy =                 339.1481224518543627
    Total Energy =                       -250.6549079730445442
  Basis Set: (AUG-CC-PVTZ AUX)
    Blend: AUG-CC-PVTZ-RI
    Molecular point group: c1

    Geometry (in Angstrom), charge = 1, multiplicity = 1:

       Center              X                  Y                   Z               Mass
    ------------   -----------------  -----------------  -----------------  -----------------
         N           -1.453426615105    -0.718091136436     0.020123465918    14.003074004430
         C            0.793976384895     0.032737863564    -0.371802534082    12.000000000000
         C            0.000595384895    -1.169900136436     0.124331465918    12.000000000000
         C           -0.013929615105     1.202667863564     0.196134465918    12.000000000000
         C           -1.462599915105     0.765287263564    -0.064626534082    12.000000000000
         C            2.253714384895    -0.004474136436     0.062556465918    12.000000000000
         H            0.741399384895     0.062424863564    -1.468388534082     1.007825032230
         H            0.129489384895    -2.090164136436    -0.448120534082     1.007825032230
         H            0.201082384895    -1.366563136436     1.180441465918     1.007825032230
         H            0.230105384895     2.156947863564    -0.277145534082     1.007825032230
         H            0.173345384895     1.302083863564     1.271114465918     1.007825032230
         H           -2.000535615105    -1.048473136436     0.823835465918     1.007825032230
         H           -1.899405615105    -1.125088136436    -0.810201534082     1.007825032230
         H           -2.188688615105     1.200586863564     0.649427465918     1.007825032230
         H           -1.783650615105     1.073384863564    -1.077701534082     1.007825032230
         H            2.765286384895    -0.882088136436    -0.340993534082     1.007825032230
         H            2.777588384895     0.882905863564    -0.299562534082     1.007825032230
         H            2.333765384895    -0.027383136436     1.153596465918     1.007825032230

  Basis Set: AUG-CC-PVTZ
    Blend: AUG-CC-PVTZ
  Basis Set: (AUG-CC-PVTZ AUX)
    Blend: AUG-CC-PVTZ-JKFIT
	 Reference Energy          =    -250.6549079730445726 [Eh]
	 Singles Energy            =      -0.0000000000000000 [Eh]
	 Same-Spin Energy          =      -0.2613486540990186 [Eh]
	 Opposite-Spin Energy      =      -0.9374805486887342 [Eh]
	 Correlation Energy        =      -1.1988292027877527 [Eh]
	 Total Energy              =    -251.8537371758323218 [Eh]

	 ================> DF-SCS-MP2 Energies <==================
	-----------------------------------------------------------
	 SCS Same-Spin Scale       =       0.3333333333333333 [-]
	 SCS Opposite-Spin Scale   =       1.2000000000000000 [-]
	 SCS Same-Spin Energy      =      -0.0871162180330062 [Eh]
	 SCS Opposite-Spin Energy  =      -1.1249766584264811 [Eh]
	 SCS Correlation Energy    =      -1.2120928764594874 [Eh]
	 SCS Total Energy          =    -251.8670008495040520 [Eh]
	-----------------------------------------------------------

  Dipole Moment: [D]
     X:    -4.2264      Y:    -1.9459      Z:    -0.0104     Total:     4.6529

*** Psi4 exiting successfully. Buy a developer a beer!
