                               Psi4 1.4a3.dev225

  ==> Input File <==

--------------------------------------------------------------------------
#psi4
#
memory 32 gb

molecule  {
1 1
  N       -1.4684160    -0.7256290     0.0168660
  C        0.7789870     0.0252000    -0.3750600
  C       -0.0392814    -1.2602680    -0.0132342
  C       -0.0289190     1.1951300     0.1928770
  C       -1.4778980     0.8076670    -0.0707360
  C        2.2387250    -0.0120120     0.0592990
  H        0.7264100     0.0548870    -1.4716460
  H        0.1145000    -2.0977020    -0.4513780
  H        0.1860930    -1.3741010     1.1771840
  H        0.2151160     2.1494100    -0.2804030
  H        0.1583560     1.2945460     1.2678570
  H       -2.0155250    -1.0560110     0.8205780
  H       -1.9143950    -1.1326260    -0.8134590
  H       -2.2036780     1.1930490     0.6461700
  H       -1.7986400     1.0658470    -1.0809590
  H        2.7502970    -0.8896260    -0.3442510
  H        2.7625990     0.8753680    -0.3028200
  H        2.3187760    -0.0349210     1.1503390
units angstrom
no_reorient  #important for SAPT in psi4, default
symmetry c1  #important for SAPT in psi4, default
}

set PROPERTIES_ORIGIN ["COM"]
properties('MP2/aug-cc-pvtz', properties = ['dipole'])
--------------------------------------------------------------------------

    Molecular point group: c1
  Charge       = 1
  Multiplicity = 1
  Basis Set: AUG-CC-PVTZ
    Blend: AUG-CC-PVTZ
  Basis Set: (AUG-CC-PVTZ AUX)
    Blend: AUG-CC-PVTZ-JKFIT

    Orbital Energies [Eh]
    ---------------------

    Doubly Occupied:

       1A    -15.867815     2A    -11.466206     3A    -11.461775
       4A    -11.407167     5A    -11.398521     6A    -11.359354
       7A     -1.492804     8A     -1.259284     9A     -1.197530
      10A     -1.100920    11A     -1.027312    12A     -0.968049
      13A     -0.947416    14A     -0.901611    15A     -0.816743
      16A     -0.789156    17A     -0.773727    18A     -0.737731
      19A     -0.716380    20A     -0.685365    21A     -0.677884
      22A     -0.656685    23A     -0.634380    24A     -0.621184

  @DF-RHF Final Energy:  -250.62407526078653

   => Energetics <=

    Nuclear Repulsion Energy =            264.9471848276220385
    One-Electron Energy =                -853.2125261158530520
    Two-Electron Energy =                 337.6412660274444306
    Total Energy =                       -250.6240752607865261
  Basis Set: (AUG-CC-PVTZ AUX)
    Blend: AUG-CC-PVTZ-RI
    Molecular point group: c1

    Geometry (in Angstrom), charge = 1, multiplicity = 1:

       Center              X                  Y                   Z               Mass
    ------------   -----------------  -----------------  -----------------  -----------------
         N           -1.449914840131    -0.713503881161     0.039240541885    14.003074004430
         C            0.797488159869     0.037325118839    -0.352685458115    12.000000000000
         C           -0.020780240131    -1.248142881161     0.009140341885    12.000000000000
         C           -0.010417840131     1.207255118839     0.215251541885    12.000000000000
         C           -1.459396840131     0.819792118839    -0.048361458115    12.000000000000
         C            2.257226159869     0.000113118839     0.081673541885    12.000000000000
         H            0.744911159869     0.067012118839    -1.449271458115     1.007825032230
         H            0.133001159869    -2.085576881161    -0.429003458115     1.007825032230
         H            0.204594159869    -1.361975881161     1.199558541885     1.007825032230
         H            0.233617159869     2.161535118839    -0.258028458115     1.007825032230
         H            0.176857159869     1.306671118839     1.290231541885     1.007825032230
         H           -1.997023840131    -1.043885881161     0.842952541885     1.007825032230
         H           -1.895893840131    -1.120500881161    -0.791084458115     1.007825032230
         H           -2.185176840131     1.205174118839     0.668544541885     1.007825032230
         H           -1.780138840131     1.077972118839    -1.058584458115     1.007825032230
         H            2.768798159869    -0.877500881161    -0.321876458115     1.007825032230
         H            2.781100159869     0.887493118839    -0.280445458115     1.007825032230
         H            2.337277159869    -0.022795881161     1.172713541885     1.007825032230

  Basis Set: AUG-CC-PVTZ
    Blend: AUG-CC-PVTZ
  Basis Set: (AUG-CC-PVTZ AUX)
    Blend: AUG-CC-PVTZ-JKFIT
	 Reference Energy          =    -250.6240752607865261 [Eh]
	 Singles Energy            =      -0.0000000000000000 [Eh]
	 Same-Spin Energy          =      -0.2612491511244143 [Eh]
	 Opposite-Spin Energy      =      -0.9387152841078135 [Eh]
	 Correlation Energy        =      -1.1999644352322278 [Eh]
	 Total Energy              =    -251.8240396960187581 [Eh]

	 ================> DF-SCS-MP2 Energies <==================
	-----------------------------------------------------------
	 SCS Same-Spin Scale       =       0.3333333333333333 [-]
	 SCS Opposite-Spin Scale   =       1.2000000000000000 [-]
	 SCS Same-Spin Energy      =      -0.0870830503748048 [Eh]
	 SCS Opposite-Spin Energy  =      -1.1264583409293760 [Eh]
	 SCS Correlation Energy    =      -1.2135413913041808 [Eh]
	 SCS Total Energy          =    -251.8376166520907020 [Eh]
	-----------------------------------------------------------

  Dipole Moment: [D]
     X:    -4.2665      Y:    -1.7838      Z:    -0.0465     Total:     4.6246

*** Psi4 exiting successfully. Buy a developer a beer!
