                               Psi4 1.4a3.dev225

  ==> Input File <==

--------------------------------------------------------------------------
#psi4
#
memory 32 gb

molecule  {
1 1
  N       -1.4684160    -0.7256290     0.0168660
  C        0.7789870     0.0252000    -0.3750600
  C       -0.0143940    -1.1774380     0.1210740
  C       -0.0615619     1.2352445     0.0411977
  C       -1.4778980     0.8076670    -0.0707360
  C        2.2387250    -0.0120120     0.0592990
  H        0.7264100     0.0548870    -1.4716460
  H        0.1145000    -2.0977020    -0.4513780
  H        0.1860930    -1.3741010     1.1771840
  H        0.2151160     2.1494100    -0.2804030
  H        0.1583560     1.2945460     1.2678570
  H       -2.0155250    -1.0560110     0.8205780
  H       -1.9143950    -1.1326260    -0.8134590
  H       -2.2036780     1.1930490     0.6461700
  H       -1.7986400     1.0658470    -1.0809590
  H        2.7502970    -0.8896260    -0.3442510
  H        2.7625990     0.8753680    -0.3028200
  H        2.3187760    -0.0349210     1.1503390
units angstrom
no_reorient  #important for SAPT in psi4, default
symmetry c1  #important for SAPT in psi4, default
}

set PROPERTIES_ORIGIN ["COM"]
properties('MP2/aug-cc-pvtz', properties = ['dipole'])
--------------------------------------------------------------------------

    Molecular point group: c1
  Charge       = 1
  Multiplicity = 1
  Basis Set: AUG-CC-PVTZ
    Blend: AUG-CC-PVTZ
  Basis Set: (AUG-CC-PVTZ AUX)
    Blend: AUG-CC-PVTZ-JKFIT

    Orbital Energies [Eh]
    ---------------------

    Doubly Occupied:

       1A    -15.868982     2A    -11.464901     3A    -11.462505
       4A    -11.405241     5A    -11.401850     6A    -11.360852
       7A     -1.495259     8A     -1.267272     9A     -1.201591
      10A     -1.100210    11A     -1.026530    12A     -0.974288
      13A     -0.941822    14A     -0.895235    15A     -0.822175
      16A     -0.787828    17A     -0.765435    18A     -0.751347
      19A     -0.725200    20A     -0.709408    21A     -0.668568
      22A     -0.652501    23A     -0.642094    24A     -0.601282

  @DF-RHF Final Energy:  -250.63089433096047

   => Energetics <=

    Nuclear Repulsion Energy =            265.8500226015983117
    One-Electron Energy =                -854.9770810434080204
    Two-Electron Energy =                 338.4961641108492358
    Total Energy =                       -250.6308943309604729
  Basis Set: (AUG-CC-PVTZ AUX)
    Blend: AUG-CC-PVTZ-RI
    Molecular point group: c1

    Geometry (in Angstrom), charge = 1, multiplicity = 1:

       Center              X                  Y                   Z               Mass
    ------------   -----------------  -----------------  -----------------  -----------------
         N           -1.448833896222    -0.730639605272     0.041661686199    14.003074004430
         C            0.798569103778     0.020189394728    -0.350264313801    12.000000000000
         C            0.005188103778    -1.182448605272     0.145869686199    12.000000000000
         C           -0.041979796222     1.230233894728     0.065993386199    12.000000000000
         C           -1.458315896222     0.802656394728    -0.045940313801    12.000000000000
         C            2.258307103778    -0.017022605272     0.084094686199    12.000000000000
         H            0.745992103778     0.049876394728    -1.446850313801     1.007825032230
         H            0.134082103778    -2.102712605272    -0.426582313801     1.007825032230
         H            0.205675103778    -1.379111605272     1.201979686199     1.007825032230
         H            0.234698103778     2.144399394728    -0.255607313801     1.007825032230
         H            0.177938103778     1.289535394728     1.292652686199     1.007825032230
         H           -1.995942896222    -1.061021605272     0.845373686199     1.007825032230
         H           -1.894812896222    -1.137636605272    -0.788663313801     1.007825032230
         H           -2.184095896222     1.188038394728     0.670965686199     1.007825032230
         H           -1.779057896222     1.060836394728    -1.056163313801     1.007825032230
         H            2.769879103778    -0.894636605272    -0.319455313801     1.007825032230
         H            2.782181103778     0.870357394728    -0.278024313801     1.007825032230
         H            2.338358103778    -0.039931605272     1.175134686199     1.007825032230

  Basis Set: AUG-CC-PVTZ
    Blend: AUG-CC-PVTZ
  Basis Set: (AUG-CC-PVTZ AUX)
    Blend: AUG-CC-PVTZ-JKFIT
	 Reference Energy          =    -250.6308943309604729 [Eh]
	 Singles Energy            =      -0.0000000000000000 [Eh]
	 Same-Spin Energy          =      -0.2616075202823095 [Eh]
	 Opposite-Spin Energy      =      -0.9387567168234241 [Eh]
	 Correlation Energy        =      -1.2003642371057337 [Eh]
	 Total Energy              =    -251.8312585680662039 [Eh]

	 ================> DF-SCS-MP2 Energies <==================
	-----------------------------------------------------------
	 SCS Same-Spin Scale       =       0.3333333333333333 [-]
	 SCS Opposite-Spin Scale   =       1.2000000000000000 [-]
	 SCS Same-Spin Energy      =      -0.0872025067607698 [Eh]
	 SCS Opposite-Spin Energy  =      -1.1265080601881088 [Eh]
	 SCS Correlation Energy    =      -1.2137105669488786 [Eh]
	 SCS Total Energy          =    -251.8446048979093632 [Eh]
	-----------------------------------------------------------

  Dipole Moment: [D]
     X:    -4.2214      Y:    -1.9537      Z:    -0.0137     Total:     4.6516

*** Psi4 exiting successfully. Buy a developer a beer!
