                               Psi4 1.4a3.dev225

  ==> Input File <==

--------------------------------------------------------------------------
#psi4
#
memory 32 gb

molecule  {
1 1
  N       -1.4684160    -0.7256290     0.0168660
  C        0.7789870     0.0252000    -0.3750600
  C       -0.0143940    -1.1774380     0.1210740
  C       -0.0289190     1.1951300     0.1928770
  C       -1.4778980     0.8076670    -0.0707360
  C        2.2387250    -0.0120120     0.0592990
  H        0.7264100     0.0548870    -1.4716460
  H        0.1145000    -2.0977020    -0.4513780
  H        0.1860930    -1.3741010     1.1771840
  H        0.2151160     2.1494100    -0.2804030
  H        0.1583560     1.2945460     1.2678570
  H       -2.0155250    -1.0560110     0.8205780
  H       -1.9143950    -1.1326260    -0.8134590
  H       -2.2369548     1.2107187     0.6790400
  H       -1.7986400     1.0658470    -1.0809590
  H        2.7502970    -0.8896260    -0.3442510
  H        2.7625990     0.8753680    -0.3028200
  H        2.3187760    -0.0349210     1.1503390
units angstrom
no_reorient  #important for SAPT in psi4, default
symmetry c1  #important for SAPT in psi4, default
}

set PROPERTIES_ORIGIN ["COM"]
properties('MP2/aug-cc-pvtz', properties = ['dipole'])
--------------------------------------------------------------------------

    Molecular point group: c1
  Charge       = 1
  Multiplicity = 1
  Basis Set: AUG-CC-PVTZ
    Blend: AUG-CC-PVTZ
  Basis Set: (AUG-CC-PVTZ AUX)
    Blend: AUG-CC-PVTZ-JKFIT

    Orbital Energies [Eh]
    ---------------------

    Doubly Occupied:

       1A    -15.865796     2A    -11.468960     3A    -11.460134
       4A    -11.403245     5A    -11.396941     6A    -11.359741
       7A     -1.492602     8A     -1.265130     9A     -1.191627
      10A     -1.099067    11A     -1.020862    12A     -0.974520
      13A     -0.935101    14A     -0.890348    15A     -0.827785
      16A     -0.788857    17A     -0.750531    18A     -0.738299
      19A     -0.711864    20A     -0.703852    21A     -0.678060
      22A     -0.654773    23A     -0.638715    24A     -0.628853

  @DF-RHF Final Energy:  -250.65455974913920

   => Energetics <=

    Nuclear Repulsion Energy =            265.6476567345188187
    One-Electron Energy =                -854.7131076256193865
    Two-Electron Energy =                 338.4108911419613719
    Total Energy =                       -250.6545597491391959
  Basis Set: (AUG-CC-PVTZ AUX)
    Blend: AUG-CC-PVTZ-RI
    Molecular point group: c1

    Geometry (in Angstrom), charge = 1, multiplicity = 1:

       Center              X                  Y                   Z               Mass
    ------------   -----------------  -----------------  -----------------  -----------------
         N           -1.452994061089    -0.725255373860     0.020136204939    14.003074004430
         C            0.794408938911     0.025573626140    -0.371789795061    12.000000000000
         C            0.001027938911    -1.177064373860     0.124344204939    12.000000000000
         C           -0.013497061089     1.195503626140     0.196147204939    12.000000000000
         C           -1.462476061089     0.808040626140    -0.067465795061    12.000000000000
         C            2.254146938911    -0.011638373860     0.062569204939    12.000000000000
         H            0.741831938911     0.055260626140    -1.468375795061     1.007825032230
         H            0.129921938911    -2.097328373860    -0.448107795061     1.007825032230
         H            0.201514938911    -1.373727373860     1.180454204939     1.007825032230
         H            0.230537938911     2.149783626140    -0.277132795061     1.007825032230
         H            0.173777938911     1.294919626140     1.271127204939     1.007825032230
         H           -2.000103061089    -1.055637373860     0.823848204939     1.007825032230
         H           -1.898973061089    -1.132252373860    -0.810188795061     1.007825032230
         H           -2.221532861089     1.211092326140     0.682310204939     1.007825032230
         H           -1.783218061089     1.066220626140    -1.077688795061     1.007825032230
         H            2.765718938911    -0.889252373860    -0.340980795061     1.007825032230
         H            2.778020938911     0.875741626140    -0.299549795061     1.007825032230
         H            2.334197938911    -0.034547373860     1.153609204939     1.007825032230

  Basis Set: AUG-CC-PVTZ
    Blend: AUG-CC-PVTZ
  Basis Set: (AUG-CC-PVTZ AUX)
    Blend: AUG-CC-PVTZ-JKFIT
	 Reference Energy          =    -250.6545597491391959 [Eh]
	 Singles Energy            =      -0.0000000000000000 [Eh]
	 Same-Spin Energy          =      -0.2611696919418515 [Eh]
	 Opposite-Spin Energy      =      -0.9378288909804485 [Eh]
	 Correlation Energy        =      -1.1989985829223000 [Eh]
	 Total Energy              =    -251.8535583320614819 [Eh]

	 ================> DF-SCS-MP2 Energies <==================
	-----------------------------------------------------------
	 SCS Same-Spin Scale       =       0.3333333333333333 [-]
	 SCS Opposite-Spin Scale   =       1.2000000000000000 [-]
	 SCS Same-Spin Energy      =      -0.0870565639806172 [Eh]
	 SCS Opposite-Spin Energy  =      -1.1253946691765382 [Eh]
	 SCS Correlation Energy    =      -1.2124512331571553 [Eh]
	 SCS Total Energy          =    -251.8670109822963639 [Eh]
	-----------------------------------------------------------

  Dipole Moment: [D]
     X:    -4.2134      Y:    -1.8668      Z:    -0.0124     Total:     4.6085

*** Psi4 exiting successfully. Buy a developer a beer!
