                               Psi4 1.4a3.dev225

  ==> Input File <==

--------------------------------------------------------------------------
#psi4
#
memory 32 gb

molecule  {
1 1
  N       -1.4684160    -0.7256290     0.0168660
  C        0.7789870     0.0252000    -0.3750600
  C       -0.0143940    -1.1774380     0.1210740
  C       -0.0289190     1.1951300     0.1928770
  C       -1.6681927     0.7567814    -0.1053564
  C        2.2387250    -0.0120120     0.0592990
  H        0.7264100     0.0548870    -1.4716460
  H        0.1145000    -2.0977020    -0.4513780
  H        0.1860930    -1.3741010     1.1771840
  H        0.2151160     2.1494100    -0.2804030
  H        0.1583560     1.2945460     1.2678570
  H       -2.0155250    -1.0560110     0.8205780
  H       -1.9143950    -1.1326260    -0.8134590
  H       -2.2036780     1.1930490     0.6461700
  H       -1.7986400     1.0658470    -1.0809590
  H        2.7502970    -0.8896260    -0.3442510
  H        2.7625990     0.8753680    -0.3028200
  H        2.3187760    -0.0349210     1.1503390
units angstrom
no_reorient  #important for SAPT in psi4, default
symmetry c1  #important for SAPT in psi4, default
}

set PROPERTIES_ORIGIN ["COM"]
properties('MP2/aug-cc-pvtz', properties = ['dipole'])
--------------------------------------------------------------------------

    Molecular point group: c1
  Charge       = 1
  Multiplicity = 1
  Basis Set: AUG-CC-PVTZ
    Blend: AUG-CC-PVTZ
  Basis Set: (AUG-CC-PVTZ AUX)
    Blend: AUG-CC-PVTZ-JKFIT

    Orbital Energies [Eh]
    ---------------------

    Doubly Occupied:

       1A    -15.870777     2A    -11.462334     3A    -11.457217
       4A    -11.405508     5A    -11.402432     6A    -11.360304
       7A     -1.498725     8A     -1.257195     9A     -1.183467
      10A     -1.097488    11A     -1.032617    12A     -0.977575
      13A     -0.935282    14A     -0.893739    15A     -0.829008
      16A     -0.807321    17A     -0.776931    18A     -0.730952
      19A     -0.712626    20A     -0.692872    21A     -0.680583
      22A     -0.642061    23A     -0.634809    24A     -0.611302

  @DF-RHF Final Energy:  -250.62678538565854

   => Energetics <=

    Nuclear Repulsion Energy =            263.8840431737211816
    One-Electron Energy =                -851.1154055384920412
    Two-Electron Energy =                 336.6045769791122666
    Total Energy =                       -250.6267853856585361
  Basis Set: (AUG-CC-PVTZ AUX)
    Blend: AUG-CC-PVTZ-RI
    Molecular point group: c1

    Geometry (in Angstrom), charge = 1, multiplicity = 1:

       Center              X                  Y                   Z               Mass
    ------------   -----------------  -----------------  -----------------  -----------------
         N           -1.426860747765    -0.717956218803     0.025346283597    14.003074004430
         C            0.820542252235     0.032872781197    -0.366579716403    12.000000000000
         C            0.027161252235    -1.169765218803     0.129554283597    12.000000000000
         C            0.012636252235     1.202802781197     0.201357283597    12.000000000000
         C           -1.626637447765     0.764454181197    -0.096876116403    12.000000000000
         C            2.280280252235    -0.004339218803     0.067779283597    12.000000000000
         H            0.767965252235     0.062559781197    -1.463165716403     1.007825032230
         H            0.156055252235    -2.090029218803    -0.442897716403     1.007825032230
         H            0.227648252235    -1.366428218803     1.185664283597     1.007825032230
         H            0.256671252235     2.157082781197    -0.271922716403     1.007825032230
         H            0.199911252235     1.302218781197     1.276337283597     1.007825032230
         H           -1.973969747765    -1.048338218803     0.829058283597     1.007825032230
         H           -1.872839747765    -1.124953218803    -0.804978716403     1.007825032230
         H           -2.162122747765     1.200721781197     0.654650283597     1.007825032230
         H           -1.757084747765     1.073519781197    -1.072478716403     1.007825032230
         H            2.791852252235    -0.881953218803    -0.335770716403     1.007825032230
         H            2.804154252235     0.883040781197    -0.294339716403     1.007825032230
         H            2.360331252235    -0.027248218803     1.158819283597     1.007825032230

  Basis Set: AUG-CC-PVTZ
    Blend: AUG-CC-PVTZ
  Basis Set: (AUG-CC-PVTZ AUX)
    Blend: AUG-CC-PVTZ-JKFIT
	 Reference Energy          =    -250.6267853856585361 [Eh]
	 Singles Energy            =      -0.0000000000000000 [Eh]
	 Same-Spin Energy          =      -0.2613258323539452 [Eh]
	 Opposite-Spin Energy      =      -0.9390142445033138 [Eh]
	 Correlation Energy        =      -1.2003400768572590 [Eh]
	 Total Energy              =    -251.8271254625157951 [Eh]

	 ================> DF-SCS-MP2 Energies <==================
	-----------------------------------------------------------
	 SCS Same-Spin Scale       =       0.3333333333333333 [-]
	 SCS Opposite-Spin Scale   =       1.2000000000000000 [-]
	 SCS Same-Spin Energy      =      -0.0871086107846484 [Eh]
	 SCS Opposite-Spin Energy  =      -1.1268170934039765 [Eh]
	 SCS Correlation Energy    =      -1.2139257041886249 [Eh]
	 SCS Total Energy          =    -251.8407110898471615 [Eh]
	-----------------------------------------------------------

  Dipole Moment: [D]
     X:    -4.0846      Y:    -1.9570      Z:     0.0157     Total:     4.5292

*** Psi4 exiting successfully. Buy a developer a beer!
