                               Psi4 1.4a3.dev225

  ==> Input File <==

--------------------------------------------------------------------------
#psi4
#
memory 32 gb

molecule  {
1 1
  N       -1.4684160    -0.7256290     0.0168660
  C        0.7894611     0.0280138    -0.3507771
  C       -0.0143940    -1.1774380     0.1210740
  C       -0.0289190     1.1951300     0.1928770
  C       -1.4778980     0.8076670    -0.0707360
  C        2.2387250    -0.0120120     0.0592990
  H        0.7264100     0.0548870    -1.4716460
  H        0.1145000    -2.0977020    -0.4513780
  H        0.1860930    -1.3741010     1.1771840
  H        0.2151160     2.1494100    -0.2804030
  H        0.1583560     1.2945460     1.2678570
  H       -2.0155250    -1.0560110     0.8205780
  H       -1.9143950    -1.1326260    -0.8134590
  H       -2.2036780     1.1930490     0.6461700
  H       -1.7986400     1.0658470    -1.0809590
  H        2.7502970    -0.8896260    -0.3442510
  H        2.7625990     0.8753680    -0.3028200
  H        2.3187760    -0.0349210     1.1503390
units angstrom
no_reorient  #important for SAPT in psi4, default
symmetry c1  #important for SAPT in psi4, default
}

set PROPERTIES_ORIGIN ["COM"]
properties('MP2/aug-cc-pvtz', properties = ['dipole'])
--------------------------------------------------------------------------

    Molecular point group: c1
  Charge       = 1
  Multiplicity = 1
  Basis Set: AUG-CC-PVTZ
    Blend: AUG-CC-PVTZ
  Basis Set: (AUG-CC-PVTZ AUX)
    Blend: AUG-CC-PVTZ-JKFIT

    Orbital Energies [Eh]
    ---------------------

    Doubly Occupied:

       1A    -15.866157     2A    -11.464374     3A    -11.460099
       4A    -11.404321     5A    -11.396718     6A    -11.359075
       7A     -1.492936     8A     -1.266645     9A     -1.194624
      10A     -1.101532    11A     -1.024996    12A     -0.972977
      13A     -0.934380    14A     -0.891863    15A     -0.827742
      16A     -0.791273    17A     -0.754436    18A     -0.741347
      19A     -0.712159    20A     -0.704286    21A     -0.679890
      22A     -0.660099    23A     -0.635045    24A     -0.626427

  @DF-RHF Final Energy:  -250.65591129631844

   => Energetics <=

    Nuclear Repulsion Energy =            265.9909034263860121
    One-Electron Energy =                -855.3668262099757840
    Two-Electron Energy =                 338.7200114872713357
    Total Energy =                       -250.6559112963184361
  Basis Set: (AUG-CC-PVTZ AUX)
    Blend: AUG-CC-PVTZ-RI
    Molecular point group: c1

    Geometry (in Angstrom), charge = 1, multiplicity = 1:

       Center              X                  Y                   Z               Mass
    ------------   -----------------  -----------------  -----------------  -----------------
         N           -1.454843445381    -0.725440718747     0.017136475936    14.003074004430
         C            0.803033654619     0.028202081253    -0.350506624064    12.000000000000
         C           -0.000821445381    -1.177249718747     0.121344475936    12.000000000000
         C           -0.015346445381     1.195318281253     0.193147475936    12.000000000000
         C           -1.464325445381     0.807855281253    -0.070465524064    12.000000000000
         C            2.252297554619    -0.011823718747     0.059569475936    12.000000000000
         H            0.739982554619     0.055075281253    -1.471375524064     1.007825032230
         H            0.128072554619    -2.097513718747    -0.451107524064     1.007825032230
         H            0.199665554619    -1.373912718747     1.177454475936     1.007825032230
         H            0.228688554619     2.149598281253    -0.280132524064     1.007825032230
         H            0.171928554619     1.294734281253     1.268127475936     1.007825032230
         H           -2.001952445381    -1.055822718747     0.820848475936     1.007825032230
         H           -1.900822445381    -1.132437718747    -0.813188524064     1.007825032230
         H           -2.190105445381     1.193237281253     0.646440475936     1.007825032230
         H           -1.785067445381     1.066035281253    -1.080688524064     1.007825032230
         H            2.763869554619    -0.889437718747    -0.343980524064     1.007825032230
         H            2.776171554619     0.875556281253    -0.302549524064     1.007825032230
         H            2.332348554619    -0.034732718747     1.150609475936     1.007825032230

  Basis Set: AUG-CC-PVTZ
    Blend: AUG-CC-PVTZ
  Basis Set: (AUG-CC-PVTZ AUX)
    Blend: AUG-CC-PVTZ-JKFIT
	 Reference Energy          =    -250.6559112963184361 [Eh]
	 Singles Energy            =      -0.0000000000000000 [Eh]
	 Same-Spin Energy          =      -0.2612197914933180 [Eh]
	 Opposite-Spin Energy      =      -0.9375638358035736 [Eh]
	 Correlation Energy        =      -1.1987836272968917 [Eh]
	 Total Energy              =    -251.8546949236153409 [Eh]

	 ================> DF-SCS-MP2 Energies <==================
	-----------------------------------------------------------
	 SCS Same-Spin Scale       =       0.3333333333333333 [-]
	 SCS Opposite-Spin Scale   =       1.2000000000000000 [-]
	 SCS Same-Spin Energy      =      -0.0870732638311060 [Eh]
	 SCS Opposite-Spin Energy  =      -1.1250766029642882 [Eh]
	 SCS Correlation Energy    =      -1.2121498667953943 [Eh]
	 SCS Total Energy          =    -251.8680611631138220 [Eh]
	-----------------------------------------------------------

  Dipole Moment: [D]
     X:    -4.2310      Y:    -1.8680      Z:    -0.0217     Total:     4.6250

*** Psi4 exiting successfully. Buy a developer a beer!
