                               Psi4 1.4a3.dev225

  ==> Input File <==

--------------------------------------------------------------------------
#psi4
#
memory 32 gb

molecule  {
1 1
  N       -1.4684160    -0.7256290     0.0168660
  C        0.7789870     0.0252000    -0.3750600
  C       -0.0143940    -1.1774380     0.1210740
  C       -0.0289190     1.1951300     0.1928770
  C       -1.4778980     0.8076670    -0.0707360
  C        2.2387250    -0.0120120     0.0592990
  H        0.7264100     0.0548870    -1.4716460
  H        0.1145000    -2.0977020    -0.4513780
  H        0.2227849    -1.4100931     1.3704669
  H        0.2151160     2.1494100    -0.2804030
  H        0.1583560     1.2945460     1.2678570
  H       -2.0155250    -1.0560110     0.8205780
  H       -1.9143950    -1.1326260    -0.8134590
  H       -2.2036780     1.1930490     0.6461700
  H       -1.7986400     1.0658470    -1.0809590
  H        2.7502970    -0.8896260    -0.3442510
  H        2.7625990     0.8753680    -0.3028200
  H        2.3187760    -0.0349210     1.1503390
units angstrom
no_reorient  #important for SAPT in psi4, default
symmetry c1  #important for SAPT in psi4, default
}

set PROPERTIES_ORIGIN ["COM"]
properties('MP2/aug-cc-pvtz', properties = ['dipole'])
--------------------------------------------------------------------------

    Molecular point group: c1
  Charge       = 1
  Multiplicity = 1
  Basis Set: AUG-CC-PVTZ
    Blend: AUG-CC-PVTZ
  Basis Set: (AUG-CC-PVTZ AUX)
    Blend: AUG-CC-PVTZ-JKFIT

    Orbital Energies [Eh]
    ---------------------

    Doubly Occupied:

       1A    -15.866876     2A    -11.479690     3A    -11.464158
       4A    -11.404714     5A    -11.396809     6A    -11.359523
       7A     -1.492719     8A     -1.264455     9A     -1.189890
      10A     -1.093827    11A     -1.021816    12A     -0.967601
      13A     -0.935548    14A     -0.891990    15A     -0.824452
      16A     -0.780262    17A     -0.754189    18A     -0.738606
      19A     -0.706809    20A     -0.687055    21A     -0.676589
      22A     -0.655501    23A     -0.636641    24A     -0.629383

  @DF-RHF Final Energy:  -250.63592143608824

   => Energetics <=

    Nuclear Repulsion Energy =            265.0252217192318653
    One-Electron Energy =                -853.4840814381295786
    Two-Electron Energy =                 337.8229382828094458
    Total Energy =                       -250.6359214360882106
  Basis Set: (AUG-CC-PVTZ AUX)
    Blend: AUG-CC-PVTZ-RI
    Molecular point group: c1

    Geometry (in Angstrom), charge = 1, multiplicity = 1:

       Center              X                  Y                   Z               Mass
    ------------   -----------------  -----------------  -----------------  -----------------
         N           -1.453813093440    -0.724627225127     0.018258460254    14.003074004430
         C            0.793589906560     0.026201774873    -0.373667539746    12.000000000000
         C            0.000208906560    -1.176436225127     0.122466460254    12.000000000000
         C           -0.014316093440     1.196131774873     0.194269460254    12.000000000000
         C           -1.463295093440     0.808668774873    -0.069343539746    12.000000000000
         C            2.253327906560    -0.011010225127     0.060691460254    12.000000000000
         H            0.741012906560     0.055888774873    -1.470253539746     1.007825032230
         H            0.129102906560    -2.096700225127    -0.449985539746     1.007825032230
         H            0.237387806560    -1.409091325127     1.371859360254     1.007825032230
         H            0.229718906560     2.150411774873    -0.279010539746     1.007825032230
         H            0.172958906560     1.295547774873     1.269249460254     1.007825032230
         H           -2.000922093440    -1.055009225127     0.821970460254     1.007825032230
         H           -1.899792093440    -1.131624225127    -0.812066539746     1.007825032230
         H           -2.189075093440     1.194050774873     0.647562460254     1.007825032230
         H           -1.784037093440     1.066848774873    -1.079566539746     1.007825032230
         H            2.764899906560    -0.888624225127    -0.342858539746     1.007825032230
         H            2.777201906560     0.876369774873    -0.301427539746     1.007825032230
         H            2.333378906560    -0.033919225127     1.151731460254     1.007825032230

  Basis Set: AUG-CC-PVTZ
    Blend: AUG-CC-PVTZ
  Basis Set: (AUG-CC-PVTZ AUX)
    Blend: AUG-CC-PVTZ-JKFIT
	 Reference Energy          =    -250.6359214360882390 [Eh]
	 Singles Energy            =      -0.0000000000000000 [Eh]
	 Same-Spin Energy          =      -0.2615166368413793 [Eh]
	 Opposite-Spin Energy      =      -0.9394095310145621 [Eh]
	 Correlation Energy        =      -1.2009261678559415 [Eh]
	 Total Energy              =    -251.8368476039441930 [Eh]

	 ================> DF-SCS-MP2 Energies <==================
	-----------------------------------------------------------
	 SCS Same-Spin Scale       =       0.3333333333333333 [-]
	 SCS Opposite-Spin Scale   =       1.2000000000000000 [-]
	 SCS Same-Spin Energy      =      -0.0871722122804598 [Eh]
	 SCS Opposite-Spin Energy  =      -1.1272914372174745 [Eh]
	 SCS Correlation Energy    =      -1.2144636494979342 [Eh]
	 SCS Total Energy          =    -251.8503850855861685 [Eh]
	-----------------------------------------------------------

  Dipole Moment: [D]
     X:    -4.2139      Y:    -1.8500      Z:    -0.0453     Total:     4.6023

*** Psi4 exiting successfully. Buy a developer a beer!
