                               Psi4 1.4a3.dev225

  ==> Input File <==

--------------------------------------------------------------------------
#psi4
#
memory 32 gb

molecule  {
1 1
  N       -1.4431604    -0.6426467     0.0787011
  C        0.7789870     0.0252000    -0.3750600
  C       -0.0143940    -1.1774380     0.1210740
  C       -0.0289190     1.1951300     0.1928770
  C       -1.4778980     0.8076670    -0.0707360
  C        2.2387250    -0.0120120     0.0592990
  H        0.7264100     0.0548870    -1.4716460
  H        0.1145000    -2.0977020    -0.4513780
  H        0.1860930    -1.3741010     1.1771840
  H        0.2151160     2.1494100    -0.2804030
  H        0.1583560     1.2945460     1.2678570
  H       -2.0155250    -1.0560110     0.8205780
  H       -1.9143950    -1.1326260    -0.8134590
  H       -2.2036780     1.1930490     0.6461700
  H       -1.7986400     1.0658470    -1.0809590
  H        2.7502970    -0.8896260    -0.3442510
  H        2.7625990     0.8753680    -0.3028200
  H        2.3187760    -0.0349210     1.1503390
units angstrom
no_reorient  #important for SAPT in psi4, default
symmetry c1  #important for SAPT in psi4, default
}

set PROPERTIES_ORIGIN ["COM"]
properties('MP2/aug-cc-pvtz', properties = ['dipole'])
--------------------------------------------------------------------------

    Molecular point group: c1
  Charge       = 1
  Multiplicity = 1
  Basis Set: AUG-CC-PVTZ
    Blend: AUG-CC-PVTZ
  Basis Set: (AUG-CC-PVTZ AUX)
    Blend: AUG-CC-PVTZ-JKFIT

    Orbital Energies [Eh]
    ---------------------

    Doubly Occupied:

       1A    -15.873301     2A    -11.460856     3A    -11.456587
       4A    -11.402206     5A    -11.394707     6A    -11.359025
       7A     -1.501432     8A     -1.261401     9A     -1.200317
      10A     -1.097865    11A     -1.024812    12A     -0.968907
      13A     -0.924650    14A     -0.905577    15A     -0.820903
      16A     -0.793026    17A     -0.764609    18A     -0.736767
      19A     -0.710652    20A     -0.694100    21A     -0.676501
      22A     -0.654393    23A     -0.637956    24A     -0.628374

  @DF-RHF Final Energy:  -250.64167894417744

   => Energetics <=

    Nuclear Repulsion Energy =            267.0794842472890878
    One-Electron Energy =                -857.5444765477126339
    Two-Electron Energy =                 339.8233133562461035
    Total Energy =                       -250.6416789441774426
  Basis Set: (AUG-CC-PVTZ AUX)
    Blend: AUG-CC-PVTZ-RI
    Molecular point group: c1

    Geometry (in Angstrom), charge = 1, multiplicity = 1:

       Center              X                  Y                   Z               Mass
    ------------   -----------------  -----------------  -----------------  -----------------
         N           -1.432235636868    -0.655562731598     0.072299022278    14.003074004430
         C            0.789911763132     0.012283968402    -0.381462077722    12.000000000000
         C           -0.003469236868    -1.190354031598     0.114671922278    12.000000000000
         C           -0.017994236868     1.182213968402     0.186474922278    12.000000000000
         C           -1.466973236868     0.794750968402    -0.077138077722    12.000000000000
         C            2.249649763132    -0.024928031598     0.052896922278    12.000000000000
         H            0.737334763132     0.041970968402    -1.478048077722     1.007825032230
         H            0.125424763132    -2.110618031598    -0.457780077722     1.007825032230
         H            0.197017763132    -1.387017031598     1.170781922278     1.007825032230
         H            0.226040763132     2.136493968402    -0.286805077722     1.007825032230
         H            0.169280763132     1.281629968402     1.261454922278     1.007825032230
         H           -2.004600236868    -1.068927031598     0.814175922278     1.007825032230
         H           -1.903470236868    -1.145542031598    -0.819861077722     1.007825032230
         H           -2.192753236868     1.180132968402     0.639767922278     1.007825032230
         H           -1.787715236868     1.052930968402    -1.087361077722     1.007825032230
         H            2.761221763132    -0.902542031598    -0.350653077722     1.007825032230
         H            2.773523763132     0.862451968402    -0.309222077722     1.007825032230
         H            2.329700763132    -0.047837031598     1.143936922278     1.007825032230

  Basis Set: AUG-CC-PVTZ
    Blend: AUG-CC-PVTZ
  Basis Set: (AUG-CC-PVTZ AUX)
    Blend: AUG-CC-PVTZ-JKFIT
	 Reference Energy          =    -250.6416789441774426 [Eh]
	 Singles Energy            =      -0.0000000000000000 [Eh]
	 Same-Spin Energy          =      -0.2624165642591720 [Eh]
	 Opposite-Spin Energy      =      -0.9394080780211045 [Eh]
	 Correlation Energy        =      -1.2018246422802765 [Eh]
	 Total Energy              =    -251.8435035864577287 [Eh]

	 ================> DF-SCS-MP2 Energies <==================
	-----------------------------------------------------------
	 SCS Same-Spin Scale       =       0.3333333333333333 [-]
	 SCS Opposite-Spin Scale   =       1.2000000000000000 [-]
	 SCS Same-Spin Energy      =      -0.0874721880863907 [Eh]
	 SCS Opposite-Spin Energy  =      -1.1272896936253254 [Eh]
	 SCS Correlation Energy    =      -1.2147618817117161 [Eh]
	 SCS Total Energy          =    -251.8564408258891660 [Eh]
	-----------------------------------------------------------

  Dipole Moment: [D]
     X:    -4.2912      Y:    -2.0463      Z:    -0.0795     Total:     4.7548

*** Psi4 exiting successfully. Buy a developer a beer!
