                               Psi4 1.4a3.dev225

  ==> Input File <==

--------------------------------------------------------------------------
#psi4
#
memory 32 gb

molecule  {
1 1
  N       -1.4684160    -0.7256290     0.0168660
  C        0.7789870     0.0252000    -0.3750600
  C       -0.0143940    -1.1774380     0.1210740
  C       -0.0289190     1.1951300     0.1928770
  C       -1.4031212     0.8078326     0.0715717
  C        2.2387250    -0.0120120     0.0592990
  H        0.7264100     0.0548870    -1.4716460
  H        0.1145000    -2.0977020    -0.4513780
  H        0.1860930    -1.3741010     1.1771840
  H        0.2151160     2.1494100    -0.2804030
  H        0.1583560     1.2945460     1.2678570
  H       -2.0155250    -1.0560110     0.8205780
  H       -1.9143950    -1.1326260    -0.8134590
  H       -2.2036780     1.1930490     0.6461700
  H       -1.7986400     1.0658470    -1.0809590
  H        2.7502970    -0.8896260    -0.3442510
  H        2.7625990     0.8753680    -0.3028200
  H        2.3187760    -0.0349210     1.1503390
units angstrom
no_reorient  #important for SAPT in psi4, default
symmetry c1  #important for SAPT in psi4, default
}

set PROPERTIES_ORIGIN ["COM"]
properties('MP2/aug-cc-pvtz', properties = ['dipole'])
--------------------------------------------------------------------------

    Molecular point group: c1
  Charge       = 1
  Multiplicity = 1
  Basis Set: AUG-CC-PVTZ
    Blend: AUG-CC-PVTZ
  Basis Set: (AUG-CC-PVTZ AUX)
    Blend: AUG-CC-PVTZ-JKFIT

    Orbital Energies [Eh]
    ---------------------

    Doubly Occupied:

       1A    -15.866602     2A    -11.471063     3A    -11.461140
       4A    -11.405602     5A    -11.393115     6A    -11.360699
       7A     -1.495359     8A     -1.274787     9A     -1.201568
      10A     -1.101215    11A     -1.020665    12A     -0.974721
      13A     -0.939796    14A     -0.898238    15A     -0.826729
      16A     -0.782508    17A     -0.761749    18A     -0.751788
      19A     -0.713011    20A     -0.710169    21A     -0.664257
      22A     -0.646949    23A     -0.636311    24A     -0.628273

  @DF-RHF Final Energy:  -250.62950924984432

   => Energetics <=

    Nuclear Repulsion Energy =            266.9959452883342692
    One-Electron Energy =                -857.2782882624735521
    Two-Electron Energy =                 339.6528337242949647
    Total Energy =                       -250.6295092498443182
  Basis Set: (AUG-CC-PVTZ AUX)
    Blend: AUG-CC-PVTZ-RI
    Molecular point group: c1

    Geometry (in Angstrom), charge = 1, multiplicity = 1:

       Center              X                  Y                   Z               Mass
    ------------   -----------------  -----------------  -----------------  -----------------
         N           -1.463805809105    -0.725071618669     0.000686448394    14.003074004430
         C            0.783597190895     0.025757381331    -0.391239551606    12.000000000000
         C           -0.009783809105    -1.176880618669     0.104894448394    12.000000000000
         C           -0.024308809105     1.195687381331     0.176697448394    12.000000000000
         C           -1.398511009105     0.808389981331     0.055392148394    12.000000000000
         C            2.243335190895    -0.011454618669     0.043119448394    12.000000000000
         H            0.731020190895     0.055444381331    -1.487825551606     1.007825032230
         H            0.119110190895    -2.097144618669    -0.467557551606     1.007825032230
         H            0.190703190895    -1.373543618669     1.161004448394     1.007825032230
         H            0.219726190895     2.149967381331    -0.296582551606     1.007825032230
         H            0.162966190895     1.295103381331     1.251677448394     1.007825032230
         H           -2.010914809105    -1.055453618669     0.804398448394     1.007825032230
         H           -1.909784809105    -1.132068618669    -0.829638551606     1.007825032230
         H           -2.199067809105     1.193606381331     0.629990448394     1.007825032230
         H           -1.794029809105     1.066404381331    -1.097138551606     1.007825032230
         H            2.754907190895    -0.889068618669    -0.360430551606     1.007825032230
         H            2.767209190895     0.875925381331    -0.318999551606     1.007825032230
         H            2.323386190895    -0.034363618669     1.134159448394     1.007825032230

  Basis Set: AUG-CC-PVTZ
    Blend: AUG-CC-PVTZ
  Basis Set: (AUG-CC-PVTZ AUX)
    Blend: AUG-CC-PVTZ-JKFIT
	 Reference Energy          =    -250.6295092498443182 [Eh]
	 Singles Energy            =      -0.0000000000000000 [Eh]
	 Same-Spin Energy          =      -0.2625069397007960 [Eh]
	 Opposite-Spin Energy      =      -0.9395943491767681 [Eh]
	 Correlation Energy        =      -1.2021012888775640 [Eh]
	 Total Energy              =    -251.8316105387218897 [Eh]

	 ================> DF-SCS-MP2 Energies <==================
	-----------------------------------------------------------
	 SCS Same-Spin Scale       =       0.3333333333333333 [-]
	 SCS Opposite-Spin Scale   =       1.2000000000000000 [-]
	 SCS Same-Spin Energy      =      -0.0875023132335987 [Eh]
	 SCS Opposite-Spin Energy  =      -1.1275132190121218 [Eh]
	 SCS Correlation Energy    =      -1.2150155322457203 [Eh]
	 SCS Total Energy          =    -251.8445247820900477 [Eh]
	-----------------------------------------------------------

  Dipole Moment: [D]
     X:    -4.1700      Y:    -1.8889      Z:     0.0149     Total:     4.5779

*** Psi4 exiting successfully. Buy a developer a beer!
