                               Psi4 1.4a3.dev225

  ==> Input File <==

--------------------------------------------------------------------------
#psi4
#
memory 32 gb

molecule  {
1 1
  N       -1.4684160    -0.7256290     0.0168660
  C        0.7789870     0.0252000    -0.3750600
  C       -0.0143940    -1.1774380     0.1210740
  C       -0.0289190     1.1951300     0.1928770
  C       -1.4608294     0.7196102    -0.0136976
  C        2.2387250    -0.0120120     0.0592990
  H        0.7264100     0.0548870    -1.4716460
  H        0.1145000    -2.0977020    -0.4513780
  H        0.1860930    -1.3741010     1.1771840
  H        0.2151160     2.1494100    -0.2804030
  H        0.1583560     1.2945460     1.2678570
  H       -2.0155250    -1.0560110     0.8205780
  H       -1.9143950    -1.1326260    -0.8134590
  H       -2.2036780     1.1930490     0.6461700
  H       -1.7986400     1.0658470    -1.0809590
  H        2.7502970    -0.8896260    -0.3442510
  H        2.7625990     0.8753680    -0.3028200
  H        2.3187760    -0.0349210     1.1503390
units angstrom
no_reorient  #important for SAPT in psi4, default
symmetry c1  #important for SAPT in psi4, default
}

set PROPERTIES_ORIGIN ["COM"]
properties('MP2/aug-cc-pvtz', properties = ['dipole'])
--------------------------------------------------------------------------

    Molecular point group: c1
  Charge       = 1
  Multiplicity = 1
  Basis Set: AUG-CC-PVTZ
    Blend: AUG-CC-PVTZ
  Basis Set: (AUG-CC-PVTZ AUX)
    Blend: AUG-CC-PVTZ-JKFIT

    Orbital Energies [Eh]
    ---------------------

    Doubly Occupied:

       1A    -15.873081     2A    -11.463319     3A    -11.461584
       4A    -11.402937     5A    -11.395448     6A    -11.359676
       7A     -1.516085     8A     -1.267539     9A     -1.193081
      10A     -1.102342    11A     -1.022313    12A     -0.982232
      13A     -0.943102    14A     -0.904370    15A     -0.830042
      16A     -0.777544    17A     -0.772748    18A     -0.737544
      19A     -0.711960    20A     -0.702900    21A     -0.664834
      22A     -0.651876    23A     -0.635924    24A     -0.626863

  @DF-RHF Final Energy:  -250.64622055909877

   => Energetics <=

    Nuclear Repulsion Energy =            267.1697524297704831
    One-Electron Energy =                -857.6332557227935922
    Two-Electron Energy =                 339.8172827339243440
    Total Energy =                       -250.6462205590987651
  Basis Set: (AUG-CC-PVTZ AUX)
    Blend: AUG-CC-PVTZ-RI
    Molecular point group: c1

    Geometry (in Angstrom), charge = 1, multiplicity = 1:

       Center              X                  Y                   Z               Mass
    ------------   -----------------  -----------------  -----------------  -----------------
         N           -1.455762571756    -0.712775381693     0.012571089024    14.003074004430
         C            0.791640428244     0.038053618307    -0.379354910976    12.000000000000
         C           -0.001740571756    -1.164584381693     0.116779089024    12.000000000000
         C           -0.016265571756     1.207983618307     0.188582089024    12.000000000000
         C           -1.448175971756     0.732463818307    -0.017992510976    12.000000000000
         C            2.251378428244     0.000841618307     0.055004089024    12.000000000000
         H            0.739063428244     0.067740618307    -1.475940910976     1.007825032230
         H            0.127153428244    -2.084848381693    -0.455672910976     1.007825032230
         H            0.198746428244    -1.361247381693     1.172889089024     1.007825032230
         H            0.227769428244     2.162263618307    -0.284697910976     1.007825032230
         H            0.171009428244     1.307399618307     1.263562089024     1.007825032230
         H           -2.002871571756    -1.043157381693     0.816283089024     1.007825032230
         H           -1.901741571756    -1.119772381693    -0.817753910976     1.007825032230
         H           -2.191024571756     1.205902618307     0.641875089024     1.007825032230
         H           -1.785986571756     1.078700618307    -1.085253910976     1.007825032230
         H            2.762950428244    -0.876772381693    -0.348545910976     1.007825032230
         H            2.775252428244     0.888221618307    -0.307114910976     1.007825032230
         H            2.331429428244    -0.022067381693     1.146044089024     1.007825032230

  Basis Set: AUG-CC-PVTZ
    Blend: AUG-CC-PVTZ
  Basis Set: (AUG-CC-PVTZ AUX)
    Blend: AUG-CC-PVTZ-JKFIT
	 Reference Energy          =    -250.6462205590987651 [Eh]
	 Singles Energy            =      -0.0000000000000000 [Eh]
	 Same-Spin Energy          =      -0.2618627396997346 [Eh]
	 Opposite-Spin Energy      =      -0.9379876295068679 [Eh]
	 Correlation Energy        =      -1.1998503692066025 [Eh]
	 Total Energy              =    -251.8460709283053802 [Eh]

	 ================> DF-SCS-MP2 Energies <==================
	-----------------------------------------------------------
	 SCS Same-Spin Scale       =       0.3333333333333333 [-]
	 SCS Opposite-Spin Scale   =       1.2000000000000000 [-]
	 SCS Same-Spin Energy      =      -0.0872875798999115 [Eh]
	 SCS Opposite-Spin Energy  =      -1.1255851554082414 [Eh]
	 SCS Correlation Energy    =      -1.2128727353081530 [Eh]
	 SCS Total Energy          =    -251.8590932944069323 [Eh]
	-----------------------------------------------------------

  Dipole Moment: [D]
     X:    -4.2257      Y:    -2.0073      Z:    -0.0038     Total:     4.6783

*** Psi4 exiting successfully. Buy a developer a beer!
