                               Psi4 1.4a3.dev225

  ==> Input File <==

--------------------------------------------------------------------------
#psi4
#
memory 32 gb

molecule  {
1 1
  N       -1.4684160    -0.7256290     0.0168660
  C        0.7789870     0.0252000    -0.3750600
  C       -0.0143940    -1.1774380     0.1210740
  C       -0.0289190     1.1951300     0.1928770
  C       -1.4778980     0.8076670    -0.0707360
  C        2.2387250    -0.0120120     0.0592990
  H        0.7264100     0.0548870    -1.4716460
  H        0.1145000    -2.0977020    -0.4513780
  H        0.1860930    -1.3741010     1.1771840
  H        0.2151160     2.1494100    -0.2804030
  H        0.1583560     1.2945460     1.2678570
  H       -2.0155250    -1.0560110     0.8205780
  H       -1.9143950    -1.1326260    -0.8134590
  H       -2.2036780     1.1930490     0.6461700
  H       -1.7986400     1.0658470    -1.0809590
  H        2.7502970    -0.8896260    -0.3442510
  H        2.7625990     0.8753680    -0.3028200
  H        2.3224339    -0.0359678     1.2001940
units angstrom
no_reorient  #important for SAPT in psi4, default
symmetry c1  #important for SAPT in psi4, default
}

set PROPERTIES_ORIGIN ["COM"]
properties('MP2/aug-cc-pvtz', properties = ['dipole'])
--------------------------------------------------------------------------

    Molecular point group: c1
  Charge       = 1
  Multiplicity = 1
  Basis Set: AUG-CC-PVTZ
    Blend: AUG-CC-PVTZ
  Basis Set: (AUG-CC-PVTZ AUX)
    Blend: AUG-CC-PVTZ-JKFIT

    Orbital Energies [Eh]
    ---------------------

    Doubly Occupied:

       1A    -15.865631     2A    -11.463850     3A    -11.460042
       4A    -11.403585     5A    -11.396724     6A    -11.365478
       7A     -1.492735     8A     -1.264829     9A     -1.193888
      10A     -1.096389    11A     -1.023487    12A     -0.974178
      13A     -0.934392    14A     -0.891807    15A     -0.827698
      16A     -0.791536    17A     -0.753670    18A     -0.739509
      19A     -0.708987    20A     -0.703680    21A     -0.676483
      22A     -0.655279    23A     -0.636205    24A     -0.628552

  @DF-RHF Final Energy:  -250.65483066159106

   => Energetics <=

    Nuclear Repulsion Energy =            265.6855037642785646
    One-Electron Energy =                -854.7834445102438394
    Two-Electron Energy =                 338.4431100843742115
    Total Energy =                       -250.6548306615910633
  Basis Set: (AUG-CC-PVTZ AUX)
    Blend: AUG-CC-PVTZ-RI
    Molecular point group: c1

    Geometry (in Angstrom), charge = 1, multiplicity = 1:

       Center              X                  Y                   Z               Mass
    ------------   -----------------  -----------------  -----------------  -----------------
         N           -1.453426407469    -0.725036284195     0.019937383688    14.003074004430
         C            0.793976592531     0.025792715805    -0.371988616312    12.000000000000
         C            0.000595592531    -1.176845284195     0.124145383688    12.000000000000
         C           -0.013929407469     1.195722715805     0.195948383688    12.000000000000
         C           -1.462908407469     0.808259715805    -0.067664616312    12.000000000000
         C            2.253714592531    -0.011419284195     0.062370383688    12.000000000000
         H            0.741399592531     0.055479715805    -1.468574616312     1.007825032230
         H            0.129489592531    -2.097109284195    -0.448306616312     1.007825032230
         H            0.201082592531    -1.373508284195     1.180255383688     1.007825032230
         H            0.230105592531     2.150002715805    -0.277331616312     1.007825032230
         H            0.173345592531     1.295138715805     1.270928383688     1.007825032230
         H           -2.000535407469    -1.055418284195     0.823649383688     1.007825032230
         H           -1.899405407469    -1.132033284195    -0.810387616312     1.007825032230
         H           -2.188688407469     1.193641715805     0.649241383688     1.007825032230
         H           -1.783650407469     1.066439715805    -1.077887616312     1.007825032230
         H            2.765286592531    -0.889033284195    -0.341179616312     1.007825032230
         H            2.777588592531     0.875960715805    -0.299748616312     1.007825032230
         H            2.337423492531    -0.035375084195     1.203265383688     1.007825032230

  Basis Set: AUG-CC-PVTZ
    Blend: AUG-CC-PVTZ
  Basis Set: (AUG-CC-PVTZ AUX)
    Blend: AUG-CC-PVTZ-JKFIT
	 Reference Energy          =    -250.6548306615910633 [Eh]
	 Singles Energy            =      -0.0000000000000000 [Eh]
	 Same-Spin Energy          =      -0.2611013833392912 [Eh]
	 Opposite-Spin Energy      =      -0.9377405233376674 [Eh]
	 Correlation Energy        =      -1.1988419066769587 [Eh]
	 Total Energy              =    -251.8536725682680242 [Eh]

	 ================> DF-SCS-MP2 Energies <==================
	-----------------------------------------------------------
	 SCS Same-Spin Scale       =       0.3333333333333333 [-]
	 SCS Opposite-Spin Scale   =       1.2000000000000000 [-]
	 SCS Same-Spin Energy      =      -0.0870337944464304 [Eh]
	 SCS Opposite-Spin Energy  =      -1.1252886280052008 [Eh]
	 SCS Correlation Energy    =      -1.2123224224516311 [Eh]
	 SCS Total Energy          =    -251.8671530840426840 [Eh]
	-----------------------------------------------------------

  Dipole Moment: [D]
     X:    -4.2228      Y:    -1.8659      Z:    -0.0380     Total:     4.6169

*** Psi4 exiting successfully. Buy a developer a beer!
