                               Psi4 1.4a3.dev225

  ==> Input File <==

--------------------------------------------------------------------------
#psi4
#
memory 32 gb

molecule  {
1 1
  N       -1.4684160    -0.7256290     0.0168660
  C        0.7789870     0.0252000    -0.3750600
  C       -0.0117901    -1.1631264     0.1433873
  C       -0.0289190     1.1951300     0.1928770
  C       -1.4778980     0.8076670    -0.0707360
  C        2.2387250    -0.0120120     0.0592990
  H        0.7264100     0.0548870    -1.4716460
  H        0.1145000    -2.0977020    -0.4513780
  H        0.1860930    -1.3741010     1.1771840
  H        0.2151160     2.1494100    -0.2804030
  H        0.1583560     1.2945460     1.2678570
  H       -2.0155250    -1.0560110     0.8205780
  H       -1.9143950    -1.1326260    -0.8134590
  H       -2.2036780     1.1930490     0.6461700
  H       -1.7986400     1.0658470    -1.0809590
  H        2.7502970    -0.8896260    -0.3442510
  H        2.7625990     0.8753680    -0.3028200
  H        2.3187760    -0.0349210     1.1503390
units angstrom
no_reorient  #important for SAPT in psi4, default
symmetry c1  #important for SAPT in psi4, default
}

set PROPERTIES_ORIGIN ["COM"]
properties('MP2/aug-cc-pvtz', properties = ['dipole'])
--------------------------------------------------------------------------

    Molecular point group: c1
  Charge       = 1
  Multiplicity = 1
  Basis Set: AUG-CC-PVTZ
    Blend: AUG-CC-PVTZ
  Basis Set: (AUG-CC-PVTZ AUX)
    Blend: AUG-CC-PVTZ-JKFIT

    Orbital Energies [Eh]
    ---------------------

    Doubly Occupied:

       1A    -15.865553     2A    -11.463564     3A    -11.460249
       4A    -11.402819     5A    -11.396531     6A    -11.359684
       7A     -1.492898     8A     -1.266116     9A     -1.193686
      10A     -1.099177    11A     -1.023697    12A     -0.976496
      13A     -0.933470    14A     -0.891731    15A     -0.830025
      16A     -0.792681    17A     -0.750547    18A     -0.740377
      19A     -0.712268    20A     -0.703559    21A     -0.679649
      22A     -0.654564    23A     -0.640485    24A     -0.628167

  @DF-RHF Final Energy:  -250.65592167543608

   => Energetics <=

    Nuclear Repulsion Energy =            266.0311723522822831
    One-Electron Energy =                -855.4582051000371621
    Two-Electron Energy =                 338.7711110723188312
    Total Energy =                       -250.6559216754360477
  Basis Set: (AUG-CC-PVTZ AUX)
    Blend: AUG-CC-PVTZ-RI
    Molecular point group: c1

    Geometry (in Angstrom), charge = 1, multiplicity = 1:

       Center              X                  Y                   Z               Mass
    ------------   -----------------  -----------------  -----------------  -----------------
         N           -1.453746514848    -0.727043255898     0.017410994293    14.003074004430
         C            0.793656485152     0.023785744102    -0.374515005707    12.000000000000
         C            0.002879385152    -1.164540655898     0.143932294293    12.000000000000
         C           -0.014249514848     1.193715744102     0.193421994293    12.000000000000
         C           -1.463228514848     0.806252744102    -0.070191005707    12.000000000000
         C            2.253394485152    -0.013426255898     0.059843994293    12.000000000000
         H            0.741079485152     0.053472744102    -1.471101005707     1.007825032230
         H            0.129169485152    -2.099116255898    -0.450833005707     1.007825032230
         H            0.200762485152    -1.375515255898     1.177728994293     1.007825032230
         H            0.229785485152     2.147995744102    -0.279858005707     1.007825032230
         H            0.173025485152     1.293131744102     1.268401994293     1.007825032230
         H           -2.000855514848    -1.057425255898     0.821122994293     1.007825032230
         H           -1.899725514848    -1.134040255898    -0.812914005707     1.007825032230
         H           -2.189008514848     1.191634744102     0.646714994293     1.007825032230
         H           -1.783970514848     1.064432744102    -1.080414005707     1.007825032230
         H            2.764966485152    -0.891040255898    -0.343706005707     1.007825032230
         H            2.777268485152     0.873953744102    -0.302275005707     1.007825032230
         H            2.333445485152    -0.036335255898     1.150883994293     1.007825032230

  Basis Set: AUG-CC-PVTZ
    Blend: AUG-CC-PVTZ
  Basis Set: (AUG-CC-PVTZ AUX)
    Blend: AUG-CC-PVTZ-JKFIT
	 Reference Energy          =    -250.6559216754360762 [Eh]
	 Singles Energy            =      -0.0000000000000000 [Eh]
	 Same-Spin Energy          =      -0.2611814471325048 [Eh]
	 Opposite-Spin Energy      =      -0.9375060705529736 [Eh]
	 Correlation Energy        =      -1.1986875176854785 [Eh]
	 Total Energy              =    -251.8546091931215472 [Eh]

	 ================> DF-SCS-MP2 Energies <==================
	-----------------------------------------------------------
	 SCS Same-Spin Scale       =       0.3333333333333333 [-]
	 SCS Opposite-Spin Scale   =       1.2000000000000000 [-]
	 SCS Same-Spin Energy      =      -0.0870604823775016 [Eh]
	 SCS Opposite-Spin Energy  =      -1.1250072846635684 [Eh]
	 SCS Correlation Energy    =      -1.2120677670410700 [Eh]
	 SCS Total Energy          =    -251.8679894424771533 [Eh]
	-----------------------------------------------------------

  Dipole Moment: [D]
     X:    -4.2158      Y:    -1.8709      Z:    -0.0130     Total:     4.6123

*** Psi4 exiting successfully. Buy a developer a beer!
