                               Psi4 1.4a3.dev225

  ==> Input File <==

--------------------------------------------------------------------------
#psi4
#
memory 32 gb

molecule  {
1 1
  N       -1.4684160    -0.7256290     0.0168660
  C        0.7789870     0.0252000    -0.3750600
  C       -0.0143940    -1.1774380     0.1210740
  C       -0.0289190     1.1951300     0.1928770
  C       -1.4778980     0.8076670    -0.0707360
  C        2.2387250    -0.0120120     0.0592990
  H        0.7264100     0.0548870    -1.4716460
  H        0.1145000    -2.0977020    -0.4513780
  H        0.1860930    -1.3741010     1.1771840
  H        0.2151160     2.1494100    -0.2804030
  H        0.1583560     1.2945460     1.2678570
  H       -2.0155250    -1.0560110     0.8205780
  H       -1.9143950    -1.1326260    -0.8134590
  H       -2.2036780     1.1930490     0.6461700
  H       -1.7986400     1.0658470    -1.0809590
  H        2.6727929    -0.9528764    -0.2887299
  H        2.7625990     0.8753680    -0.3028200
  H        2.3187760    -0.0349210     1.1503390
units angstrom
no_reorient  #important for SAPT in psi4, default
symmetry c1  #important for SAPT in psi4, default
}

set PROPERTIES_ORIGIN ["COM"]
properties('MP2/aug-cc-pvtz', properties = ['dipole'])
--------------------------------------------------------------------------

    Molecular point group: c1
  Charge       = 1
  Multiplicity = 1
  Basis Set: AUG-CC-PVTZ
    Blend: AUG-CC-PVTZ
  Basis Set: (AUG-CC-PVTZ AUX)
    Blend: AUG-CC-PVTZ-JKFIT

    Orbital Energies [Eh]
    ---------------------

    Doubly Occupied:

       1A    -15.865709     2A    -11.463621     3A    -11.460289
       4A    -11.402411     5A    -11.396216     6A    -11.360231
       7A     -1.492753     8A     -1.265211     9A     -1.194219
      10A     -1.099182    11A     -1.023961    12A     -0.974847
      13A     -0.934854    14A     -0.892184    15A     -0.826779
      16A     -0.791525    17A     -0.753661    18A     -0.743303
      19A     -0.712057    20A     -0.705030    21A     -0.678932
      22A     -0.652592    23A     -0.639874    24A     -0.628075

  @DF-RHF Final Energy:  -250.65562661098639

   => Energetics <=

    Nuclear Repulsion Energy =            265.9944923987790730
    One-Electron Energy =                -855.3852096740798743
    Two-Electron Energy =                 338.7350906643144981
    Total Energy =                       -250.6556266109863600
  Basis Set: (AUG-CC-PVTZ AUX)
    Blend: AUG-CC-PVTZ-RI
    Molecular point group: c1

    Geometry (in Angstrom), charge = 1, multiplicity = 1:

       Center              X                  Y                   Z               Mass
    ------------   -----------------  -----------------  -----------------  -----------------
         N           -1.452476349748    -0.724308147747     0.019871058042    14.003074004430
         C            0.794926650252     0.026520852253    -0.372054941958    12.000000000000
         C            0.001545650252    -1.176117147747     0.124079058042    12.000000000000
         C           -0.012979349748     1.196450852253     0.195882058042    12.000000000000
         C           -1.461958349748     0.808987852253    -0.067730941958    12.000000000000
         C            2.254664650252    -0.010691147747     0.062304058042    12.000000000000
         H            0.742349650252     0.056207852253    -1.468640941958     1.007825032230
         H            0.130439650252    -2.096381147747    -0.448372941958     1.007825032230
         H            0.202032650252    -1.372780147747     1.180189058042     1.007825032230
         H            0.231055650252     2.150730852253    -0.277397941958     1.007825032230
         H            0.174295650252     1.295866852253     1.270862058042     1.007825032230
         H           -1.999585349748    -1.054690147747     0.823583058042     1.007825032230
         H           -1.898455349748    -1.131305147747    -0.810453941958     1.007825032230
         H           -2.187738349748     1.194369852253     0.649175058042     1.007825032230
         H           -1.782700349748     1.067167852253    -1.077953941958     1.007825032230
         H            2.688732550252    -0.951555547747    -0.285724841958     1.007825032230
         H            2.778538650252     0.876688852253    -0.299814941958     1.007825032230
         H            2.334715650252    -0.033600147747     1.153344058042     1.007825032230

  Basis Set: AUG-CC-PVTZ
    Blend: AUG-CC-PVTZ
  Basis Set: (AUG-CC-PVTZ AUX)
    Blend: AUG-CC-PVTZ-JKFIT
	 Reference Energy          =    -250.6556266109863884 [Eh]
	 Singles Energy            =      -0.0000000000000000 [Eh]
	 Same-Spin Energy          =      -0.2611585503096185 [Eh]
	 Opposite-Spin Energy      =      -0.9375700229069912 [Eh]
	 Correlation Energy        =      -1.1987285732166097 [Eh]
	 Total Energy              =    -251.8543551842030013 [Eh]

	 ================> DF-SCS-MP2 Energies <==================
	-----------------------------------------------------------
	 SCS Same-Spin Scale       =       0.3333333333333333 [-]
	 SCS Opposite-Spin Scale   =       1.2000000000000000 [-]
	 SCS Same-Spin Energy      =      -0.0870528501032062 [Eh]
	 SCS Opposite-Spin Energy  =      -1.1250840274883893 [Eh]
	 SCS Correlation Energy    =      -1.2121368775915955 [Eh]
	 SCS Total Energy          =    -251.8677634885779923 [Eh]
	-----------------------------------------------------------

  Dipole Moment: [D]
     X:    -4.2398      Y:    -1.8760      Z:     0.0106     Total:     4.6363

*** Psi4 exiting successfully. Buy a developer a beer!
