                               Psi4 1.4a3.dev225

  ==> Input File <==

--------------------------------------------------------------------------
#psi4
#
memory 32 gb

molecule  {
1 1
  N       -1.4684160    -0.7256290     0.0168660
  C        0.7789870     0.0252000    -0.3750600
  C       -0.0143940    -1.1774380     0.1210740
  C       -0.0289190     1.1951300     0.1928770
  C       -1.4778980     0.8076670    -0.0707360
  C        2.2387250    -0.0120120     0.0592990
  H        0.7264100     0.0548870    -1.4716460
  H        0.1145000    -2.0977020    -0.4513780
  H        0.1860930    -1.3741010     1.1771840
  H        0.2151160     2.1494100    -0.2804030
  H        0.1498100     1.2900093     1.2188021
  H       -2.0155250    -1.0560110     0.8205780
  H       -1.9143950    -1.1326260    -0.8134590
  H       -2.2036780     1.1930490     0.6461700
  H       -1.7986400     1.0658470    -1.0809590
  H        2.7502970    -0.8896260    -0.3442510
  H        2.7625990     0.8753680    -0.3028200
  H        2.3187760    -0.0349210     1.1503390
units angstrom
no_reorient  #important for SAPT in psi4, default
symmetry c1  #important for SAPT in psi4, default
}

set PROPERTIES_ORIGIN ["COM"]
properties('MP2/aug-cc-pvtz', properties = ['dipole'])
--------------------------------------------------------------------------

    Molecular point group: c1
  Charge       = 1
  Multiplicity = 1
  Basis Set: AUG-CC-PVTZ
    Blend: AUG-CC-PVTZ
  Basis Set: (AUG-CC-PVTZ AUX)
    Blend: AUG-CC-PVTZ-JKFIT

    Orbital Energies [Eh]
    ---------------------

    Doubly Occupied:

       1A    -15.865528     2A    -11.463466     3A    -11.460023
       4A    -11.402671     5A    -11.390875     6A    -11.359616
       7A     -1.492666     8A     -1.266123     9A     -1.194629
      10A     -1.099026    11A     -1.026893    12A     -0.976098
      13A     -0.935892    14A     -0.892286    15A     -0.829817
      16A     -0.793299    17A     -0.753605    18A     -0.739545
      19A     -0.711873    20A     -0.704115    21A     -0.684266
      22A     -0.655006    23A     -0.639505    24A     -0.629377

  @DF-RHF Final Energy:  -250.65600000541863

   => Energetics <=

    Nuclear Repulsion Energy =            266.1215786048065297
    One-Electron Energy =                -855.6227592834334246
    Two-Electron Energy =                 338.8451806732083469
    Total Energy =                       -250.6560000054186048
  Basis Set: (AUG-CC-PVTZ AUX)
    Blend: AUG-CC-PVTZ-RI
    Molecular point group: c1

    Geometry (in Angstrom), charge = 1, multiplicity = 1:

       Center              X                  Y                   Z               Mass
    ------------   -----------------  -----------------  -----------------  -----------------
         N           -1.453283552322    -0.724995432486     0.021095192936    14.003074004430
         C            0.794119447678     0.025833567514    -0.370830807064    12.000000000000
         C            0.000738447678    -1.176804432486     0.125303192936    12.000000000000
         C           -0.013786552322     1.195763567514     0.197106192936    12.000000000000
         C           -1.462765552322     0.808300567514    -0.066506807064    12.000000000000
         C            2.253857447678    -0.011378432486     0.063528192936    12.000000000000
         H            0.741542447678     0.055520567514    -1.467416807064     1.007825032230
         H            0.129632447678    -2.097068432486    -0.447148807064     1.007825032230
         H            0.201225447678    -1.373467432486     1.181413192936     1.007825032230
         H            0.230248447678     2.150043567514    -0.276173807064     1.007825032230
         H            0.164942447678     1.290642867514     1.223031292936     1.007825032230
         H           -2.000392552322    -1.055377432486     0.824807192936     1.007825032230
         H           -1.899262552322    -1.131992432486    -0.809229807064     1.007825032230
         H           -2.188545552322     1.193682567514     0.650399192936     1.007825032230
         H           -1.783507552322     1.066480567514    -1.076729807064     1.007825032230
         H            2.765429447678    -0.888992432486    -0.340021807064     1.007825032230
         H            2.777731447678     0.876001567514    -0.298590807064     1.007825032230
         H            2.333908447678    -0.034287432486     1.154568192936     1.007825032230

  Basis Set: AUG-CC-PVTZ
    Blend: AUG-CC-PVTZ
  Basis Set: (AUG-CC-PVTZ AUX)
    Blend: AUG-CC-PVTZ-JKFIT
	 Reference Energy          =    -250.6560000054186332 [Eh]
	 Singles Energy            =      -0.0000000000000000 [Eh]
	 Same-Spin Energy          =      -0.2610589748622165 [Eh]
	 Opposite-Spin Energy      =      -0.9370887057795159 [Eh]
	 Correlation Energy        =      -1.1981476806417324 [Eh]
	 Total Energy              =    -251.8541476860603723 [Eh]

	 ================> DF-SCS-MP2 Energies <==================
	-----------------------------------------------------------
	 SCS Same-Spin Scale       =       0.3333333333333333 [-]
	 SCS Opposite-Spin Scale   =       1.2000000000000000 [-]
	 SCS Same-Spin Energy      =      -0.0870196582874055 [Eh]
	 SCS Opposite-Spin Energy  =      -1.1245064469354189 [Eh]
	 SCS Correlation Energy    =      -1.2115261052228243 [Eh]
	 SCS Total Energy          =    -251.8675261106414496 [Eh]
	-----------------------------------------------------------

  Dipole Moment: [D]
     X:    -4.2187      Y:    -1.8666      Z:    -0.0023     Total:     4.6132

*** Psi4 exiting successfully. Buy a developer a beer!
