                               Psi4 1.4a3.dev225

  ==> Input File <==

--------------------------------------------------------------------------
#psi4
#
memory 32 gb

molecule  {
1 1
  N       -1.4684160    -0.7256290     0.0168660
  C        0.7789870     0.0252000    -0.3750600
  C       -0.0143940    -1.1774380     0.1210740
  C       -0.0289190     1.1951300     0.1928770
  C       -1.4778980     0.8076670    -0.0707360
  C        2.2387250    -0.0120120     0.0592990
  H        0.7216226     0.0575901    -1.5714948
  H        0.1145000    -2.0977020    -0.4513780
  H        0.1860930    -1.3741010     1.1771840
  H        0.2151160     2.1494100    -0.2804030
  H        0.1583560     1.2945460     1.2678570
  H       -2.0155250    -1.0560110     0.8205780
  H       -1.9143950    -1.1326260    -0.8134590
  H       -2.2036780     1.1930490     0.6461700
  H       -1.7986400     1.0658470    -1.0809590
  H        2.7502970    -0.8896260    -0.3442510
  H        2.7625990     0.8753680    -0.3028200
  H        2.3187760    -0.0349210     1.1503390
units angstrom
no_reorient  #important for SAPT in psi4, default
symmetry c1  #important for SAPT in psi4, default
}

set PROPERTIES_ORIGIN ["COM"]
properties('MP2/aug-cc-pvtz', properties = ['dipole'])
--------------------------------------------------------------------------

    Molecular point group: c1
  Charge       = 1
  Multiplicity = 1
  Basis Set: AUG-CC-PVTZ
    Blend: AUG-CC-PVTZ
  Basis Set: (AUG-CC-PVTZ AUX)
    Blend: AUG-CC-PVTZ-JKFIT

    Orbital Energies [Eh]
    ---------------------

    Doubly Occupied:

       1A    -15.865736     2A    -11.463865     3A    -11.460973
       4A    -11.414513     5A    -11.397663     6A    -11.360617
       7A     -1.492738     8A     -1.262858     9A     -1.193956
      10A     -1.099392    11A     -1.024158    12A     -0.970485
      13A     -0.931461    14A     -0.890198    15A     -0.823244
      16A     -0.790841    17A     -0.753925    18A     -0.739954
      19A     -0.711028    20A     -0.703811    21A     -0.680001
      22A     -0.655923    23A     -0.633770    24A     -0.623559

  @DF-RHF Final Energy:  -250.65047056136589

   => Energetics <=

    Nuclear Repulsion Energy =            265.4092754260300921
    One-Electron Energy =                -854.2301538579845328
    Two-Electron Energy =                 338.1704078705886332
    Total Energy =                       -250.6504705613658643
  Basis Set: (AUG-CC-PVTZ AUX)
    Blend: AUG-CC-PVTZ-RI
    Molecular point group: c1

    Geometry (in Angstrom), charge = 1, multiplicity = 1:

       Center              X                  Y                   Z               Mass
    ------------   -----------------  -----------------  -----------------  -----------------
         N           -1.453327549352    -0.725080179386     0.021689770902    14.003074004430
         C            0.794075450648     0.025748820614    -0.370236229098    12.000000000000
         C            0.000694450648    -1.176889179386     0.125897770902    12.000000000000
         C           -0.013830549352     1.195678820614     0.197700770902    12.000000000000
         C           -1.462809549352     0.808215820614    -0.065912229098    12.000000000000
         C            2.253813450648    -0.011463179386     0.064122770902    12.000000000000
         H            0.736711050648     0.058138920614    -1.566671029098     1.007825032230
         H            0.129588450648    -2.097153179386    -0.446554229098     1.007825032230
         H            0.201181450648    -1.373552179386     1.182007770902     1.007825032230
         H            0.230204450648     2.149958820614    -0.275579229098     1.007825032230
         H            0.173444450648     1.295094820614     1.272680770902     1.007825032230
         H           -2.000436549352    -1.055462179386     0.825401770902     1.007825032230
         H           -1.899306549352    -1.132077179386    -0.808635229098     1.007825032230
         H           -2.188589549352     1.193597820614     0.650993770902     1.007825032230
         H           -1.783551549352     1.066395820614    -1.076135229098     1.007825032230
         H            2.765385450648    -0.889077179386    -0.339427229098     1.007825032230
         H            2.777687450648     0.875916820614    -0.297996229098     1.007825032230
         H            2.333864450648    -0.034372179386     1.155162770902     1.007825032230

  Basis Set: AUG-CC-PVTZ
    Blend: AUG-CC-PVTZ
  Basis Set: (AUG-CC-PVTZ AUX)
    Blend: AUG-CC-PVTZ-JKFIT
	 Reference Energy          =    -250.6504705613658928 [Eh]
	 Singles Energy            =      -0.0000000000000000 [Eh]
	 Same-Spin Energy          =      -0.2611819497285742 [Eh]
	 Opposite-Spin Energy      =      -0.9382036921044589 [Eh]
	 Correlation Energy        =      -1.1993856418330331 [Eh]
	 Total Energy              =    -251.8498562031989252 [Eh]

	 ================> DF-SCS-MP2 Energies <==================
	-----------------------------------------------------------
	 SCS Same-Spin Scale       =       0.3333333333333333 [-]
	 SCS Opposite-Spin Scale   =       1.2000000000000000 [-]
	 SCS Same-Spin Energy      =      -0.0870606499095247 [Eh]
	 SCS Opposite-Spin Energy  =      -1.1258444305253505 [Eh]
	 SCS Correlation Energy    =      -1.2129050804348753 [Eh]
	 SCS Total Energy          =    -251.8633756418007579 [Eh]
	-----------------------------------------------------------

  Dipole Moment: [D]
     X:    -4.2018      Y:    -1.8649      Z:     0.0344     Total:     4.5972

*** Psi4 exiting successfully. Buy a developer a beer!
