                               Psi4 1.4a3.dev225

  ==> Input File <==

--------------------------------------------------------------------------
#psi4
#
memory 32 gb

molecule  {
1 1
  N       -1.4684160    -0.7256290     0.0168660
  C        0.7789870     0.0252000    -0.3750600
  C       -0.0143940    -1.1774380     0.1210740
  C       -0.0289190     1.1951300     0.1928770
  C       -1.4471206     0.8044194    -0.1145081
  C        2.2387250    -0.0120120     0.0592990
  H        0.7264100     0.0548870    -1.4716460
  H        0.1145000    -2.0977020    -0.4513780
  H        0.1860930    -1.3741010     1.1771840
  H        0.2151160     2.1494100    -0.2804030
  H        0.1583560     1.2945460     1.2678570
  H       -2.0155250    -1.0560110     0.8205780
  H       -1.9143950    -1.1326260    -0.8134590
  H       -2.2036780     1.1930490     0.6461700
  H       -1.7986400     1.0658470    -1.0809590
  H        2.7502970    -0.8896260    -0.3442510
  H        2.7625990     0.8753680    -0.3028200
  H        2.3187760    -0.0349210     1.1503390
units angstrom
no_reorient  #important for SAPT in psi4, default
symmetry c1  #important for SAPT in psi4, default
}

set PROPERTIES_ORIGIN ["COM"]
properties('MP2/aug-cc-pvtz', properties = ['dipole'])
--------------------------------------------------------------------------

    Molecular point group: c1
  Charge       = 1
  Multiplicity = 1
  Basis Set: AUG-CC-PVTZ
    Blend: AUG-CC-PVTZ
  Basis Set: (AUG-CC-PVTZ AUX)
    Blend: AUG-CC-PVTZ-JKFIT

    Orbital Energies [Eh]
    ---------------------

    Doubly Occupied:

       1A    -15.865437     2A    -11.464850     3A    -11.459748
       4A    -11.403012     5A    -11.395947     6A    -11.359408
       7A     -1.493272     8A     -1.267347     9A     -1.195146
      10A     -1.099141    11A     -1.023652    12A     -0.975327
      13A     -0.934877    14A     -0.892519    15A     -0.829781
      16A     -0.792776    17A     -0.747496    18A     -0.740155
      19A     -0.712318    20A     -0.708113    21A     -0.679125
      22A     -0.654797    23A     -0.639539    24A     -0.626949

  @DF-RHF Final Energy:  -250.65315754629762

   => Energetics <=

    Nuclear Repulsion Energy =            266.2575213521419073
    One-Electron Energy =                -855.8998972106642213
    Two-Electron Energy =                 338.9892183122246934
    Total Energy =                       -250.6531575462976207
  Basis Set: (AUG-CC-PVTZ AUX)
    Blend: AUG-CC-PVTZ-RI
    Molecular point group: c1

    Geometry (in Angstrom), charge = 1, multiplicity = 1:

       Center              X                  Y                   Z               Mass
    ------------   -----------------  -----------------  -----------------  -----------------
         N           -1.457673273046    -0.724595894634     0.026621826679    14.003074004430
         C            0.789729726954     0.026233105366    -0.365304173321    12.000000000000
         C           -0.003651273046    -1.176404894634     0.130829826679    12.000000000000
         C           -0.018176273046     1.196163105366     0.202632826679    12.000000000000
         C           -1.436377873046     0.805452505366    -0.104752273321    12.000000000000
         C            2.249467726954    -0.010978894634     0.069054826679    12.000000000000
         H            0.737152726954     0.055920105366    -1.461890173321     1.007825032230
         H            0.125242726954    -2.096668894634    -0.441622173321     1.007825032230
         H            0.196835726954    -1.373067894634     1.186939826679     1.007825032230
         H            0.225858726954     2.150443105366    -0.270647173321     1.007825032230
         H            0.169098726954     1.295579105366     1.277612826679     1.007825032230
         H           -2.004782273046    -1.054977894634     0.830333826679     1.007825032230
         H           -1.903652273046    -1.131592894634    -0.803703173321     1.007825032230
         H           -2.192935273046     1.194082105366     0.655925826679     1.007825032230
         H           -1.787897273046     1.066880105366    -1.071203173321     1.007825032230
         H            2.761039726954    -0.888592894634    -0.334495173321     1.007825032230
         H            2.773341726954     0.876401105366    -0.293064173321     1.007825032230
         H            2.329518726954    -0.033887894634     1.160094826679     1.007825032230

  Basis Set: AUG-CC-PVTZ
    Blend: AUG-CC-PVTZ
  Basis Set: (AUG-CC-PVTZ AUX)
    Blend: AUG-CC-PVTZ-JKFIT
	 Reference Energy          =    -250.6531575462976207 [Eh]
	 Singles Energy            =      -0.0000000000000000 [Eh]
	 Same-Spin Energy          =      -0.2613782477126821 [Eh]
	 Opposite-Spin Energy      =      -0.9377312904799089 [Eh]
	 Correlation Energy        =      -1.1991095381925909 [Eh]
	 Total Energy              =    -251.8522670844902223 [Eh]

	 ================> DF-SCS-MP2 Energies <==================
	-----------------------------------------------------------
	 SCS Same-Spin Scale       =       0.3333333333333333 [-]
	 SCS Opposite-Spin Scale   =       1.2000000000000000 [-]
	 SCS Same-Spin Energy      =      -0.0871260825708940 [Eh]
	 SCS Opposite-Spin Energy  =      -1.1252775485758906 [Eh]
	 SCS Correlation Energy    =      -1.2124036311467845 [Eh]
	 SCS Total Energy          =    -251.8655611774443912 [Eh]
	-----------------------------------------------------------

  Dipole Moment: [D]
     X:    -4.2189      Y:    -1.8576      Z:    -0.0222     Total:     4.6098

*** Psi4 exiting successfully. Buy a developer a beer!
