                               Psi4 1.4a3.dev225

  ==> Input File <==

--------------------------------------------------------------------------
#psi4
#
memory 32 gb

molecule  {
1 1
  N       -1.4929881    -0.8541003    -0.0748413
  C        0.7789870     0.0252000    -0.3750600
  C       -0.0143940    -1.1774380     0.1210740
  C       -0.0289190     1.1951300     0.1928770
  C       -1.4778980     0.8076670    -0.0707360
  C        2.2387250    -0.0120120     0.0592990
  H        0.7264100     0.0548870    -1.4716460
  H        0.1145000    -2.0977020    -0.4513780
  H        0.1860930    -1.3741010     1.1771840
  H        0.2151160     2.1494100    -0.2804030
  H        0.1583560     1.2945460     1.2678570
  H       -2.0155250    -1.0560110     0.8205780
  H       -1.9143950    -1.1326260    -0.8134590
  H       -2.2036780     1.1930490     0.6461700
  H       -1.7986400     1.0658470    -1.0809590
  H        2.7502970    -0.8896260    -0.3442510
  H        2.7625990     0.8753680    -0.3028200
  H        2.3187760    -0.0349210     1.1503390
units angstrom
no_reorient  #important for SAPT in psi4, default
symmetry c1  #important for SAPT in psi4, default
}

set PROPERTIES_ORIGIN ["COM"]
properties('MP2/aug-cc-pvtz', properties = ['dipole'])
--------------------------------------------------------------------------

    Molecular point group: c1
  Charge       = 1
  Multiplicity = 1
  Basis Set: AUG-CC-PVTZ
    Blend: AUG-CC-PVTZ
  Basis Set: (AUG-CC-PVTZ AUX)
    Blend: AUG-CC-PVTZ-JKFIT

    Orbital Energies [Eh]
    ---------------------

    Doubly Occupied:

       1A    -15.851363     2A    -11.476361     3A    -11.459857
       4A    -11.404599     5A    -11.400835     6A    -11.360570
       7A     -1.485215     8A     -1.271979     9A     -1.187874
      10A     -1.104491    11A     -1.029192    12A     -0.983189
      13A     -0.941360    14A     -0.872024    15A     -0.839105
      16A     -0.795461    17A     -0.746875    18A     -0.724297
      19A     -0.716760    20A     -0.706165    21A     -0.682149
      22A     -0.654810    23A     -0.639626    24A     -0.631140

  @DF-RHF Final Energy:  -250.62787333963092

   => Energetics <=

    Nuclear Repulsion Energy =            264.2276862376496638
    One-Electron Energy =                -851.7805279105068621
    Two-Electron Energy =                 336.9249683332262748
    Total Energy =                       -250.6278733396309235
  Basis Set: (AUG-CC-PVTZ AUX)
    Blend: AUG-CC-PVTZ-RI
    Molecular point group: c1

    Geometry (in Angstrom), charge = 1, multiplicity = 1:

       Center              X                  Y                   Z               Mass
    ------------   -----------------  -----------------  -----------------  -----------------
         N           -1.473959208058    -0.832624874404    -0.056270774384    14.003074004430
         C            0.798015891942     0.046675425596    -0.356489474384    12.000000000000
         C            0.004634891942    -1.155962574404     0.139644525616    12.000000000000
         C           -0.009890108058     1.216605425596     0.211447525616    12.000000000000
         C           -1.458869108058     0.829142425596    -0.052165474384    12.000000000000
         C            2.257753891942     0.009463425596     0.077869525616    12.000000000000
         H            0.745438891942     0.076362425596    -1.453075474384     1.007825032230
         H            0.133528891942    -2.076226574404    -0.432807474384     1.007825032230
         H            0.205121891942    -1.352625574404     1.195754525616     1.007825032230
         H            0.234144891942     2.170885425596    -0.261832474384     1.007825032230
         H            0.177384891942     1.316021425596     1.286427525616     1.007825032230
         H           -1.996496108058    -1.034535574404     0.839148525616     1.007825032230
         H           -1.895366108058    -1.111150574404    -0.794888474384     1.007825032230
         H           -2.184649108058     1.214524425596     0.664740525616     1.007825032230
         H           -1.779611108058     1.087322425596    -1.062388474384     1.007825032230
         H            2.769325891942    -0.868150574404    -0.325680474384     1.007825032230
         H            2.781627891942     0.896843425596    -0.284249474384     1.007825032230
         H            2.337804891942    -0.013445574404     1.168909525616     1.007825032230

  Basis Set: AUG-CC-PVTZ
    Blend: AUG-CC-PVTZ
  Basis Set: (AUG-CC-PVTZ AUX)
    Blend: AUG-CC-PVTZ-JKFIT
	 Reference Energy          =    -250.6278733396309235 [Eh]
	 Singles Energy            =      -0.0000000000000000 [Eh]
	 Same-Spin Energy          =      -0.2606813548923412 [Eh]
	 Opposite-Spin Energy      =      -0.9375486744841425 [Eh]
	 Correlation Energy        =      -1.1982300293764836 [Eh]
	 Total Energy              =    -251.8261033690073987 [Eh]

	 ================> DF-SCS-MP2 Energies <==================
	-----------------------------------------------------------
	 SCS Same-Spin Scale       =       0.3333333333333333 [-]
	 SCS Opposite-Spin Scale   =       1.2000000000000000 [-]
	 SCS Same-Spin Energy      =      -0.0868937849641137 [Eh]
	 SCS Opposite-Spin Energy  =      -1.1250584093809710 [Eh]
	 SCS Correlation Energy    =      -1.2119521943450848 [Eh]
	 SCS Total Energy          =    -251.8398255339760112 [Eh]
	-----------------------------------------------------------

  Dipole Moment: [D]
     X:    -4.0957      Y:    -1.5337      Z:     0.1025     Total:     4.3747

*** Psi4 exiting successfully. Buy a developer a beer!
