                               Psi4 1.4a3.dev225

  ==> Input File <==

--------------------------------------------------------------------------
#psi4
#
memory 32 gb

molecule  {
1 1
  N       -1.4684160    -0.7256290     0.0168660
  C        0.7789870     0.0252000    -0.3750600
  C       -0.0143940    -1.1774380     0.1210740
  C       -0.0289190     1.1951300     0.1928770
  C       -1.4778980     0.8076670    -0.0707360
  C        2.2387250    -0.0120120     0.0592990
  H        0.7264100     0.0548870    -1.4716460
  H        0.1168619    -2.1145656    -0.4618680
  H        0.1860930    -1.3741010     1.1771840
  H        0.2151160     2.1494100    -0.2804030
  H        0.1583560     1.2945460     1.2678570
  H       -2.0155250    -1.0560110     0.8205780
  H       -1.9143950    -1.1326260    -0.8134590
  H       -2.2036780     1.1930490     0.6461700
  H       -1.7986400     1.0658470    -1.0809590
  H        2.7502970    -0.8896260    -0.3442510
  H        2.7625990     0.8753680    -0.3028200
  H        2.3187760    -0.0349210     1.1503390
units angstrom
no_reorient  #important for SAPT in psi4, default
symmetry c1  #important for SAPT in psi4, default
}

set PROPERTIES_ORIGIN ["COM"]
properties('MP2/aug-cc-pvtz', properties = ['dipole'])
--------------------------------------------------------------------------

    Molecular point group: c1
  Charge       = 1
  Multiplicity = 1
  Basis Set: AUG-CC-PVTZ
    Blend: AUG-CC-PVTZ
  Basis Set: (AUG-CC-PVTZ AUX)
    Blend: AUG-CC-PVTZ-JKFIT

    Orbital Energies [Eh]
    ---------------------

    Doubly Occupied:

       1A    -15.865685     2A    -11.463871     3A    -11.462126
       4A    -11.403156     5A    -11.396797     6A    -11.359594
       7A     -1.492661     8A     -1.265005     9A     -1.193315
      10A     -1.098268    11A     -1.023505    12A     -0.974932
      13A     -0.934227    14A     -0.891536    15A     -0.827714
      16A     -0.791131    17A     -0.752333    18A     -0.739612
      19A     -0.710592    20A     -0.703624    21A     -0.679681
      22A     -0.654754    23A     -0.638635    24A     -0.629227

  @DF-RHF Final Energy:  -250.65629157475422

   => Energetics <=

    Nuclear Repulsion Energy =            265.7847845186549876
    One-Electron Energy =                -854.9781904642258041
    Two-Electron Energy =                 338.5371143708165960
    Total Energy =                       -250.6562915747542206
  Basis Set: (AUG-CC-PVTZ AUX)
    Blend: AUG-CC-PVTZ-RI
    Molecular point group: c1

    Geometry (in Angstrom), charge = 1, multiplicity = 1:

       Center              X                  Y                   Z               Mass
    ------------   -----------------  -----------------  -----------------  -----------------
         N           -1.453411236887    -0.724851137539     0.020643763930    14.003074004430
         C            0.793991763113     0.025977862461    -0.371282236070    12.000000000000
         C            0.000610763113    -1.176660137539     0.124851763930    12.000000000000
         C           -0.013914236887     1.195907862461     0.196654763930    12.000000000000
         C           -1.462893236887     0.808444862461    -0.066958236070    12.000000000000
         C            2.253729763113    -0.011234137539     0.063076763930    12.000000000000
         H            0.741414763113     0.055664862461    -1.467868236070     1.007825032230
         H            0.131866663113    -2.113787737539    -0.458090236070     1.007825032230
         H            0.201097763113    -1.373323137539     1.180961763930     1.007825032230
         H            0.230120763113     2.150187862461    -0.276625236070     1.007825032230
         H            0.173360763113     1.295323862461     1.271634763930     1.007825032230
         H           -2.000520236887    -1.055233137539     0.824355763930     1.007825032230
         H           -1.899390236887    -1.131848137539    -0.809681236070     1.007825032230
         H           -2.188673236887     1.193826862461     0.649947763930     1.007825032230
         H           -1.783635236887     1.066624862461    -1.077181236070     1.007825032230
         H            2.765301763113    -0.888848137539    -0.340473236070     1.007825032230
         H            2.777603763113     0.876145862461    -0.299042236070     1.007825032230
         H            2.333780763113    -0.034143137539     1.154116763930     1.007825032230

  Basis Set: AUG-CC-PVTZ
    Blend: AUG-CC-PVTZ
  Basis Set: (AUG-CC-PVTZ AUX)
    Blend: AUG-CC-PVTZ-JKFIT
	 Reference Energy          =    -250.6562915747542206 [Eh]
	 Singles Energy            =      -0.0000000000000000 [Eh]
	 Same-Spin Energy          =      -0.2611280486790644 [Eh]
	 Opposite-Spin Energy      =      -0.9375680531917984 [Eh]
	 Correlation Energy        =      -1.1986961018708628 [Eh]
	 Total Energy              =    -251.8549876766250861 [Eh]

	 ================> DF-SCS-MP2 Energies <==================
	-----------------------------------------------------------
	 SCS Same-Spin Scale       =       0.3333333333333333 [-]
	 SCS Opposite-Spin Scale   =       1.2000000000000000 [-]
	 SCS Same-Spin Energy      =      -0.0870426828930214 [Eh]
	 SCS Opposite-Spin Energy  =      -1.1250816638301580 [Eh]
	 SCS Correlation Energy    =      -1.2121243467231795 [Eh]
	 SCS Total Energy          =    -251.8684159214774070 [Eh]
	-----------------------------------------------------------

  Dipole Moment: [D]
     X:    -4.2199      Y:    -1.8656      Z:    -0.0175     Total:     4.6140

*** Psi4 exiting successfully. Buy a developer a beer!
