                               Psi4 1.4a3.dev225

  ==> Input File <==

--------------------------------------------------------------------------
#psi4
#
memory 32 gb

molecule  {
1 1
  N       -1.4684160    -0.7256290     0.0168660
  C        0.7789870     0.0252000    -0.3750600
  C       -0.0143940    -1.1774380     0.1210740
  C       -0.0289190     1.1951300     0.1928770
  C       -1.4778980     0.8076670    -0.0707360
  C        2.2387250    -0.0120120     0.0592990
  H        0.7264100     0.0548870    -1.4716460
  H        0.1145000    -2.0977020    -0.4513780
  H        0.1860930    -1.3741010     1.1771840
  H        0.2151160     2.1494100    -0.2804030
  H        0.1617744     1.2963607     1.2874790
  H       -2.0155250    -1.0560110     0.8205780
  H       -1.9143950    -1.1326260    -0.8134590
  H       -2.2036780     1.1930490     0.6461700
  H       -1.7986400     1.0658470    -1.0809590
  H        2.7502970    -0.8896260    -0.3442510
  H        2.7625990     0.8753680    -0.3028200
  H        2.3187760    -0.0349210     1.1503390
units angstrom
no_reorient  #important for SAPT in psi4, default
symmetry c1  #important for SAPT in psi4, default
}

set PROPERTIES_ORIGIN ["COM"]
properties('MP2/aug-cc-pvtz', properties = ['dipole'])
--------------------------------------------------------------------------

    Molecular point group: c1
  Charge       = 1
  Multiplicity = 1
  Basis Set: AUG-CC-PVTZ
    Blend: AUG-CC-PVTZ
  Basis Set: (AUG-CC-PVTZ AUX)
    Blend: AUG-CC-PVTZ-JKFIT

    Orbital Energies [Eh]
    ---------------------

    Doubly Occupied:

       1A    -15.865645     2A    -11.463980     3A    -11.460045
       4A    -11.403241     5A    -11.398985     6A    -11.359587
       7A     -1.492727     8A     -1.264672     9A     -1.193824
      10A     -1.098936    11A     -1.022806    12A     -0.974460
      13A     -0.934804    14A     -0.892437    15A     -0.826995
      16A     -0.790977    17A     -0.753771    18A     -0.739646
      19A     -0.711883    20A     -0.703568    21A     -0.677815
      22A     -0.654683    23A     -0.638142    24A     -0.629376

  @DF-RHF Final Energy:  -250.65635547906231

   => Energetics <=

    Nuclear Repulsion Energy =            265.7899963106825112
    One-Electron Energy =                -854.9866893328893411
    Two-Electron Energy =                 338.5403375431444601
    Total Energy =                       -250.6563554790623130
  Basis Set: (AUG-CC-PVTZ AUX)
    Blend: AUG-CC-PVTZ-RI
    Molecular point group: c1

    Geometry (in Angstrom), charge = 1, multiplicity = 1:

       Center              X                  Y                   Z               Mass
    ------------   -----------------  -----------------  -----------------  -----------------
         N           -1.453423603955    -0.725069780045     0.020291282003    14.003074004430
         C            0.793979396045     0.025759219955    -0.371634717997    12.000000000000
         C            0.000598396045    -1.176878780045     0.124499282003    12.000000000000
         C           -0.013926603955     1.195689219955     0.196302282003    12.000000000000
         C           -1.462905603955     0.808226219955    -0.067310717997    12.000000000000
         C            2.253717396045    -0.011452780045     0.062724282003    12.000000000000
         H            0.741402396045     0.055446219955    -1.468220717997     1.007825032230
         H            0.129492396045    -2.097142780045    -0.447952717997     1.007825032230
         H            0.201085396045    -1.373541780045     1.180609282003     1.007825032230
         H            0.230108396045     2.149969219955    -0.276977717997     1.007825032230
         H            0.176766796045     1.296919919955     1.290904282003     1.007825032230
         H           -2.000532603955    -1.055451780045     0.824003282003     1.007825032230
         H           -1.899402603955    -1.132066780045    -0.810033717997     1.007825032230
         H           -2.188685603955     1.193608219955     0.649595282003     1.007825032230
         H           -1.783647603955     1.066406219955    -1.077533717997     1.007825032230
         H            2.765289396045    -0.889066780045    -0.340825717997     1.007825032230
         H            2.777591396045     0.875927219955    -0.299394717997     1.007825032230
         H            2.333768396045    -0.034361780045     1.153764282003     1.007825032230

  Basis Set: AUG-CC-PVTZ
    Blend: AUG-CC-PVTZ
  Basis Set: (AUG-CC-PVTZ AUX)
    Blend: AUG-CC-PVTZ-JKFIT
	 Reference Energy          =    -250.6563554790623130 [Eh]
	 Singles Energy            =      -0.0000000000000000 [Eh]
	 Same-Spin Energy          =      -0.2611141167894661 [Eh]
	 Opposite-Spin Energy      =      -0.9375511618731880 [Eh]
	 Correlation Energy        =      -1.1986652786626542 [Eh]
	 Total Energy              =    -251.8550207577249580 [Eh]

	 ================> DF-SCS-MP2 Energies <==================
	-----------------------------------------------------------
	 SCS Same-Spin Scale       =       0.3333333333333333 [-]
	 SCS Opposite-Spin Scale   =       1.2000000000000000 [-]
	 SCS Same-Spin Energy      =      -0.0870380389298220 [Eh]
	 SCS Opposite-Spin Energy  =      -1.1250613942478256 [Eh]
	 SCS Correlation Energy    =      -1.2120994331776476 [Eh]
	 SCS Total Energy          =    -251.8684549122399687 [Eh]
	-----------------------------------------------------------

  Dipole Moment: [D]
     X:    -4.2216      Y:    -1.8679      Z:    -0.0221     Total:     4.6164

*** Psi4 exiting successfully. Buy a developer a beer!
