                               Psi4 1.4a3.dev225

  ==> Input File <==

--------------------------------------------------------------------------
#psi4
#
memory 32 gb

molecule  {
1 1
  N       -1.4684160    -0.7256290     0.0168660
  C        0.7789870     0.0252000    -0.3750600
  C       -0.0143940    -1.1774380     0.1210740
  C       -0.0289190     1.1951300     0.1928770
  C       -1.4780215     0.8276341    -0.0718768
  C        2.2387250    -0.0120120     0.0592990
  H        0.7264100     0.0548870    -1.4716460
  H        0.1145000    -2.0977020    -0.4513780
  H        0.1860930    -1.3741010     1.1771840
  H        0.2151160     2.1494100    -0.2804030
  H        0.1583560     1.2945460     1.2678570
  H       -2.0155250    -1.0560110     0.8205780
  H       -1.9143950    -1.1326260    -0.8134590
  H       -2.2036780     1.1930490     0.6461700
  H       -1.7986400     1.0658470    -1.0809590
  H        2.7502970    -0.8896260    -0.3442510
  H        2.7625990     0.8753680    -0.3028200
  H        2.3187760    -0.0349210     1.1503390
units angstrom
no_reorient  #important for SAPT in psi4, default
symmetry c1  #important for SAPT in psi4, default
}

set PROPERTIES_ORIGIN ["COM"]
properties('MP2/aug-cc-pvtz', properties = ['dipole'])
--------------------------------------------------------------------------

    Molecular point group: c1
  Charge       = 1
  Multiplicity = 1
  Basis Set: AUG-CC-PVTZ
    Blend: AUG-CC-PVTZ
  Basis Set: (AUG-CC-PVTZ AUX)
    Blend: AUG-CC-PVTZ-JKFIT

    Orbital Energies [Eh]
    ---------------------

    Doubly Occupied:

       1A    -15.863589     2A    -11.465007     3A    -11.459321
       4A    -11.403243     5A    -11.396937     6A    -11.359649
       7A     -1.488116     8A     -1.264951     9A     -1.194697
      10A     -1.098333    11A     -1.024372    12A     -0.973513
      13A     -0.933529    14A     -0.889867    15A     -0.827257
      16A     -0.794121    17A     -0.751188    18A     -0.739427
      19A     -0.711959    20A     -0.704067    21A     -0.681111
      22A     -0.655327    23A     -0.638832    24A     -0.630244

  @DF-RHF Final Energy:  -250.65660511975699

   => Energetics <=

    Nuclear Repulsion Energy =            265.6602949663200661
    One-Electron Energy =                -854.7364800868389239
    Two-Electron Energy =                 338.4195800007618686
    Total Energy =                       -250.6566051197569891
  Basis Set: (AUG-CC-PVTZ AUX)
    Blend: AUG-CC-PVTZ-RI
    Molecular point group: c1

    Geometry (in Angstrom), charge = 1, multiplicity = 1:

       Center              X                  Y                   Z               Mass
    ------------   -----------------  -----------------  -----------------  -----------------
         N           -1.453366376054    -0.727831506594     0.020679973279    14.003074004430
         C            0.794036623946     0.022997493406    -0.371246026721    12.000000000000
         C            0.000655623946    -1.179640506594     0.124887973279    12.000000000000
         C           -0.013869376054     1.192927493406     0.196690973279    12.000000000000
         C           -1.462971876054     0.825431593406    -0.068062826721    12.000000000000
         C            2.253774623946    -0.014214506594     0.063112973279    12.000000000000
         H            0.741459623946     0.052684493406    -1.467832026721     1.007825032230
         H            0.129549623946    -2.099904506594    -0.447564026721     1.007825032230
         H            0.201142623946    -1.376303506594     1.180997973279     1.007825032230
         H            0.230165623946     2.147207493406    -0.276589026721     1.007825032230
         H            0.173405623946     1.292343493406     1.271670973279     1.007825032230
         H           -2.000475376054    -1.058213506594     0.824391973279     1.007825032230
         H           -1.899345376054    -1.134828506594    -0.809645026721     1.007825032230
         H           -2.188628376054     1.190846493406     0.649983973279     1.007825032230
         H           -1.783590376054     1.063644493406    -1.077145026721     1.007825032230
         H            2.765346623946    -0.891828506594    -0.340437026721     1.007825032230
         H            2.777648623946     0.873165493406    -0.299006026721     1.007825032230
         H            2.333825623946    -0.037123506594     1.154152973279     1.007825032230

  Basis Set: AUG-CC-PVTZ
    Blend: AUG-CC-PVTZ
  Basis Set: (AUG-CC-PVTZ AUX)
    Blend: AUG-CC-PVTZ-JKFIT
	 Reference Energy          =    -250.6566051197569891 [Eh]
	 Singles Energy            =      -0.0000000000000000 [Eh]
	 Same-Spin Energy          =      -0.2610322545517495 [Eh]
	 Opposite-Spin Energy      =      -0.9374298499258900 [Eh]
	 Correlation Energy        =      -1.1984621044776396 [Eh]
	 Total Energy              =    -251.8550672242346309 [Eh]

	 ================> DF-SCS-MP2 Energies <==================
	-----------------------------------------------------------
	 SCS Same-Spin Scale       =       0.3333333333333333 [-]
	 SCS Opposite-Spin Scale   =       1.2000000000000000 [-]
	 SCS Same-Spin Energy      =      -0.0870107515172498 [Eh]
	 SCS Opposite-Spin Energy  =      -1.1249158199110678 [Eh]
	 SCS Correlation Energy    =      -1.2119265714283176 [Eh]
	 SCS Total Energy          =    -251.8685316911852965 [Eh]
	-----------------------------------------------------------

  Dipole Moment: [D]
     X:    -4.2168      Y:    -1.8324      Z:    -0.0183     Total:     4.5978

*** Psi4 exiting successfully. Buy a developer a beer!
