                               Psi4 1.4a3.dev225

  ==> Input File <==

--------------------------------------------------------------------------
#psi4
#
memory 32 gb

molecule  {
1 1
  N       -1.4684160    -0.7256290     0.0168660
  C        0.7789870     0.0252000    -0.3750600
  C       -0.0143940    -1.1774380     0.1210740
  C       -0.0289190     1.1951300     0.1928770
  C       -1.4879073     0.8976115    -0.1264901
  C        2.2387250    -0.0120120     0.0592990
  H        0.7264100     0.0548870    -1.4716460
  H        0.1145000    -2.0977020    -0.4513780
  H        0.1860930    -1.3741010     1.1771840
  H        0.2151160     2.1494100    -0.2804030
  H        0.1583560     1.2945460     1.2678570
  H       -2.0155250    -1.0560110     0.8205780
  H       -1.9143950    -1.1326260    -0.8134590
  H       -2.2036780     1.1930490     0.6461700
  H       -1.7986400     1.0658470    -1.0809590
  H        2.7502970    -0.8896260    -0.3442510
  H        2.7625990     0.8753680    -0.3028200
  H        2.3187760    -0.0349210     1.1503390
units angstrom
no_reorient  #important for SAPT in psi4, default
symmetry c1  #important for SAPT in psi4, default
}

set PROPERTIES_ORIGIN ["COM"]
properties('MP2/aug-cc-pvtz', properties = ['dipole'])
--------------------------------------------------------------------------

    Molecular point group: c1
  Charge       = 1
  Multiplicity = 1
  Basis Set: AUG-CC-PVTZ
    Blend: AUG-CC-PVTZ
  Basis Set: (AUG-CC-PVTZ AUX)
    Blend: AUG-CC-PVTZ-JKFIT

    Orbital Energies [Eh]
    ---------------------

    Doubly Occupied:

       1A    -15.855121     2A    -11.469740     3A    -11.456291
       4A    -11.403387     5A    -11.399602     6A    -11.359598
       7A     -1.472155     8A     -1.263508     9A     -1.196206
      10A     -1.095589    11A     -1.029726    12A     -0.969134
      13A     -0.926589    14A     -0.879792    15A     -0.827904
      16A     -0.807341    17A     -0.747169    18A     -0.727161
      19A     -0.714324    20A     -0.705088    21A     -0.686259
      22A     -0.655184    23A     -0.639476    24A     -0.631205

  @DF-RHF Final Energy:  -250.64748925380050

   => Energetics <=

    Nuclear Repulsion Energy =            264.6846198847260894
    One-Electron Energy =                -852.8291185277533941
    Two-Electron Energy =                 337.4970093892268324
    Total Energy =                       -250.6474892538004724
  Basis Set: (AUG-CC-PVTZ AUX)
    Blend: AUG-CC-PVTZ-RI
    Molecular point group: c1

    Geometry (in Angstrom), charge = 1, multiplicity = 1:

       Center              X                  Y                   Z               Mass
    ------------   -----------------  -----------------  -----------------  -----------------
         N           -1.451988515789    -0.737584797066     0.028291850521    14.003074004430
         C            0.795414484211     0.013244202934    -0.363634149479    12.000000000000
         C            0.002033484211    -1.189393797066     0.132499850521    12.000000000000
         C           -0.012491515789     1.183174202934     0.204302850521    12.000000000000
         C           -1.471479815789     0.885655702934    -0.115064249479    12.000000000000
         C            2.255152484211    -0.023967797066     0.070724850521    12.000000000000
         H            0.742837484211     0.042931202934    -1.460220149479     1.007825032230
         H            0.130927484211    -2.109657797066    -0.439952149479     1.007825032230
         H            0.202520484211    -1.386056797066     1.188609850521     1.007825032230
         H            0.231543484211     2.137454202934    -0.268977149479     1.007825032230
         H            0.174783484211     1.282590202934     1.279282850521     1.007825032230
         H           -1.999097515789    -1.067966797066     0.832003850521     1.007825032230
         H           -1.897967515789    -1.144581797066    -0.802033149479     1.007825032230
         H           -2.187250515789     1.181093202934     0.657595850521     1.007825032230
         H           -1.782212515789     1.053891202934    -1.069533149479     1.007825032230
         H            2.766724484211    -0.901581797066    -0.332825149479     1.007825032230
         H            2.779026484211     0.863412202934    -0.291394149479     1.007825032230
         H            2.335203484211    -0.046876797066     1.161764850521     1.007825032230

  Basis Set: AUG-CC-PVTZ
    Blend: AUG-CC-PVTZ
  Basis Set: (AUG-CC-PVTZ AUX)
    Blend: AUG-CC-PVTZ-JKFIT
	 Reference Energy          =    -250.6474892538005008 [Eh]
	 Singles Energy            =      -0.0000000000000000 [Eh]
	 Same-Spin Energy          =      -0.2608500150731958 [Eh]
	 Opposite-Spin Energy      =      -0.9377582766747596 [Eh]
	 Correlation Energy        =      -1.1986082917479555 [Eh]
	 Total Energy              =    -251.8460975455484459 [Eh]

	 ================> DF-SCS-MP2 Energies <==================
	-----------------------------------------------------------
	 SCS Same-Spin Scale       =       0.3333333333333333 [-]
	 SCS Opposite-Spin Scale   =       1.2000000000000000 [-]
	 SCS Same-Spin Energy      =      -0.0869500050243986 [Eh]
	 SCS Opposite-Spin Energy  =      -1.1253099320097115 [Eh]
	 SCS Correlation Energy    =      -1.2122599370341101 [Eh]
	 SCS Total Energy          =    -251.8597491908346058 [Eh]
	-----------------------------------------------------------

  Dipole Moment: [D]
     X:    -4.1995      Y:    -1.6861      Z:    -0.0291     Total:     4.5255

*** Psi4 exiting successfully. Buy a developer a beer!
