                               Psi4 1.4a3.dev225

  ==> Input File <==

--------------------------------------------------------------------------
#psi4
#
memory 32 gb

molecule  {
1 1
  N       -1.4684160    -0.7256290     0.0168660
  C        0.7536454    -0.0075006    -0.3412328
  C       -0.0143940    -1.1774380     0.1210740
  C       -0.0289190     1.1951300     0.1928770
  C       -1.4778980     0.8076670    -0.0707360
  C        2.2387250    -0.0120120     0.0592990
  H        0.7264100     0.0548870    -1.4716460
  H        0.1145000    -2.0977020    -0.4513780
  H        0.1860930    -1.3741010     1.1771840
  H        0.2151160     2.1494100    -0.2804030
  H        0.1583560     1.2945460     1.2678570
  H       -2.0155250    -1.0560110     0.8205780
  H       -1.9143950    -1.1326260    -0.8134590
  H       -2.2036780     1.1930490     0.6461700
  H       -1.7986400     1.0658470    -1.0809590
  H        2.7502970    -0.8896260    -0.3442510
  H        2.7625990     0.8753680    -0.3028200
  H        2.3187760    -0.0349210     1.1503390
units angstrom
no_reorient  #important for SAPT in psi4, default
symmetry c1  #important for SAPT in psi4, default
}

set PROPERTIES_ORIGIN ["COM"]
properties('MP2/aug-cc-pvtz', properties = ['dipole'])
--------------------------------------------------------------------------

    Molecular point group: c1
  Charge       = 1
  Multiplicity = 1
  Basis Set: AUG-CC-PVTZ
    Blend: AUG-CC-PVTZ
  Basis Set: (AUG-CC-PVTZ AUX)
    Blend: AUG-CC-PVTZ-JKFIT

    Orbital Energies [Eh]
    ---------------------

    Doubly Occupied:

       1A    -15.866142     2A    -11.463678     3A    -11.459810
       4A    -11.402898     5A    -11.397035     6A    -11.360897
       7A     -1.494804     8A     -1.268459     9A     -1.197257
      10A     -1.098750    11A     -1.024313    12A     -0.974253
      13A     -0.935364    14A     -0.893236    15A     -0.829451
      16A     -0.792320    17A     -0.755438    18A     -0.740347
      19A     -0.710020    20A     -0.705956    21A     -0.678660
      22A     -0.662958    23A     -0.634570    24A     -0.622937

  @DF-RHF Final Energy:  -250.65346832915711

   => Energetics <=

    Nuclear Repulsion Energy =            266.3672117304543576
    One-Electron Energy =                -856.1022551354134293
    Two-Electron Energy =                 339.0815750758019362
    Total Energy =                       -250.6534683291570786
  Basis Set: (AUG-CC-PVTZ AUX)
    Blend: AUG-CC-PVTZ-RI
    Molecular point group: c1

    Geometry (in Angstrom), charge = 1, multiplicity = 1:

       Center              X                  Y                   Z               Mass
    ------------   -----------------  -----------------  -----------------  -----------------
         N           -1.449851534770    -0.720490802644     0.015806213162    14.003074004430
         C            0.772209865230    -0.002362402644    -0.342292586838    12.000000000000
         C            0.004170465230    -1.172299802644     0.120014213162    12.000000000000
         C           -0.010354534770     1.200268197356     0.191817213162    12.000000000000
         C           -1.459333534770     0.812805197356    -0.071795786838    12.000000000000
         C            2.257289465230    -0.006873802644     0.058239213162    12.000000000000
         H            0.744974465230     0.060025197356    -1.472705786838     1.007825032230
         H            0.133064465230    -2.092563802644    -0.452437786838     1.007825032230
         H            0.204657465230    -1.368962802644     1.176124213162     1.007825032230
         H            0.233680465230     2.154548197356    -0.281462786838     1.007825032230
         H            0.176920465230     1.299684197356     1.266797213162     1.007825032230
         H           -1.996960534770    -1.050872802644     0.819518213162     1.007825032230
         H           -1.895830534770    -1.127487802644    -0.814518786838     1.007825032230
         H           -2.185113534770     1.198187197356     0.645110213162     1.007825032230
         H           -1.780075534770     1.070985197356    -1.082018786838     1.007825032230
         H            2.768861465230    -0.884487802644    -0.345310786838     1.007825032230
         H            2.781163465230     0.880506197356    -0.303879786838     1.007825032230
         H            2.337340465230    -0.029782802644     1.149279213162     1.007825032230

  Basis Set: AUG-CC-PVTZ
    Blend: AUG-CC-PVTZ
  Basis Set: (AUG-CC-PVTZ AUX)
    Blend: AUG-CC-PVTZ-JKFIT
	 Reference Energy          =    -250.6534683291571071 [Eh]
	 Singles Energy            =      -0.0000000000000000 [Eh]
	 Same-Spin Energy          =      -0.2614302301969337 [Eh]
	 Opposite-Spin Energy      =      -0.9377820086492189 [Eh]
	 Correlation Energy        =      -1.1992122388461526 [Eh]
	 Total Energy              =    -251.8526805680032510 [Eh]

	 ================> DF-SCS-MP2 Energies <==================
	-----------------------------------------------------------
	 SCS Same-Spin Scale       =       0.3333333333333333 [-]
	 SCS Opposite-Spin Scale   =       1.2000000000000000 [-]
	 SCS Same-Spin Energy      =      -0.0871434100656445 [Eh]
	 SCS Opposite-Spin Energy  =      -1.1253384103790627 [Eh]
	 SCS Correlation Energy    =      -1.2124818204447072 [Eh]
	 SCS Total Energy          =    -251.8659501496018152 [Eh]
	-----------------------------------------------------------

  Dipole Moment: [D]
     X:    -4.2079      Y:    -1.8565      Z:    -0.0225     Total:     4.5993

*** Psi4 exiting successfully. Buy a developer a beer!
