                               Psi4 1.4a3.dev225

  ==> Input File <==

--------------------------------------------------------------------------
#psi4
#
memory 32 gb

molecule  {
1 1
  N       -1.4684160    -0.7256290     0.0168660
  C        0.7789870     0.0252000    -0.3750600
  C       -0.0143940    -1.1774380     0.1210740
  C       -0.0289190     1.1951300     0.1928770
  C       -1.4778980     0.8076670    -0.0707360
  C        2.2387250    -0.0120120     0.0592990
  H        0.7264100     0.0548870    -1.4716460
  H        0.1145000    -2.0977020    -0.4513780
  H        0.1860930    -1.3741010     1.1771840
  H        0.2151160     2.1494100    -0.2804030
  H        0.1669020     1.2990827     1.3169119
  H       -2.0155250    -1.0560110     0.8205780
  H       -1.9143950    -1.1326260    -0.8134590
  H       -2.2036780     1.1930490     0.6461700
  H       -1.7986400     1.0658470    -1.0809590
  H        2.7502970    -0.8896260    -0.3442510
  H        2.7625990     0.8753680    -0.3028200
  H        2.3187760    -0.0349210     1.1503390
units angstrom
no_reorient  #important for SAPT in psi4, default
symmetry c1  #important for SAPT in psi4, default
}

set PROPERTIES_ORIGIN ["COM"]
properties('MP2/aug-cc-pvtz', properties = ['dipole'])
--------------------------------------------------------------------------

    Molecular point group: c1
  Charge       = 1
  Multiplicity = 1
  Basis Set: AUG-CC-PVTZ
    Blend: AUG-CC-PVTZ
  Basis Set: (AUG-CC-PVTZ AUX)
    Blend: AUG-CC-PVTZ-JKFIT

    Orbital Energies [Eh]
    ---------------------

    Doubly Occupied:

       1A    -15.865710     2A    -11.464234     3A    -11.460065
       4A    -11.403570     5A    -11.402295     6A    -11.359580
       7A     -1.492772     8A     -1.264205     9A     -1.193576
      10A     -1.098916    11A     -1.021449    12A     -0.973815
      13A     -0.934392    14A     -0.892519    15A     -0.825968
      16A     -0.790005    17A     -0.753860    18A     -0.739721
      19A     -0.711901    20A     -0.703503    21A     -0.675052
      22A     -0.654483    23A     -0.637376    24A     -0.629254

  @DF-RHF Final Energy:  -250.65474766292812

   => Energetics <=

    Nuclear Repulsion Energy =            265.6555310213027497
    One-Electron Energy =                -854.7241104550427053
    Two-Electron Energy =                 338.4138317708118393
    Total Energy =                       -250.6547476629281164
  Basis Set: (AUG-CC-PVTZ AUX)
    Blend: AUG-CC-PVTZ-RI
    Molecular point group: c1

    Geometry (in Angstrom), charge = 1, multiplicity = 1:

       Center              X                  Y                   Z               Mass
    ------------   -----------------  -----------------  -----------------  -----------------
         N           -1.453483626083    -0.725101642950     0.019946749416    14.003074004430
         C            0.793919373917     0.025727357050    -0.371979250584    12.000000000000
         C            0.000538373917    -1.176910642950     0.124154749416    12.000000000000
         C           -0.013986626083     1.195657357050     0.195957749416    12.000000000000
         C           -1.462965626083     0.808194357050    -0.067655250584    12.000000000000
         C            2.253657373917    -0.011484642950     0.062379749416    12.000000000000
         H            0.741342373917     0.055414357050    -1.468565250584     1.007825032230
         H            0.129432373917    -2.097174642950    -0.448297250584     1.007825032230
         H            0.201025373917    -1.373573642950     1.180264749416     1.007825032230
         H            0.230048373917     2.149937357050    -0.277322250584     1.007825032230
         H            0.181834373917     1.299610057050     1.319992649416     1.007825032230
         H           -2.000592626083    -1.055483642950     0.823658749416     1.007825032230
         H           -1.899462626083    -1.132098642950    -0.810378250584     1.007825032230
         H           -2.188745626083     1.193576357050     0.649250749416     1.007825032230
         H           -1.783707626083     1.066374357050    -1.077878250584     1.007825032230
         H            2.765229373917    -0.889098642950    -0.341170250584     1.007825032230
         H            2.777531373917     0.875895357050    -0.299739250584     1.007825032230
         H            2.333708373917    -0.034393642950     1.153419749416     1.007825032230

  Basis Set: AUG-CC-PVTZ
    Blend: AUG-CC-PVTZ
  Basis Set: (AUG-CC-PVTZ AUX)
    Blend: AUG-CC-PVTZ-JKFIT
	 Reference Energy          =    -250.6547476629281164 [Eh]
	 Singles Energy            =      -0.0000000000000000 [Eh]
	 Same-Spin Energy          =      -0.2611426461377293 [Eh]
	 Opposite-Spin Energy      =      -0.9377834525228189 [Eh]
	 Correlation Energy        =      -1.1989260986605483 [Eh]
	 Total Energy              =    -251.8536737615886523 [Eh]

	 ================> DF-SCS-MP2 Energies <==================
	-----------------------------------------------------------
	 SCS Same-Spin Scale       =       0.3333333333333333 [-]
	 SCS Opposite-Spin Scale   =       1.2000000000000000 [-]
	 SCS Same-Spin Energy      =      -0.0870475487125764 [Eh]
	 SCS Opposite-Spin Energy  =      -1.1253401430273826 [Eh]
	 SCS Correlation Energy    =      -1.2123876917399590 [Eh]
	 SCS Total Energy          =    -251.8671353546680791 [Eh]
	-----------------------------------------------------------

  Dipole Moment: [D]
     X:    -4.2232      Y:    -1.8689      Z:    -0.0320     Total:     4.6183

*** Psi4 exiting successfully. Buy a developer a beer!
