                               Psi4 1.4a3.dev225

  ==> Input File <==

--------------------------------------------------------------------------
#psi4
#
memory 32 gb

molecule  {
1 1
  N       -1.4684160    -0.7256290     0.0168660
  C        0.7789870     0.0252000    -0.3750600
  C       -0.0143940    -1.1774380     0.1210740
  C       -0.0289190     1.1951300     0.1928770
  C       -1.4778980     0.8076670    -0.0707360
  C        2.2387250    -0.0120120     0.0592990
  H        0.7264100     0.0548870    -1.4716460
  H        0.1145000    -2.0977020    -0.4513780
  H        0.1860930    -1.3741010     1.1771840
  H        0.2151160     2.1494100    -0.2804030
  H        0.1583560     1.2945460     1.2678570
  H       -2.0155250    -1.0560110     0.8205780
  H       -1.9143950    -1.1326260    -0.8134590
  H       -2.2036780     1.1930490     0.6461700
  H       -1.7986400     1.0658470    -1.0809590
  H        2.7409366    -0.8735680    -0.3368671
  H        2.7625990     0.8753680    -0.3028200
  H        2.3187760    -0.0349210     1.1503390
units angstrom
no_reorient  #important for SAPT in psi4, default
symmetry c1  #important for SAPT in psi4, default
}

set PROPERTIES_ORIGIN ["COM"]
properties('MP2/aug-cc-pvtz', properties = ['dipole'])
--------------------------------------------------------------------------

    Molecular point group: c1
  Charge       = 1
  Multiplicity = 1
  Basis Set: AUG-CC-PVTZ
    Blend: AUG-CC-PVTZ
  Basis Set: (AUG-CC-PVTZ AUX)
    Blend: AUG-CC-PVTZ-JKFIT

    Orbital Energies [Eh]
    ---------------------

    Doubly Occupied:

       1A    -15.865578     2A    -11.463740     3A    -11.460021
       4A    -11.402919     5A    -11.396589     6A    -11.357251
       7A     -1.492665     8A     -1.265082     9A     -1.194077
      10A     -1.100216    11A     -1.024064    12A     -0.975068
      13A     -0.935307    14A     -0.892472    15A     -0.827842
      16A     -0.791680    17A     -0.753835    18A     -0.740734
      19A     -0.712885    20A     -0.703713    21A     -0.679658
      22A     -0.654808    23A     -0.638543    24A     -0.630889

  @DF-RHF Final Energy:  -250.65691548591218

   => Energetics <=

    Nuclear Repulsion Energy =            265.9683981541007256
    One-Electron Energy =                -855.3313558399388512
    Two-Electron Energy =                 338.7060421999260029
    Total Energy =                       -250.6569154859121795
  Basis Set: (AUG-CC-PVTZ AUX)
    Blend: AUG-CC-PVTZ-RI
    Molecular point group: c1

    Geometry (in Angstrom), charge = 1, multiplicity = 1:

       Center              X                  Y                   Z               Mass
    ------------   -----------------  -----------------  -----------------  -----------------
         N           -1.453274019203    -0.725236507789     0.020434537485    14.003074004430
         C            0.794128980797     0.025592492211    -0.371491462515    12.000000000000
         C            0.000747980797    -1.177045507789     0.124642537485    12.000000000000
         C           -0.013777019203     1.195522492211     0.196445537485    12.000000000000
         C           -1.462756019203     0.808059492211    -0.067167462515    12.000000000000
         C            2.253866980797    -0.011619507789     0.062867537485    12.000000000000
         H            0.741551980797     0.055279492211    -1.468077462515     1.007825032230
         H            0.129641980797    -2.097309507789    -0.447809462515     1.007825032230
         H            0.201234980797    -1.373708507789     1.180752537485     1.007825032230
         H            0.230257980797     2.149802492211    -0.276834462515     1.007825032230
         H            0.173497980797     1.294938492211     1.271425537485     1.007825032230
         H           -2.000383019203    -1.055618507789     0.824146537485     1.007825032230
         H           -1.899253019203    -1.132233507789    -0.809890462515     1.007825032230
         H           -2.188536019203     1.193441492211     0.649738537485     1.007825032230
         H           -1.783498019203     1.066239492211    -1.077390462515     1.007825032230
         H            2.756078580797    -0.873175507789    -0.333298562515     1.007825032230
         H            2.777740980797     0.875760492211    -0.299251462515     1.007825032230
         H            2.333917980797    -0.034528507789     1.153907537485     1.007825032230

  Basis Set: AUG-CC-PVTZ
    Blend: AUG-CC-PVTZ
  Basis Set: (AUG-CC-PVTZ AUX)
    Blend: AUG-CC-PVTZ-JKFIT
	 Reference Energy          =    -250.6569154859121795 [Eh]
	 Singles Energy            =      -0.0000000000000000 [Eh]
	 Same-Spin Energy          =      -0.2611005307234445 [Eh]
	 Opposite-Spin Energy      =      -0.9372868322801363 [Eh]
	 Correlation Energy        =      -1.1983873630035808 [Eh]
	 Total Energy              =    -251.8553028489157555 [Eh]

	 ================> DF-SCS-MP2 Energies <==================
	-----------------------------------------------------------
	 SCS Same-Spin Scale       =       0.3333333333333333 [-]
	 SCS Opposite-Spin Scale   =       1.2000000000000000 [-]
	 SCS Same-Spin Energy      =      -0.0870335102411482 [Eh]
	 SCS Opposite-Spin Energy  =      -1.1247441987361635 [Eh]
	 SCS Correlation Energy    =      -1.2117777089773116 [Eh]
	 SCS Total Energy          =    -251.8686931948894880 [Eh]
	-----------------------------------------------------------

  Dipole Moment: [D]
     X:    -4.2159      Y:    -1.8726      Z:    -0.0177     Total:     4.6132

*** Psi4 exiting successfully. Buy a developer a beer!
