                               Psi4 1.4a3.dev225

  ==> Input File <==

--------------------------------------------------------------------------
#psi4
#
memory 32 gb

molecule  {
1 1
  N       -1.4684160    -0.7256290     0.0168660
  C        0.7789870     0.0252000    -0.3750600
  C       -0.0143940    -1.1774380     0.1210740
  C       -0.0289190     1.1951300     0.1928770
  C       -1.4778980     0.8076670    -0.0707360
  C        2.2387250    -0.0120120     0.0592990
  H        0.7264100     0.0548870    -1.4716460
  H        0.1145000    -2.0977020    -0.4513780
  H        0.1952660    -1.3830990     1.2255047
  H        0.2151160     2.1494100    -0.2804030
  H        0.1583560     1.2945460     1.2678570
  H       -2.0155250    -1.0560110     0.8205780
  H       -1.9143950    -1.1326260    -0.8134590
  H       -2.2036780     1.1930490     0.6461700
  H       -1.7986400     1.0658470    -1.0809590
  H        2.7502970    -0.8896260    -0.3442510
  H        2.7625990     0.8753680    -0.3028200
  H        2.3187760    -0.0349210     1.1503390
units angstrom
no_reorient  #important for SAPT in psi4, default
symmetry c1  #important for SAPT in psi4, default
}

set PROPERTIES_ORIGIN ["COM"]
properties('MP2/aug-cc-pvtz', properties = ['dipole'])
--------------------------------------------------------------------------

    Molecular point group: c1
  Charge       = 1
  Multiplicity = 1
  Basis Set: AUG-CC-PVTZ
    Blend: AUG-CC-PVTZ
  Basis Set: (AUG-CC-PVTZ AUX)
    Blend: AUG-CC-PVTZ-JKFIT

    Orbital Energies [Eh]
    ---------------------

    Doubly Occupied:

       1A    -15.865859     2A    -11.465310     3A    -11.463876
       4A    -11.403410     5A    -11.396710     6A    -11.359566
       7A     -1.492595     8A     -1.264750     9A     -1.192582
      10A     -1.097235    11A     -1.023104    12A     -0.972740
      13A     -0.935141    14A     -0.892155    15A     -0.826545
      16A     -0.788254    17A     -0.753752    18A     -0.739222
      19A     -0.708861    20A     -0.701469    21A     -0.679431
      22A     -0.654938    23A     -0.638321    24A     -0.629432

  @DF-RHF Final Energy:  -250.65460694162877

   => Energetics <=

    Nuclear Repulsion Energy =            265.6515444797141754
    One-Electron Energy =                -854.7217855604582155
    Two-Electron Energy =                 338.4156341391152978
    Total Energy =                       -250.6546069416287423
  Basis Set: (AUG-CC-PVTZ AUX)
    Blend: AUG-CC-PVTZ-RI
    Molecular point group: c1

    Geometry (in Angstrom), charge = 1, multiplicity = 1:

       Center              X                  Y                   Z               Mass
    ------------   -----------------  -----------------  -----------------  -----------------
         N           -1.453490965554    -0.724943209863     0.019955343738    14.003074004430
         C            0.793912034446     0.025885790137    -0.371970656262    12.000000000000
         C            0.000531034446    -1.176752209863     0.124163343738    12.000000000000
         C           -0.013993965554     1.195815790137     0.195966343738    12.000000000000
         C           -1.462972965554     0.808352790137    -0.067646656262    12.000000000000
         C            2.253650034446    -0.011326209863     0.062388343738    12.000000000000
         H            0.741335034446     0.055572790137    -1.468556656262     1.007825032230
         H            0.129425034446    -2.097016209863    -0.448288656262     1.007825032230
         H            0.210191034446    -1.382413209863     1.228594043738     1.007825032230
         H            0.230041034446     2.150095790137    -0.277313656262     1.007825032230
         H            0.173281034446     1.295231790137     1.270946343738     1.007825032230
         H           -2.000599965554    -1.055325209863     0.823667343738     1.007825032230
         H           -1.899469965554    -1.131940209863    -0.810369656262     1.007825032230
         H           -2.188752965554     1.193734790137     0.649259343738     1.007825032230
         H           -1.783714965554     1.066532790137    -1.077869656262     1.007825032230
         H            2.765222034446    -0.888940209863    -0.341161656262     1.007825032230
         H            2.777524034446     0.876053790137    -0.299730656262     1.007825032230
         H            2.333701034446    -0.034235209863     1.153428343738     1.007825032230

  Basis Set: AUG-CC-PVTZ
    Blend: AUG-CC-PVTZ
  Basis Set: (AUG-CC-PVTZ AUX)
    Blend: AUG-CC-PVTZ-JKFIT
	 Reference Energy          =    -250.6546069416287708 [Eh]
	 Singles Energy            =      -0.0000000000000000 [Eh]
	 Same-Spin Energy          =      -0.2611904669040125 [Eh]
	 Opposite-Spin Energy      =      -0.9378366924708303 [Eh]
	 Correlation Energy        =      -1.1990271593748427 [Eh]
	 Total Energy              =    -251.8536341010036210 [Eh]

	 ================> DF-SCS-MP2 Energies <==================
	-----------------------------------------------------------
	 SCS Same-Spin Scale       =       0.3333333333333333 [-]
	 SCS Opposite-Spin Scale   =       1.2000000000000000 [-]
	 SCS Same-Spin Energy      =      -0.0870634889680042 [Eh]
	 SCS Opposite-Spin Energy  =      -1.1254040309649964 [Eh]
	 SCS Correlation Energy    =      -1.2124675199330006 [Eh]
	 SCS Total Energy          =    -251.8670744615617707 [Eh]
	-----------------------------------------------------------

  Dipole Moment: [D]
     X:    -4.2185      Y:    -1.8643      Z:    -0.0213     Total:     4.6122

*** Psi4 exiting successfully. Buy a developer a beer!
