                               Psi4 1.4a3.dev225

  ==> Input File <==

--------------------------------------------------------------------------
#psi4
#
memory 32 gb

molecule  {
1 1
  N       -1.4684160    -0.7256290     0.0168660
  C        0.7789870     0.0252000    -0.3750600
  C       -0.0143940    -1.1774380     0.1210740
  C       -0.0289190     1.1951300     0.1928770
  C       -1.4625084     0.8062765    -0.0926387
  C        2.2387250    -0.0120120     0.0592990
  H        0.7264100     0.0548870    -1.4716460
  H        0.1145000    -2.0977020    -0.4513780
  H        0.1860930    -1.3741010     1.1771840
  H        0.2151160     2.1494100    -0.2804030
  H        0.1583560     1.2945460     1.2678570
  H       -2.0155250    -1.0560110     0.8205780
  H       -1.9143950    -1.1326260    -0.8134590
  H       -2.2036780     1.1930490     0.6461700
  H       -1.7986400     1.0658470    -1.0809590
  H        2.7502970    -0.8896260    -0.3442510
  H        2.7625990     0.8753680    -0.3028200
  H        2.3187760    -0.0349210     1.1503390
units angstrom
no_reorient  #important for SAPT in psi4, default
symmetry c1  #important for SAPT in psi4, default
}

set PROPERTIES_ORIGIN ["COM"]
properties('MP2/aug-cc-pvtz', properties = ['dipole'])
--------------------------------------------------------------------------

    Molecular point group: c1
  Charge       = 1
  Multiplicity = 1
  Basis Set: AUG-CC-PVTZ
    Blend: AUG-CC-PVTZ
  Basis Set: (AUG-CC-PVTZ AUX)
    Blend: AUG-CC-PVTZ-JKFIT

    Orbital Energies [Eh]
    ---------------------

    Doubly Occupied:

       1A    -15.865481     2A    -11.464263     3A    -11.459873
       4A    -11.403019     5A    -11.396269     6A    -11.359489
       7A     -1.492957     8A     -1.266143     9A     -1.194564
      10A     -1.099037    11A     -1.023542    12A     -0.975165
      13A     -0.934979    14A     -0.892226    15A     -0.828748
      16A     -0.792118    17A     -0.750140    18A     -0.740218
      19A     -0.712094    20A     -0.705963    21A     -0.679531
      22A     -0.654960    23A     -0.639085    24A     -0.628314

  @DF-RHF Final Energy:  -250.65585911700015

   => Energetics <=

    Nuclear Repulsion Energy =            266.0697373420213694
    One-Electron Energy =                -855.5348361141976739
    Two-Electron Energy =                 338.8092396551762135
    Total Energy =                       -250.6558591170001478
  Basis Set: (AUG-CC-PVTZ AUX)
    Blend: AUG-CC-PVTZ-RI
    Molecular point group: c1

    Geometry (in Angstrom), charge = 1, multiplicity = 1:

       Center              X                  Y                   Z               Mass
    ------------   -----------------  -----------------  -----------------  -----------------
         N           -1.455528556564    -0.724854732998     0.023573719566    14.003074004430
         C            0.791874443436     0.025974267002    -0.368352280434    12.000000000000
         C           -0.001506556564    -1.176663732998     0.127781719566    12.000000000000
         C           -0.016031556564     1.195904267002     0.199584719566    12.000000000000
         C           -1.449620956564     0.807050767002    -0.085930980434    12.000000000000
         C            2.251612443436    -0.011237732998     0.066006719566    12.000000000000
         H            0.739297443436     0.055661267002    -1.464938280434     1.007825032230
         H            0.127387443436    -2.096927732998    -0.444670280434     1.007825032230
         H            0.198980443436    -1.373326732998     1.183891719566     1.007825032230
         H            0.228003443436     2.150184267002    -0.273695280434     1.007825032230
         H            0.171243443436     1.295320267002     1.274564719566     1.007825032230
         H           -2.002637556564    -1.055236732998     0.827285719566     1.007825032230
         H           -1.901507556564    -1.131851732998    -0.806751280434     1.007825032230
         H           -2.190790556564     1.193823267002     0.652877719566     1.007825032230
         H           -1.785752556564     1.066621267002    -1.074251280434     1.007825032230
         H            2.763184443436    -0.888851732998    -0.337543280434     1.007825032230
         H            2.775486443436     0.876142267002    -0.296112280434     1.007825032230
         H            2.331663443436    -0.034146732998     1.157046719566     1.007825032230

  Basis Set: AUG-CC-PVTZ
    Blend: AUG-CC-PVTZ
  Basis Set: (AUG-CC-PVTZ AUX)
    Blend: AUG-CC-PVTZ-JKFIT
	 Reference Energy          =    -250.6558591170001478 [Eh]
	 Singles Energy            =      -0.0000000000000000 [Eh]
	 Same-Spin Energy          =      -0.2612200191598417 [Eh]
	 Opposite-Spin Energy      =      -0.9375235612551546 [Eh]
	 Correlation Energy        =      -1.1987435804149964 [Eh]
	 Total Energy              =    -251.8546026974151459 [Eh]

	 ================> DF-SCS-MP2 Energies <==================
	-----------------------------------------------------------
	 SCS Same-Spin Scale       =       0.3333333333333333 [-]
	 SCS Opposite-Spin Scale   =       1.2000000000000000 [-]
	 SCS Same-Spin Energy      =      -0.0870733397199472 [Eh]
	 SCS Opposite-Spin Energy  =      -1.1250282735061854 [Eh]
	 SCS Correlation Energy    =      -1.2121016132261326 [Eh]
	 SCS Total Energy          =    -251.8679607302262866 [Eh]
	-----------------------------------------------------------

  Dipole Moment: [D]
     X:    -4.2213      Y:    -1.8617      Z:    -0.0190     Total:     4.6136

*** Psi4 exiting successfully. Buy a developer a beer!
