                               Psi4 1.4a3.dev225

  ==> Input File <==

--------------------------------------------------------------------------
#psi4
#
memory 32 gb

molecule  {
1 1
  N       -1.4684160    -0.7256290     0.0168660
  C        0.7789870     0.0252000    -0.3750600
  C       -0.0143940    -1.1774380     0.1210740
  C       -0.0289190     1.1951300     0.1928770
  C       -1.4772806     0.7078317    -0.0650321
  C        2.2387250    -0.0120120     0.0592990
  H        0.7264100     0.0548870    -1.4716460
  H        0.1145000    -2.0977020    -0.4513780
  H        0.1860930    -1.3741010     1.1771840
  H        0.2151160     2.1494100    -0.2804030
  H        0.1583560     1.2945460     1.2678570
  H       -2.0155250    -1.0560110     0.8205780
  H       -1.9143950    -1.1326260    -0.8134590
  H       -2.2036780     1.1930490     0.6461700
  H       -1.7986400     1.0658470    -1.0809590
  H        2.7502970    -0.8896260    -0.3442510
  H        2.7625990     0.8753680    -0.3028200
  H        2.3187760    -0.0349210     1.1503390
units angstrom
no_reorient  #important for SAPT in psi4, default
symmetry c1  #important for SAPT in psi4, default
}

set PROPERTIES_ORIGIN ["COM"]
properties('MP2/aug-cc-pvtz', properties = ['dipole'])
--------------------------------------------------------------------------

    Molecular point group: c1
  Charge       = 1
  Multiplicity = 1
  Basis Set: AUG-CC-PVTZ
    Blend: AUG-CC-PVTZ
  Basis Set: (AUG-CC-PVTZ AUX)
    Blend: AUG-CC-PVTZ-JKFIT

    Orbital Energies [Eh]
    ---------------------

    Doubly Occupied:

       1A    -15.873477     2A    -11.463264     3A    -11.459697
       4A    -11.402337     5A    -11.396472     6A    -11.359390
       7A     -1.518209     8A     -1.265981     9A     -1.191003
      10A     -1.101960    11A     -1.023339    12A     -0.983176
      13A     -0.942527    14A     -0.904243    15A     -0.831899
      16A     -0.782717    17A     -0.770255    18A     -0.731944
      19A     -0.711761    20A     -0.700240    21A     -0.670165
      22A     -0.652246    23A     -0.637198    24A     -0.623418

  @DF-RHF Final Energy:  -250.64835108358102

   => Energetics <=

    Nuclear Repulsion Energy =            267.0273120499603579
    One-Electron Energy =                -857.3574847801162377
    Two-Electron Energy =                 339.6818216465749174
    Total Energy =                       -250.6483510835810193
  Basis Set: (AUG-CC-PVTZ AUX)
    Blend: AUG-CC-PVTZ-RI
    Molecular point group: c1

    Geometry (in Angstrom), charge = 1, multiplicity = 1:

       Center              X                  Y                   Z               Mass
    ------------   -----------------  -----------------  -----------------  -----------------
         N           -1.453469641007    -0.711133721217     0.019725974598    14.003074004430
         C            0.793933358993     0.039695278783    -0.372200025402    12.000000000000
         C            0.000552358993    -1.162942721217     0.123933974598    12.000000000000
         C           -0.013972641007     1.209625278783     0.195736974598    12.000000000000
         C           -1.462334241007     0.722326978783    -0.062172125402    12.000000000000
         C            2.253671358993     0.002483278783     0.062158974598    12.000000000000
         H            0.741356358993     0.069382278783    -1.468786025402     1.007825032230
         H            0.129446358993    -2.083206721217    -0.448518025402     1.007825032230
         H            0.201039358993    -1.359605721217     1.180043974598     1.007825032230
         H            0.230062358993     2.163905278783    -0.277543025402     1.007825032230
         H            0.173302358993     1.309041278783     1.270716974598     1.007825032230
         H           -2.000578641007    -1.041515721217     0.823437974598     1.007825032230
         H           -1.899448641007    -1.118130721217    -0.810599025402     1.007825032230
         H           -2.188731641007     1.207544278783     0.649029974598     1.007825032230
         H           -1.783693641007     1.080342278783    -1.078099025402     1.007825032230
         H            2.765243358993    -0.875130721217    -0.341391025402     1.007825032230
         H            2.777545358993     0.889863278783    -0.299960025402     1.007825032230
         H            2.333722358993    -0.020425721217     1.153198974598     1.007825032230

  Basis Set: AUG-CC-PVTZ
    Blend: AUG-CC-PVTZ
  Basis Set: (AUG-CC-PVTZ AUX)
    Blend: AUG-CC-PVTZ-JKFIT
	 Reference Energy          =    -250.6483510835810193 [Eh]
	 Singles Energy            =      -0.0000000000000000 [Eh]
	 Same-Spin Energy          =      -0.2617513688458581 [Eh]
	 Opposite-Spin Energy      =      -0.9377741900716632 [Eh]
	 Correlation Energy        =      -1.1995255589175213 [Eh]
	 Total Energy              =    -251.8478766424985338 [Eh]

	 ================> DF-SCS-MP2 Energies <==================
	-----------------------------------------------------------
	 SCS Same-Spin Scale       =       0.3333333333333333 [-]
	 SCS Opposite-Spin Scale   =       1.2000000000000000 [-]
	 SCS Same-Spin Energy      =      -0.0872504562819527 [Eh]
	 SCS Opposite-Spin Energy  =      -1.1253290280859958 [Eh]
	 SCS Correlation Energy    =      -1.2125794843679485 [Eh]
	 SCS Total Energy          =    -251.8609305679489694 [Eh]
	-----------------------------------------------------------

  Dipole Moment: [D]
     X:    -4.2267      Y:    -2.0116      Z:    -0.0055     Total:     4.6809

*** Psi4 exiting successfully. Buy a developer a beer!
