                               Psi4 1.4a3.dev225

  ==> Input File <==

--------------------------------------------------------------------------
#psi4
#
memory 32 gb

molecule  {
1 1
  N       -1.4684160    -0.7256290     0.0168660
  C        0.7789870     0.0252000    -0.3750600
  C       -0.0143940    -1.1774380     0.1210740
  C       -0.0289190     1.1951300     0.1928770
  C       -1.4654203     0.8088635    -0.0470426
  C        2.2387250    -0.0120120     0.0592990
  H        0.7264100     0.0548870    -1.4716460
  H        0.1145000    -2.0977020    -0.4513780
  H        0.1860930    -1.3741010     1.1771840
  H        0.2151160     2.1494100    -0.2804030
  H        0.1583560     1.2945460     1.2678570
  H       -2.0155250    -1.0560110     0.8205780
  H       -1.9143950    -1.1326260    -0.8134590
  H       -2.2036780     1.1930490     0.6461700
  H       -1.7986400     1.0658470    -1.0809590
  H        2.7502970    -0.8896260    -0.3442510
  H        2.7625990     0.8753680    -0.3028200
  H        2.3187760    -0.0349210     1.1503390
units angstrom
no_reorient  #important for SAPT in psi4, default
symmetry c1  #important for SAPT in psi4, default
}

set PROPERTIES_ORIGIN ["COM"]
properties('MP2/aug-cc-pvtz', properties = ['dipole'])
--------------------------------------------------------------------------

    Molecular point group: c1
  Charge       = 1
  Multiplicity = 1
  Basis Set: AUG-CC-PVTZ
    Blend: AUG-CC-PVTZ
  Basis Set: (AUG-CC-PVTZ AUX)
    Blend: AUG-CC-PVTZ-JKFIT

    Orbital Energies [Eh]
    ---------------------

    Doubly Occupied:

       1A    -15.865585     2A    -11.464663     3A    -11.460146
       4A    -11.403401     5A    -11.395906     6A    -11.359735
       7A     -1.493001     8A     -1.266350     9A     -1.195138
      10A     -1.099288    11A     -1.022775    12A     -0.974944
      13A     -0.935739    14A     -0.893022    15A     -0.827423
      16A     -0.789207    17A     -0.753886    18A     -0.742574
      19A     -0.711688    20A     -0.704783    21A     -0.676096
      22A     -0.655611    23A     -0.638579    24A     -0.630236

  @DF-RHF Final Energy:  -250.65587800596691

   => Energetics <=

    Nuclear Repulsion Energy =            266.0681476959338170
    One-Electron Energy =                -855.5284982723950407
    Two-Electron Energy =                 338.8044725704942834
    Total Energy =                       -250.6558780059669402
  Basis Set: (AUG-CC-PVTZ AUX)
    Blend: AUG-CC-PVTZ-RI
    Molecular point group: c1

    Geometry (in Angstrom), charge = 1, multiplicity = 1:

       Center              X                  Y                   Z               Mass
    ------------   -----------------  -----------------  -----------------  -----------------
         N           -1.455122702581    -0.725215303160     0.017218639102    14.003074004430
         C            0.792280297419     0.025613696840    -0.374707360898    12.000000000000
         C           -0.001100702581    -1.177024303160     0.121426639102    12.000000000000
         C           -0.015625702581     1.195543696840     0.193229639102    12.000000000000
         C           -1.452127002581     0.809277196840    -0.046689960898    12.000000000000
         C            2.252018297419    -0.011598303160     0.059651639102    12.000000000000
         H            0.739703297419     0.055300696840    -1.471293360898     1.007825032230
         H            0.127793297419    -2.097288303160    -0.451025360898     1.007825032230
         H            0.199386297419    -1.373687303160     1.177536639102     1.007825032230
         H            0.228409297419     2.149823696840    -0.280050360898     1.007825032230
         H            0.171649297419     1.294959696840     1.268209639102     1.007825032230
         H           -2.002231702581    -1.055597303160     0.820930639102     1.007825032230
         H           -1.901101702581    -1.132212303160    -0.813106360898     1.007825032230
         H           -2.190384702581     1.193462696840     0.646522639102     1.007825032230
         H           -1.785346702581     1.066260696840    -1.080606360898     1.007825032230
         H            2.763590297419    -0.889212303160    -0.343898360898     1.007825032230
         H            2.775892297419     0.875781696840    -0.302467360898     1.007825032230
         H            2.332069297419    -0.034507303160     1.150691639102     1.007825032230

  Basis Set: AUG-CC-PVTZ
    Blend: AUG-CC-PVTZ
  Basis Set: (AUG-CC-PVTZ AUX)
    Blend: AUG-CC-PVTZ-JKFIT
	 Reference Energy          =    -250.6558780059669118 [Eh]
	 Singles Energy            =      -0.0000000000000000 [Eh]
	 Same-Spin Energy          =      -0.2612359522658797 [Eh]
	 Opposite-Spin Energy      =      -0.9375486971645319 [Eh]
	 Correlation Energy        =      -1.1987846494304115 [Eh]
	 Total Energy              =    -251.8546626553973340 [Eh]

	 ================> DF-SCS-MP2 Energies <==================
	-----------------------------------------------------------
	 SCS Same-Spin Scale       =       0.3333333333333333 [-]
	 SCS Opposite-Spin Scale   =       1.2000000000000000 [-]
	 SCS Same-Spin Energy      =      -0.0870786507552932 [Eh]
	 SCS Opposite-Spin Energy  =      -1.1250584365974383 [Eh]
	 SCS Correlation Energy    =      -1.2121370873527315 [Eh]
	 SCS Total Energy          =    -251.8680150933196558 [Eh]
	-----------------------------------------------------------

  Dipole Moment: [D]
     X:    -4.2182      Y:    -1.8684      Z:    -0.0147     Total:     4.6135

*** Psi4 exiting successfully. Buy a developer a beer!
