                               Psi4 1.4a3.dev225

  ==> Input File <==

--------------------------------------------------------------------------
#psi4
#
memory 32 gb

molecule  {
1 1
  N       -1.4684160    -0.7256290     0.0168660
  C        0.7789870     0.0252000    -0.3750600
  C       -0.0143940    -1.1774380     0.1210740
  C       -0.0289190     1.1951300     0.1928770
  C       -1.4778980     0.8076670    -0.0707360
  C        2.2387250    -0.0120120     0.0592990
  H        0.7273675     0.0543464    -1.4516762
  H        0.1145000    -2.0977020    -0.4513780
  H        0.1860930    -1.3741010     1.1771840
  H        0.2151160     2.1494100    -0.2804030
  H        0.1583560     1.2945460     1.2678570
  H       -2.0155250    -1.0560110     0.8205780
  H       -1.9143950    -1.1326260    -0.8134590
  H       -2.2036780     1.1930490     0.6461700
  H       -1.7986400     1.0658470    -1.0809590
  H        2.7502970    -0.8896260    -0.3442510
  H        2.7625990     0.8753680    -0.3028200
  H        2.3187760    -0.0349210     1.1503390
units angstrom
no_reorient  #important for SAPT in psi4, default
symmetry c1  #important for SAPT in psi4, default
}

set PROPERTIES_ORIGIN ["COM"]
properties('MP2/aug-cc-pvtz', properties = ['dipole'])
--------------------------------------------------------------------------

    Molecular point group: c1
  Charge       = 1
  Multiplicity = 1
  Basis Set: AUG-CC-PVTZ
    Blend: AUG-CC-PVTZ
  Basis Set: (AUG-CC-PVTZ AUX)
    Blend: AUG-CC-PVTZ-JKFIT

    Orbital Energies [Eh]
    ---------------------

    Doubly Occupied:

       1A    -15.865592     2A    -11.463822     3A    -11.459876
       4A    -11.400682     5A    -11.396537     6A    -11.359414
       7A     -1.492711     8A     -1.265627     9A     -1.194067
      10A     -1.098905    11A     -1.023800    12A     -0.976129
      13A     -0.935950    14A     -0.892864    15A     -0.828652
      16A     -0.791792    17A     -0.753685    18A     -0.739566
      19A     -0.712106    20A     -0.703639    21A     -0.679641
      22A     -0.654605    23A     -0.640321    24A     -0.629623

  @DF-RHF Final Energy:  -250.65695223576387

   => Energetics <=

    Nuclear Repulsion Energy =            265.9826454036622181
    One-Electron Energy =                -855.3599833424254939
    Two-Electron Energy =                 338.7203857029994083
    Total Energy =                       -250.6569522357638675
  Basis Set: (AUG-CC-PVTZ AUX)
    Blend: AUG-CC-PVTZ-RI
    Molecular point group: c1

    Geometry (in Angstrom), charge = 1, multiplicity = 1:

       Center              X                  Y                   Z               Mass
    ------------   -----------------  -----------------  -----------------  -----------------
         N           -1.453394797407    -0.725042209619     0.020287210762    14.003074004430
         C            0.794008202593     0.025786790381    -0.371638789238    12.000000000000
         C            0.000627202593    -1.176851209619     0.124495210762    12.000000000000
         C           -0.013897797407     1.195716790381     0.196298210762    12.000000000000
         C           -1.462876797407     0.808253790381    -0.067314789238    12.000000000000
         C            2.253746202593    -0.011425209619     0.062720210762    12.000000000000
         H            0.742388702593     0.054933190381    -1.448254989238     1.007825032230
         H            0.129521202593    -2.097115209619    -0.447956789238     1.007825032230
         H            0.201114202593    -1.373514209619     1.180605210762     1.007825032230
         H            0.230137202593     2.149996790381    -0.276981789238     1.007825032230
         H            0.173377202593     1.295132790381     1.271278210762     1.007825032230
         H           -2.000503797407    -1.055424209619     0.823999210762     1.007825032230
         H           -1.899373797407    -1.132039209619    -0.810037789238     1.007825032230
         H           -2.188656797407     1.193635790381     0.649591210762     1.007825032230
         H           -1.783618797407     1.066433790381    -1.077537789238     1.007825032230
         H            2.765318202593    -0.889039209619    -0.340829789238     1.007825032230
         H            2.777620202593     0.875954790381    -0.299398789238     1.007825032230
         H            2.333797202593    -0.034334209619     1.153760210762     1.007825032230

  Basis Set: AUG-CC-PVTZ
    Blend: AUG-CC-PVTZ
  Basis Set: (AUG-CC-PVTZ AUX)
    Blend: AUG-CC-PVTZ-JKFIT
	 Reference Energy          =    -250.6569522357638675 [Eh]
	 Singles Energy            =      -0.0000000000000000 [Eh]
	 Same-Spin Energy          =      -0.2610818356937478 [Eh]
	 Opposite-Spin Energy      =      -0.9372720364070504 [Eh]
	 Correlation Energy        =      -1.1983538721007982 [Eh]
	 Total Energy              =    -251.8553061078646635 [Eh]

	 ================> DF-SCS-MP2 Energies <==================
	-----------------------------------------------------------
	 SCS Same-Spin Scale       =       0.3333333333333333 [-]
	 SCS Opposite-Spin Scale   =       1.2000000000000000 [-]
	 SCS Same-Spin Energy      =      -0.0870272785645826 [Eh]
	 SCS Opposite-Spin Energy  =      -1.1247264436884603 [Eh]
	 SCS Correlation Energy    =      -1.2117537222530428 [Eh]
	 SCS Total Energy          =    -251.8687059580169034 [Eh]
	-----------------------------------------------------------

  Dipole Moment: [D]
     X:    -4.2244      Y:    -1.8679      Z:    -0.0243     Total:     4.6190

*** Psi4 exiting successfully. Buy a developer a beer!
