                               Psi4 1.4a3.dev225

  ==> Input File <==

--------------------------------------------------------------------------
#psi4
#
memory 32 gb

molecule  {
1 1
  N       -1.4684160    -0.7256290     0.0168660
  C        0.7789870     0.0252000    -0.3750600
  C       -0.0143940    -1.1774380     0.1210740
  C       -0.0289190     1.1951300     0.1928770
  C       -1.4702417     0.7633756    -0.0423601
  C        2.2387250    -0.0120120     0.0592990
  H        0.7264100     0.0548870    -1.4716460
  H        0.1145000    -2.0977020    -0.4513780
  H        0.1860930    -1.3741010     1.1771840
  H        0.2151160     2.1494100    -0.2804030
  H        0.1583560     1.2945460     1.2678570
  H       -2.0155250    -1.0560110     0.8205780
  H       -1.9143950    -1.1326260    -0.8134590
  H       -2.2036780     1.1930490     0.6461700
  H       -1.7986400     1.0658470    -1.0809590
  H        2.7502970    -0.8896260    -0.3442510
  H        2.7625990     0.8753680    -0.3028200
  H        2.3187760    -0.0349210     1.1503390
units angstrom
no_reorient  #important for SAPT in psi4, default
symmetry c1  #important for SAPT in psi4, default
}

set PROPERTIES_ORIGIN ["COM"]
properties('MP2/aug-cc-pvtz', properties = ['dipole'])
--------------------------------------------------------------------------

    Molecular point group: c1
  Charge       = 1
  Multiplicity = 1
  Basis Set: AUG-CC-PVTZ
    Blend: AUG-CC-PVTZ
  Basis Set: (AUG-CC-PVTZ AUX)
    Blend: AUG-CC-PVTZ-JKFIT

    Orbital Energies [Eh]
    ---------------------

    Doubly Occupied:

       1A    -15.869707     2A    -11.462244     3A    -11.461725
       4A    -11.402973     5A    -11.395877     6A    -11.359622
       7A     -1.503989     8A     -1.266160     9A     -1.193403
      10A     -1.100637    11A     -1.022425    12A     -0.978392
      13A     -0.939184    14A     -0.898589    15A     -0.828695
      16A     -0.784048    17A     -0.763052    18A     -0.739293
      19A     -0.711740    20A     -0.703080    21A     -0.672485
      22A     -0.654009    23A     -0.637676    24A     -0.628258

  @DF-RHF Final Energy:  -250.65421337994573

   => Energetics <=

    Nuclear Repulsion Energy =            266.5143665890111606
    One-Electron Energy =                -856.3826307787036285
    Two-Electron Energy =                 339.2140508097467659
    Total Energy =                       -250.6542133799457019
  Basis Set: (AUG-CC-PVTZ AUX)
    Blend: AUG-CC-PVTZ-RI
    Molecular point group: c1

    Geometry (in Angstrom), charge = 1, multiplicity = 1:

       Center              X                  Y                   Z               Mass
    ------------   -----------------  -----------------  -----------------  -----------------
         N           -1.454450706841    -0.718875303365     0.016566002927    14.003074004430
         C            0.792952293159     0.031953696635    -0.375359997073    12.000000000000
         C           -0.000428706841    -1.170684303365     0.120774002927    12.000000000000
         C           -0.014953706841     1.201883696635     0.192577002927    12.000000000000
         C           -1.456276406841     0.770129296635    -0.042660097073    12.000000000000
         C            2.252690293159    -0.005258303365     0.058999002927    12.000000000000
         H            0.740375293159     0.061640696635    -1.471945997073     1.007825032230
         H            0.128465293159    -2.090948303365    -0.451677997073     1.007825032230
         H            0.200058293159    -1.367347303365     1.176884002927     1.007825032230
         H            0.229081293159     2.156163696635    -0.280702997073     1.007825032230
         H            0.172321293159     1.301299696635     1.267557002927     1.007825032230
         H           -2.001559706841    -1.049257303365     0.820278002927     1.007825032230
         H           -1.900429706841    -1.125872303365    -0.813758997073     1.007825032230
         H           -2.189712706841     1.199802696635     0.645870002927     1.007825032230
         H           -1.784674706841     1.072600696635    -1.081258997073     1.007825032230
         H            2.764262293159    -0.882872303365    -0.344550997073     1.007825032230
         H            2.776564293159     0.882121696635    -0.303119997073     1.007825032230
         H            2.332741293159    -0.028167303365     1.150039002927     1.007825032230

  Basis Set: AUG-CC-PVTZ
    Blend: AUG-CC-PVTZ
  Basis Set: (AUG-CC-PVTZ AUX)
    Blend: AUG-CC-PVTZ-JKFIT
	 Reference Energy          =    -250.6542133799457304 [Eh]
	 Singles Energy            =      -0.0000000000000000 [Eh]
	 Same-Spin Energy          =      -0.2614077303320093 [Eh]
	 Opposite-Spin Energy      =      -0.9375680015071541 [Eh]
	 Correlation Energy        =      -1.1989757318391634 [Eh]
	 Total Energy              =    -251.8531891117849000 [Eh]

	 ================> DF-SCS-MP2 Energies <==================
	-----------------------------------------------------------
	 SCS Same-Spin Scale       =       0.3333333333333333 [-]
	 SCS Opposite-Spin Scale   =       1.2000000000000000 [-]
	 SCS Same-Spin Energy      =      -0.0871359101106697 [Eh]
	 SCS Opposite-Spin Energy  =      -1.1250816018085850 [Eh]
	 SCS Correlation Energy    =      -1.2122175119192546 [Eh]
	 SCS Total Energy          =    -251.8664308918649795 [Eh]
	-----------------------------------------------------------

  Dipole Moment: [D]
     X:    -4.2250      Y:    -1.9425      Z:    -0.0096     Total:     4.6502

*** Psi4 exiting successfully. Buy a developer a beer!
