                               Psi4 1.4a3.dev225

  ==> Input File <==

--------------------------------------------------------------------------
#psi4
#
memory 32 gb

molecule  {
1 1
  N       -1.4684160    -0.7256290     0.0168660
  C        0.7789870     0.0252000    -0.3750600
  C       -0.0143940    -1.1774380     0.1210740
  C       -0.0289190     1.1951300     0.1928770
  C       -1.3827506     0.8331098    -0.0534258
  C        2.2387250    -0.0120120     0.0592990
  H        0.7264100     0.0548870    -1.4716460
  H        0.1145000    -2.0977020    -0.4513780
  H        0.1860930    -1.3741010     1.1771840
  H        0.2151160     2.1494100    -0.2804030
  H        0.1583560     1.2945460     1.2678570
  H       -2.0155250    -1.0560110     0.8205780
  H       -1.9143950    -1.1326260    -0.8134590
  H       -2.2036780     1.1930490     0.6461700
  H       -1.7986400     1.0658470    -1.0809590
  H        2.7502970    -0.8896260    -0.3442510
  H        2.7625990     0.8753680    -0.3028200
  H        2.3187760    -0.0349210     1.1503390
units angstrom
no_reorient  #important for SAPT in psi4, default
symmetry c1  #important for SAPT in psi4, default
}

set PROPERTIES_ORIGIN ["COM"]
properties('MP2/aug-cc-pvtz', properties = ['dipole'])
--------------------------------------------------------------------------

    Molecular point group: c1
  Charge       = 1
  Multiplicity = 1
  Basis Set: AUG-CC-PVTZ
    Blend: AUG-CC-PVTZ
  Basis Set: (AUG-CC-PVTZ AUX)
    Blend: AUG-CC-PVTZ-JKFIT

    Orbital Energies [Eh]
    ---------------------

    Doubly Occupied:

       1A    -15.862110     2A    -11.469996     3A    -11.459048
       4A    -11.404823     5A    -11.392102     6A    -11.360078
       7A     -1.488555     8A     -1.276097     9A     -1.200828
      10A     -1.099520    11A     -1.017541    12A     -0.975079
      13A     -0.934984    14A     -0.889546    15A     -0.829892
      16A     -0.788025    17A     -0.758135    18A     -0.738242
      19A     -0.712686    20A     -0.711547    21A     -0.667346
      22A     -0.658547    23A     -0.640732    24A     -0.629130

  @DF-RHF Final Energy:  -250.64440442015865

   => Energetics <=

    Nuclear Repulsion Energy =            266.9333106805290186
    One-Electron Energy =                -857.2262458493570421
    Two-Electron Energy =                 339.6485307486694296
    Total Energy =                       -250.6444044201586507
  Basis Set: (AUG-CC-PVTZ AUX)
    Blend: AUG-CC-PVTZ-RI
    Molecular point group: c1

    Geometry (in Angstrom), charge = 1, multiplicity = 1:

       Center              X                  Y                   Z               Mass
    ------------   -----------------  -----------------  -----------------  -----------------
         N           -1.466645016890    -0.728594697176     0.018108314965    14.003074004430
         C            0.780757983110     0.022234302824    -0.373817685035    12.000000000000
         C           -0.012623016890    -1.180403697176     0.122316314965    12.000000000000
         C           -0.027148016890     1.192164302824     0.194119314965    12.000000000000
         C           -1.380979616890     0.830144102824    -0.052183485035    12.000000000000
         C            2.240495983110    -0.014977697176     0.060541314965    12.000000000000
         H            0.728180983110     0.051921302824    -1.470403685035     1.007825032230
         H            0.116270983110    -2.100667697176    -0.450135685035     1.007825032230
         H            0.187863983110    -1.377066697176     1.178426314965     1.007825032230
         H            0.216886983110     2.146444302824    -0.279160685035     1.007825032230
         H            0.160126983110     1.291580302824     1.269099314965     1.007825032230
         H           -2.013754016890    -1.058976697176     0.821820314965     1.007825032230
         H           -1.912624016890    -1.135591697176    -0.812216685035     1.007825032230
         H           -2.201907016890     1.190083302824     0.647412314965     1.007825032230
         H           -1.796869016890     1.062881302824    -1.079716685035     1.007825032230
         H            2.752067983110    -0.892591697176    -0.343008685035     1.007825032230
         H            2.764369983110     0.872402302824    -0.301577685035     1.007825032230
         H            2.320546983110    -0.037886697176     1.151581314965     1.007825032230

  Basis Set: AUG-CC-PVTZ
    Blend: AUG-CC-PVTZ
  Basis Set: (AUG-CC-PVTZ AUX)
    Blend: AUG-CC-PVTZ-JKFIT
	 Reference Energy          =    -250.6444044201586507 [Eh]
	 Singles Energy            =      -0.0000000000000000 [Eh]
	 Same-Spin Energy          =      -0.2622472210484417 [Eh]
	 Opposite-Spin Energy      =      -0.9387485178522936 [Eh]
	 Correlation Energy        =      -1.2009957389007353 [Eh]
	 Total Energy              =    -251.8454001590593805 [Eh]

	 ================> DF-SCS-MP2 Energies <==================
	-----------------------------------------------------------
	 SCS Same-Spin Scale       =       0.3333333333333333 [-]
	 SCS Opposite-Spin Scale   =       1.2000000000000000 [-]
	 SCS Same-Spin Energy      =      -0.0874157403494805 [Eh]
	 SCS Opposite-Spin Energy  =      -1.1264982214227524 [Eh]
	 SCS Correlation Energy    =      -1.2139139617722330 [Eh]
	 SCS Total Energy          =    -251.8583183819308715 [Eh]
	-----------------------------------------------------------

  Dipole Moment: [D]
     X:    -4.1805      Y:    -1.8004      Z:    -0.0247     Total:     4.5517

*** Psi4 exiting successfully. Buy a developer a beer!
