                               Psi4 1.4a3.dev225

  ==> Input File <==

--------------------------------------------------------------------------
#psi4
#
memory 32 gb

molecule  {
1 1
  N       -1.4684160    -0.7256290     0.0168660
  C        0.7789870     0.0252000    -0.3750600
  C       -0.0143940    -1.1774380     0.1210740
  C       -0.0289190     1.1951300     0.1928770
  C       -1.4778980     0.8076670    -0.0707360
  C        2.2387250    -0.0120120     0.0592990
  H        0.7264100     0.0548870    -1.4716460
  H        0.1145000    -2.0977020    -0.4513780
  H        0.1860930    -1.3741010     1.1771840
  H        0.2151160     2.1494100    -0.2804030
  H        0.1583560     1.2945460     1.2678570
  H       -2.0155250    -1.0560110     0.8205780
  H       -1.9143950    -1.1326260    -0.8134590
  H       -2.2036780     1.1930490     0.6461700
  H       -1.7986400     1.0658470    -1.0809590
  H        2.7626915    -0.8781291    -0.3530904
  H        2.7625990     0.8753680    -0.3028200
  H        2.3187760    -0.0349210     1.1503390
units angstrom
no_reorient  #important for SAPT in psi4, default
symmetry c1  #important for SAPT in psi4, default
}

set PROPERTIES_ORIGIN ["COM"]
properties('MP2/aug-cc-pvtz', properties = ['dipole'])
--------------------------------------------------------------------------

    Molecular point group: c1
  Charge       = 1
  Multiplicity = 1
  Basis Set: AUG-CC-PVTZ
    Blend: AUG-CC-PVTZ
  Basis Set: (AUG-CC-PVTZ AUX)
    Blend: AUG-CC-PVTZ-JKFIT

    Orbital Energies [Eh]
    ---------------------

    Doubly Occupied:

       1A    -15.865593     2A    -11.463852     3A    -11.459997
       4A    -11.403182     5A    -11.396780     6A    -11.359496
       7A     -1.492697     8A     -1.265011     9A     -1.193994
      10A     -1.098946    11A     -1.023820    12A     -0.974930
      13A     -0.935147    14A     -0.892430    15A     -0.827921
      16A     -0.791654    17A     -0.753736    18A     -0.739072
      19A     -0.712008    20A     -0.703259    21A     -0.679830
      22A     -0.655321    23A     -0.638434    24A     -0.629184

  @DF-RHF Final Energy:  -250.65685973595379

   => Energetics <=

    Nuclear Repulsion Energy =            265.8649451285725718
    One-Electron Energy =                -855.1310200794955563
    Two-Electron Energy =                 338.6092152149691969
    Total Energy =                       -250.6568597359537875
  Basis Set: (AUG-CC-PVTZ AUX)
    Blend: AUG-CC-PVTZ-RI
    Molecular point group: c1

    Geometry (in Angstrom), charge = 1, multiplicity = 1:

       Center              X                  Y                   Z               Mass
    ------------   -----------------  -----------------  -----------------  -----------------
         N           -1.453528675455    -0.725183116938     0.020624442507    14.003074004430
         C            0.793874324545     0.025645883062    -0.371301557493    12.000000000000
         C            0.000493324545    -1.176992116938     0.124832442507    12.000000000000
         C           -0.014031675455     1.195575883062     0.196635442507    12.000000000000
         C           -1.463010675455     0.808112883062    -0.066977557493    12.000000000000
         C            2.253612324545    -0.011566116938     0.063057442507    12.000000000000
         H            0.741297324545     0.055332883062    -1.467887557493     1.007825032230
         H            0.129387324545    -2.097256116938    -0.447619557493     1.007825032230
         H            0.200980324545    -1.373655116938     1.180942442507     1.007825032230
         H            0.230003324545     2.149855883062    -0.276644557493     1.007825032230
         H            0.173243324545     1.294991883062     1.271615442507     1.007825032230
         H           -2.000637675455    -1.055565116938     0.824336442507     1.007825032230
         H           -1.899507675455    -1.132180116938    -0.809700557493     1.007825032230
         H           -2.188790675455     1.193494883062     0.649928442507     1.007825032230
         H           -1.783752675455     1.066292883062    -1.077200557493     1.007825032230
         H            2.777578824545    -0.877683216938    -0.349331957493     1.007825032230
         H            2.777486324545     0.875813883062    -0.299061557493     1.007825032230
         H            2.333663324545    -0.034475116938     1.154097442507     1.007825032230

  Basis Set: AUG-CC-PVTZ
    Blend: AUG-CC-PVTZ
  Basis Set: (AUG-CC-PVTZ AUX)
    Blend: AUG-CC-PVTZ-JKFIT
	 Reference Energy          =    -250.6568597359537875 [Eh]
	 Singles Energy            =      -0.0000000000000000 [Eh]
	 Same-Spin Energy          =      -0.2610975638802235 [Eh]
	 Opposite-Spin Energy      =      -0.9373951807622229 [Eh]
	 Correlation Energy        =      -1.1984927446424465 [Eh]
	 Total Energy              =    -251.8553524805962240 [Eh]

	 ================> DF-SCS-MP2 Energies <==================
	-----------------------------------------------------------
	 SCS Same-Spin Scale       =       0.3333333333333333 [-]
	 SCS Opposite-Spin Scale   =       1.2000000000000000 [-]
	 SCS Same-Spin Energy      =      -0.0870325212934078 [Eh]
	 SCS Opposite-Spin Energy  =      -1.1248742169146675 [Eh]
	 SCS Correlation Energy    =      -1.2119067382080753 [Eh]
	 SCS Total Energy          =    -251.8687664741618732 [Eh]
	-----------------------------------------------------------

  Dipole Moment: [D]
     X:    -4.2174      Y:    -1.8651      Z:    -0.0205     Total:     4.6114

*** Psi4 exiting successfully. Buy a developer a beer!
