                               Psi4 1.4a3.dev225

  ==> Input File <==

--------------------------------------------------------------------------
#psi4
#
memory 32 gb

molecule  {
1 1
  N       -1.4684160    -0.7256290     0.0168660
  C        0.8194018     0.0342493    -0.2770956
  C       -0.0143940    -1.1774380     0.1210740
  C       -0.0289190     1.1951300     0.1928770
  C       -1.4778980     0.8076670    -0.0707360
  C        2.2387250    -0.0120120     0.0592990
  H        0.7264100     0.0548870    -1.4716460
  H        0.1145000    -2.0977020    -0.4513780
  H        0.1860930    -1.3741010     1.1771840
  H        0.2151160     2.1494100    -0.2804030
  H        0.1583560     1.2945460     1.2678570
  H       -2.0155250    -1.0560110     0.8205780
  H       -1.9143950    -1.1326260    -0.8134590
  H       -2.2036780     1.1930490     0.6461700
  H       -1.7986400     1.0658470    -1.0809590
  H        2.7502970    -0.8896260    -0.3442510
  H        2.7625990     0.8753680    -0.3028200
  H        2.3187760    -0.0349210     1.1503390
units angstrom
no_reorient  #important for SAPT in psi4, default
symmetry c1  #important for SAPT in psi4, default
}

set PROPERTIES_ORIGIN ["COM"]
properties('MP2/aug-cc-pvtz', properties = ['dipole'])
--------------------------------------------------------------------------

    Molecular point group: c1
  Charge       = 1
  Multiplicity = 1
  Basis Set: AUG-CC-PVTZ
    Blend: AUG-CC-PVTZ
  Basis Set: (AUG-CC-PVTZ AUX)
    Blend: AUG-CC-PVTZ-JKFIT

    Orbital Energies [Eh]
    ---------------------

    Doubly Occupied:

       1A    -15.867885     2A    -11.466102     3A    -11.460919
       4A    -11.409074     5A    -11.397414     6A    -11.358034
       7A     -1.493759     8A     -1.271886     9A     -1.196790
      10A     -1.109695    11A     -1.028528    12A     -0.968721
      13A     -0.932509    14A     -0.890856    15A     -0.827526
      16A     -0.790345    17A     -0.757072    18A     -0.747263
      19A     -0.714124    20A     -0.706921    21A     -0.680694
      22A     -0.675468    23A     -0.635695    24A     -0.602029

  @DF-RHF Final Energy:  -250.64413615559567

   => Energetics <=

    Nuclear Repulsion Energy =            266.2972064142988415
    One-Electron Energy =                -855.9040600465583566
    Two-Electron Energy =                 338.9627174766638973
    Total Energy =                       -250.6441361555956746
  Basis Set: (AUG-CC-PVTZ AUX)
    Blend: AUG-CC-PVTZ-RI
    Molecular point group: c1

    Geometry (in Angstrom), charge = 1, multiplicity = 1:

       Center              X                  Y                   Z               Mass
    ------------   -----------------  -----------------  -----------------  -----------------
         N           -1.459016511886    -0.726309808521     0.006866916451    14.003074004430
         C            0.828801288114     0.033568491479    -0.287094683549    12.000000000000
         C           -0.004994511886    -1.178118808521     0.111074916451    12.000000000000
         C           -0.019519511886     1.194449191479     0.182877916451    12.000000000000
         C           -1.468498511886     0.806986191479    -0.080735083549    12.000000000000
         C            2.248124488114    -0.012692808521     0.049299916451    12.000000000000
         H            0.735809488114     0.054206191479    -1.481645083549     1.007825032230
         H            0.123899488114    -2.098382808521    -0.461377083549     1.007825032230
         H            0.195492488114    -1.374781808521     1.167184916451     1.007825032230
         H            0.224515488114     2.148729191479    -0.290402083549     1.007825032230
         H            0.167755488114     1.293865191479     1.257857916451     1.007825032230
         H           -2.006125511886    -1.056691808521     0.810578916451     1.007825032230
         H           -1.904995511886    -1.133306808521    -0.823458083549     1.007825032230
         H           -2.194278511886     1.192368191479     0.636170916451     1.007825032230
         H           -1.789240511886     1.065166191479    -1.090958083549     1.007825032230
         H            2.759696488114    -0.890306808521    -0.354250083549     1.007825032230
         H            2.771998488114     0.874687191479    -0.312819083549     1.007825032230
         H            2.328175488114    -0.035601808521     1.140339916451     1.007825032230

  Basis Set: AUG-CC-PVTZ
    Blend: AUG-CC-PVTZ
  Basis Set: (AUG-CC-PVTZ AUX)
    Blend: AUG-CC-PVTZ-JKFIT
	 Reference Energy          =    -250.6441361555956746 [Eh]
	 Singles Energy            =      -0.0000000000000000 [Eh]
	 Same-Spin Energy          =      -0.2617970309709649 [Eh]
	 Opposite-Spin Energy      =      -0.9385412322720887 [Eh]
	 Correlation Energy        =      -1.2003382632430535 [Eh]
	 Total Energy              =    -251.8444744188387290 [Eh]

	 ================> DF-SCS-MP2 Energies <==================
	-----------------------------------------------------------
	 SCS Same-Spin Scale       =       0.3333333333333333 [-]
	 SCS Opposite-Spin Scale   =       1.2000000000000000 [-]
	 SCS Same-Spin Energy      =      -0.0872656769903216 [Eh]
	 SCS Opposite-Spin Energy  =      -1.1262494787265065 [Eh]
	 SCS Correlation Energy    =      -1.2135151557168280 [Eh]
	 SCS Total Energy          =    -251.8576513113125088 [Eh]
	-----------------------------------------------------------

  Dipole Moment: [D]
     X:    -4.2521      Y:    -1.8686      Z:    -0.0229     Total:     4.6446

*** Psi4 exiting successfully. Buy a developer a beer!
