                               Psi4 1.4a3.dev225

  ==> Input File <==

--------------------------------------------------------------------------
#psi4
#
memory 32 gb

molecule  {
1 1
  N       -1.4684160    -0.7256290     0.0168660
  C        0.7789870     0.0252000    -0.3750600
  C       -0.0143940    -1.1774380     0.1210740
  C       -0.0289190     1.1951300     0.1928770
  C       -1.4778980     0.8076670    -0.0707360
  C        2.2387250    -0.0120120     0.0592990
  H        0.7264100     0.0548870    -1.4716460
  H        0.1145000    -2.0977020    -0.4513780
  H        0.1860930    -1.3741010     1.1771840
  H        0.2151160     2.1494100    -0.2804030
  H        0.1583560     1.2945460     1.2678570
  H       -2.0155250    -1.0560110     0.8205780
  H       -1.9143950    -1.1326260    -0.8134590
  H       -2.2036780     1.1930490     0.6461700
  H       -1.7986400     1.0658470    -1.0809590
  H        2.7502970    -0.8896260    -0.3442510
  H        2.7625990     0.8753680    -0.3028200
  H        2.3202392    -0.0353397     1.1702810
units angstrom
no_reorient  #important for SAPT in psi4, default
symmetry c1  #important for SAPT in psi4, default
}

set PROPERTIES_ORIGIN ["COM"]
properties('MP2/aug-cc-pvtz', properties = ['dipole'])
--------------------------------------------------------------------------

    Molecular point group: c1
  Charge       = 1
  Multiplicity = 1
  Basis Set: AUG-CC-PVTZ
    Blend: AUG-CC-PVTZ
  Basis Set: (AUG-CC-PVTZ AUX)
    Blend: AUG-CC-PVTZ-JKFIT

    Orbital Energies [Eh]
    ---------------------

    Doubly Occupied:

       1A    -15.865615     2A    -11.463832     3A    -11.460036
       4A    -11.403265     5A    -11.396712     6A    -11.361969
       7A     -1.492714     8A     -1.264938     9A     -1.193960
      10A     -1.097858    11A     -1.023687    12A     -0.974602
      13A     -0.934802    14A     -0.892145    15A     -0.827720
      16A     -0.791592    17A     -0.753692    18A     -0.739540
      19A     -0.710594    20A     -0.703685    21A     -0.678419
      22A     -0.654979    23A     -0.637624    24A     -0.629186

  @DF-RHF Final Energy:  -250.65639242233294

   => Energetics <=

    Nuclear Repulsion Energy =            265.8020411795747009
    One-Electron Energy =                -855.0105346272484894
    Two-Electron Energy =                 338.5521010253409031
    Total Energy =                       -250.6563924223329423
  Basis Set: (AUG-CC-PVTZ AUX)
    Blend: AUG-CC-PVTZ-RI
    Molecular point group: c1

    Geometry (in Angstrom), charge = 1, multiplicity = 1:

       Center              X                  Y                   Z               Mass
    ------------   -----------------  -----------------  -----------------  -----------------
         N           -1.453400716977    -0.725043636543     0.020287536181    14.003074004430
         C            0.794002283023     0.025785363457    -0.371638463819    12.000000000000
         C            0.000621283023    -1.176852636543     0.124495536181    12.000000000000
         C           -0.013903716977     1.195715363457     0.196298536181    12.000000000000
         C           -1.462882716977     0.808252363457    -0.067314463819    12.000000000000
         C            2.253740283023    -0.011426636543     0.062720536181    12.000000000000
         H            0.741425283023     0.055472363457    -1.468224463819     1.007825032230
         H            0.129515283023    -2.097116636543    -0.447956463819     1.007825032230
         H            0.201108283023    -1.373515636543     1.180605536181     1.007825032230
         H            0.230131283023     2.149995363457    -0.276981463819     1.007825032230
         H            0.173371283023     1.295131363457     1.271278536181     1.007825032230
         H           -2.000509716977    -1.055425636543     0.823999536181     1.007825032230
         H           -1.899379716977    -1.132040636543    -0.810037463819     1.007825032230
         H           -2.188662716977     1.193634363457     0.649591536181     1.007825032230
         H           -1.783624716977     1.066432363457    -1.077537463819     1.007825032230
         H            2.765312283023    -0.889040636543    -0.340829463819     1.007825032230
         H            2.777614283023     0.875953363457    -0.299398463819     1.007825032230
         H            2.335254483023    -0.034754336543     1.173702536181     1.007825032230

  Basis Set: AUG-CC-PVTZ
    Blend: AUG-CC-PVTZ
  Basis Set: (AUG-CC-PVTZ AUX)
    Blend: AUG-CC-PVTZ-JKFIT
	 Reference Energy          =    -250.6563924223329423 [Eh]
	 Singles Energy            =      -0.0000000000000000 [Eh]
	 Same-Spin Energy          =      -0.2610978829662411 [Eh]
	 Opposite-Spin Energy      =      -0.9375339663500158 [Eh]
	 Correlation Energy        =      -1.1986318493162569 [Eh]
	 Total Energy              =    -251.8550242716491994 [Eh]

	 ================> DF-SCS-MP2 Energies <==================
	-----------------------------------------------------------
	 SCS Same-Spin Scale       =       0.3333333333333333 [-]
	 SCS Opposite-Spin Scale   =       1.2000000000000000 [-]
	 SCS Same-Spin Energy      =      -0.0870326276554137 [Eh]
	 SCS Opposite-Spin Energy  =      -1.1250407596200189 [Eh]
	 SCS Correlation Energy    =      -1.2120733872754326 [Eh]
	 SCS Total Energy          =    -251.8684658096083808 [Eh]
	-----------------------------------------------------------

  Dipole Moment: [D]
     X:    -4.2214      Y:    -1.8668      Z:    -0.0245     Total:     4.6159

*** Psi4 exiting successfully. Buy a developer a beer!
