                               Psi4 1.4a3.dev225

  ==> Input File <==

--------------------------------------------------------------------------
#psi4
#
memory 32 gb

molecule  {
1 1
  N       -1.4684160    -0.7256290     0.0168660
  C        0.7789870     0.0252000    -0.3750600
  C       -0.0143940    -1.1774380     0.1210740
  C       -0.0289190     1.1951300     0.1928770
  C       -1.4778980     0.8076670    -0.0707360
  C        2.2387250    -0.0120120     0.0592990
  H        0.7264100     0.0548870    -1.4716460
  H        0.1145000    -2.0977020    -0.4513780
  H        0.1860930    -1.3741010     1.1771840
  H        0.2151160     2.1494100    -0.2804030
  H        0.1583560     1.2945460     1.2678570
  H       -2.0155250    -1.0560110     0.8205780
  H       -1.9143950    -1.1326260    -0.8134590
  H       -2.2036780     1.1930490     0.6461700
  H       -1.7986400     1.0658470    -1.0809590
  H        2.7502970    -0.8896260    -0.3442510
  H        2.7625990     0.8753680    -0.3028200
  H        2.3114601    -0.0328273     1.0506289
units angstrom
no_reorient  #important for SAPT in psi4, default
symmetry c1  #important for SAPT in psi4, default
}

set PROPERTIES_ORIGIN ["COM"]
properties('MP2/aug-cc-pvtz', properties = ['dipole'])
--------------------------------------------------------------------------

    Molecular point group: c1
  Charge       = 1
  Multiplicity = 1
  Basis Set: AUG-CC-PVTZ
    Blend: AUG-CC-PVTZ
  Basis Set: (AUG-CC-PVTZ AUX)
    Blend: AUG-CC-PVTZ-JKFIT

    Orbital Energies [Eh]
    ---------------------

    Doubly Occupied:

       1A    -15.865596     2A    -11.463802     3A    -11.460063
       4A    -11.402205     5A    -11.396714     6A    -11.347395
       7A     -1.492678     8A     -1.265797     9A     -1.194495
      10A     -1.106062    11A     -1.024766    12A     -0.976781
      13A     -0.936840    14A     -0.893798    15A     -0.827890
      16A     -0.791949    17A     -0.754023    18A     -0.740817
      19A     -0.720181    20A     -0.703448    21A     -0.685049
      22A     -0.654049    23A     -0.642551    24A     -0.629597

  @DF-RHF Final Energy:  -250.65079481491932

   => Energetics <=

    Nuclear Repulsion Energy =            266.3145176938991199
    One-Electron Energy =                -855.9775293797836184
    Two-Electron Energy =                 339.0122168709651760
    Total Energy =                       -250.6507948149193226
  Basis Set: (AUG-CC-PVTZ AUX)
    Blend: AUG-CC-PVTZ-RI
    Molecular point group: c1

    Geometry (in Angstrom), charge = 1, multiplicity = 1:

       Center              X                  Y                   Z               Mass
    ------------   -----------------  -----------------  -----------------  -----------------
         N           -1.453297951499    -0.725073045935     0.021688147322    14.003074004430
         C            0.794105048501     0.025755954065    -0.370237852678    12.000000000000
         C            0.000724048501    -1.176882045935     0.125896147322    12.000000000000
         C           -0.013800951499     1.195685954065     0.197699147322    12.000000000000
         C           -1.462779951499     0.808222954065    -0.065913852678    12.000000000000
         C            2.253843048501    -0.011456045935     0.064121147322    12.000000000000
         H            0.741528048501     0.055442954065    -1.466823852678     1.007825032230
         H            0.129618048501    -2.097146045935    -0.446555852678     1.007825032230
         H            0.201211048501    -1.373545045935     1.182006147322     1.007825032230
         H            0.230234048501     2.149965954065    -0.275580852678     1.007825032230
         H            0.173474048501     1.295101954065     1.272679147322     1.007825032230
         H           -2.000406951499    -1.055455045935     0.825400147322     1.007825032230
         H           -1.899276951499    -1.132070045935    -0.808636852678     1.007825032230
         H           -2.188559951499     1.193604954065     0.650992147322     1.007825032230
         H           -1.783521951499     1.066402954065    -1.076136852678     1.007825032230
         H            2.765415048501    -0.889070045935    -0.339428852678     1.007825032230
         H            2.777717048501     0.875923954065    -0.297997852678     1.007825032230
         H            2.326578148501    -0.032271345935     1.055451047322     1.007825032230

  Basis Set: AUG-CC-PVTZ
    Blend: AUG-CC-PVTZ
  Basis Set: (AUG-CC-PVTZ AUX)
    Blend: AUG-CC-PVTZ-JKFIT
	 Reference Energy          =    -250.6507948149193226 [Eh]
	 Singles Energy            =      -0.0000000000000000 [Eh]
	 Same-Spin Energy          =      -0.2611110089165279 [Eh]
	 Opposite-Spin Energy      =      -0.9369301428910568 [Eh]
	 Correlation Energy        =      -1.1980411518075846 [Eh]
	 Total Energy              =    -251.8488359667269094 [Eh]

	 ================> DF-SCS-MP2 Energies <==================
	-----------------------------------------------------------
	 SCS Same-Spin Scale       =       0.3333333333333333 [-]
	 SCS Opposite-Spin Scale   =       1.2000000000000000 [-]
	 SCS Same-Spin Energy      =      -0.0870370029721760 [Eh]
	 SCS Opposite-Spin Energy  =      -1.1243161714692682 [Eh]
	 SCS Correlation Energy    =      -1.2113531744414441 [Eh]
	 SCS Total Energy          =    -251.8621479893607784 [Eh]
	-----------------------------------------------------------

  Dipole Moment: [D]
     X:    -4.2187      Y:    -1.8700      Z:     0.0206     Total:     4.6146

*** Psi4 exiting successfully. Buy a developer a beer!
