                               Psi4 1.4a3.dev225

  ==> Input File <==

--------------------------------------------------------------------------
#psi4
#
memory 32 gb

molecule  {
1 1
  N       -1.4783937    -0.7679713    -0.0138799
  C        0.7789870     0.0252000    -0.3750600
  C       -0.0143940    -1.1774380     0.1210740
  C       -0.0289190     1.1951300     0.1928770
  C       -1.4778980     0.8076670    -0.0707360
  C        2.2387250    -0.0120120     0.0592990
  H        0.7264100     0.0548870    -1.4716460
  H        0.1145000    -2.0977020    -0.4513780
  H        0.1860930    -1.3741010     1.1771840
  H        0.2151160     2.1494100    -0.2804030
  H        0.1583560     1.2945460     1.2678570
  H       -2.0155250    -1.0560110     0.8205780
  H       -1.9143950    -1.1326260    -0.8134590
  H       -2.2036780     1.1930490     0.6461700
  H       -1.7986400     1.0658470    -1.0809590
  H        2.7502970    -0.8896260    -0.3442510
  H        2.7625990     0.8753680    -0.3028200
  H        2.3187760    -0.0349210     1.1503390
units angstrom
no_reorient  #important for SAPT in psi4, default
symmetry c1  #important for SAPT in psi4, default
}

set PROPERTIES_ORIGIN ["COM"]
properties('MP2/aug-cc-pvtz', properties = ['dipole'])
--------------------------------------------------------------------------

    Molecular point group: c1
  Charge       = 1
  Multiplicity = 1
  Basis Set: AUG-CC-PVTZ
    Blend: AUG-CC-PVTZ
  Basis Set: (AUG-CC-PVTZ AUX)
    Blend: AUG-CC-PVTZ-JKFIT

    Orbital Energies [Eh]
    ---------------------

    Doubly Occupied:

       1A    -15.861215     2A    -11.467792     3A    -11.459829
       4A    -11.403540     5A    -11.397932     6A    -11.359900
       7A     -1.489446     8A     -1.267119     9A     -1.191487
      10A     -1.100067    11A     -1.024473    12A     -0.978597
      13A     -0.938523    14A     -0.885468    15A     -0.831722
      16A     -0.792471    17A     -0.747557    18A     -0.738673
      19A     -0.713359    20A     -0.706179    21A     -0.680618
      22A     -0.654925    23A     -0.638927    24A     -0.629956

  @DF-RHF Final Energy:  -250.65468317129734

   => Energetics <=

    Nuclear Repulsion Energy =            265.3097072348911638
    One-Electron Energy =                -854.0092272502558899
    Two-Electron Energy =                 338.0448368440673335
    Total Energy =                       -250.6546831712973358
  Basis Set: (AUG-CC-PVTZ AUX)
    Blend: AUG-CC-PVTZ-RI
    Molecular point group: c1

    Geometry (in Angstrom), charge = 1, multiplicity = 1:

       Center              X                  Y                   Z               Mass
    ------------   -----------------  -----------------  -----------------  -----------------
         N           -1.461738485701    -0.760504157151    -0.005224322054    14.003074004430
         C            0.795642214299     0.032667142849    -0.366404422054    12.000000000000
         C            0.002261214299    -1.169970857151     0.129729577946    12.000000000000
         C           -0.012263785701     1.202597142849     0.201532577946    12.000000000000
         C           -1.461242785701     0.815134142849    -0.062080422054    12.000000000000
         C            2.255380214299    -0.004544857151     0.067954577946    12.000000000000
         H            0.743065214299     0.062354142849    -1.462990422054     1.007825032230
         H            0.131155214299    -2.090234857151    -0.442722422054     1.007825032230
         H            0.202748214299    -1.366633857151     1.185839577946     1.007825032230
         H            0.231771214299     2.156877142849    -0.271747422054     1.007825032230
         H            0.175011214299     1.302013142849     1.276512577946     1.007825032230
         H           -1.998869785701    -1.048543857151     0.829233577946     1.007825032230
         H           -1.897739785701    -1.125158857151    -0.804803422054     1.007825032230
         H           -2.187022785701     1.200516142849     0.654825577946     1.007825032230
         H           -1.781984785701     1.073314142849    -1.072303422054     1.007825032230
         H            2.766952214299    -0.882158857151    -0.335595422054     1.007825032230
         H            2.779254214299     0.882835142849    -0.294164422054     1.007825032230
         H            2.335431214299    -0.027453857151     1.158994577946     1.007825032230

  Basis Set: AUG-CC-PVTZ
    Blend: AUG-CC-PVTZ
  Basis Set: (AUG-CC-PVTZ AUX)
    Blend: AUG-CC-PVTZ-JKFIT
	 Reference Energy          =    -250.6546831712973358 [Eh]
	 Singles Energy            =      -0.0000000000000000 [Eh]
	 Same-Spin Energy          =      -0.2607518358433673 [Eh]
	 Opposite-Spin Energy      =      -0.9370314095228862 [Eh]
	 Correlation Energy        =      -1.1977832453662534 [Eh]
	 Total Energy              =    -251.8524664166635887 [Eh]

	 ================> DF-SCS-MP2 Energies <==================
	-----------------------------------------------------------
	 SCS Same-Spin Scale       =       0.3333333333333333 [-]
	 SCS Opposite-Spin Scale   =       1.2000000000000000 [-]
	 SCS Same-Spin Energy      =      -0.0869172786144558 [Eh]
	 SCS Opposite-Spin Energy  =      -1.1244376914274634 [Eh]
	 SCS Correlation Energy    =      -1.2113549700419191 [Eh]
	 SCS Total Energy          =    -251.8660381413392599 [Eh]
	-----------------------------------------------------------

  Dipole Moment: [D]
     X:    -4.1817      Y:    -1.7642      Z:     0.0206     Total:     4.5387

*** Psi4 exiting successfully. Buy a developer a beer!
