                               Psi4 1.4a3.dev225

  ==> Input File <==

--------------------------------------------------------------------------
#psi4
#
memory 32 gb

molecule  {
1 1
  N       -1.4684160    -0.7256290     0.0168660
  C        0.7111841     0.0006618    -0.5173285
  C       -0.0143940    -1.1774380     0.1210740
  C       -0.0289190     1.1951300     0.1928770
  C       -1.4778980     0.8076670    -0.0707360
  C        2.2387250    -0.0120120     0.0592990
  H        0.7264100     0.0548870    -1.4716460
  H        0.1145000    -2.0977020    -0.4513780
  H        0.1860930    -1.3741010     1.1771840
  H        0.2151160     2.1494100    -0.2804030
  H        0.1583560     1.2945460     1.2678570
  H       -2.0155250    -1.0560110     0.8205780
  H       -1.9143950    -1.1326260    -0.8134590
  H       -2.2036780     1.1930490     0.6461700
  H       -1.7986400     1.0658470    -1.0809590
  H        2.7502970    -0.8896260    -0.3442510
  H        2.7625990     0.8753680    -0.3028200
  H        2.3187760    -0.0349210     1.1503390
units angstrom
no_reorient  #important for SAPT in psi4, default
symmetry c1  #important for SAPT in psi4, default
}

set PROPERTIES_ORIGIN ["COM"]
properties('MP2/aug-cc-pvtz', properties = ['dipole'])
--------------------------------------------------------------------------

    Molecular point group: c1
  Charge       = 1
  Multiplicity = 1
  Basis Set: AUG-CC-PVTZ
    Blend: AUG-CC-PVTZ
  Basis Set: (AUG-CC-PVTZ AUX)
    Blend: AUG-CC-PVTZ-JKFIT

    Orbital Energies [Eh]
    ---------------------

    Doubly Occupied:

       1A    -15.862585     2A    -11.461855     3A    -11.460839
       4A    -11.398951     5A    -11.398418     6A    -11.364138
       7A     -1.491730     8A     -1.256676     9A     -1.191676
      10A     -1.085848    11A     -1.017451    12A     -0.992998
      13A     -0.939853    14A     -0.896755    15A     -0.826886
      16A     -0.793976    17A     -0.750605    18A     -0.736890
      19A     -0.713800    20A     -0.698900    21A     -0.678635
      22A     -0.673083    23A     -0.631983    24A     -0.607165

  @DF-RHF Final Energy:  -250.62625452121134

   => Energetics <=

    Nuclear Repulsion Energy =            265.1956475959236172
    One-Electron Energy =                -853.7804163590521966
    Two-Electron Energy =                 337.9585142419172143
    Total Energy =                       -250.6262545212113082
  Basis Set: (AUG-CC-PVTZ AUX)
    Blend: AUG-CC-PVTZ-RI
    Molecular point group: c1

    Geometry (in Angstrom), charge = 1, multiplicity = 1:

       Center              X                  Y                   Z               Mass
    ------------   -----------------  -----------------  -----------------  -----------------
         N           -1.443933375583    -0.721628459346     0.040350030351    14.003074004430
         C            0.735666724417     0.004662340654    -0.493844469649    12.000000000000
         C            0.010088624417    -1.173437459346     0.144558030351    12.000000000000
         C           -0.004436375583     1.199130540654     0.216361030351    12.000000000000
         C           -1.453415375583     0.811667540654    -0.047251969649    12.000000000000
         C            2.263207624417    -0.008011459346     0.082783030351    12.000000000000
         H            0.750892624417     0.058887540654    -1.448161969649     1.007825032230
         H            0.138982624417    -2.093701459346    -0.427893969649     1.007825032230
         H            0.210575624417    -1.370100459346     1.200668030351     1.007825032230
         H            0.239598624417     2.153410540654    -0.256918969649     1.007825032230
         H            0.182838624417     1.298546540654     1.291341030351     1.007825032230
         H           -1.991042375583    -1.052010459346     0.844062030351     1.007825032230
         H           -1.889912375583    -1.128625459346    -0.789974969649     1.007825032230
         H           -2.179195375583     1.197049540654     0.669654030351     1.007825032230
         H           -1.774157375583     1.069847540654    -1.057474969649     1.007825032230
         H            2.774779624417    -0.885625459346    -0.320766969649     1.007825032230
         H            2.787081624417     0.879368540654    -0.279335969649     1.007825032230
         H            2.343258624417    -0.030920459346     1.173823030351     1.007825032230

  Basis Set: AUG-CC-PVTZ
    Blend: AUG-CC-PVTZ
  Basis Set: (AUG-CC-PVTZ AUX)
    Blend: AUG-CC-PVTZ-JKFIT
	 Reference Energy          =    -250.6262545212113366 [Eh]
	 Singles Energy            =      -0.0000000000000000 [Eh]
	 Same-Spin Energy          =      -0.2611586568765050 [Eh]
	 Opposite-Spin Energy      =      -0.9385632528439024 [Eh]
	 Correlation Energy        =      -1.1997219097204073 [Eh]
	 Total Energy              =    -251.8259764309317461 [Eh]

	 ================> DF-SCS-MP2 Energies <==================
	-----------------------------------------------------------
	 SCS Same-Spin Scale       =       0.3333333333333333 [-]
	 SCS Opposite-Spin Scale   =       1.2000000000000000 [-]
	 SCS Same-Spin Energy      =      -0.0870528856255016 [Eh]
	 SCS Opposite-Spin Energy  =      -1.1262759034126828 [Eh]
	 SCS Correlation Energy    =      -1.2133287890381845 [Eh]
	 SCS Total Energy          =    -251.8395833102495089 [Eh]
	-----------------------------------------------------------

  Dipole Moment: [D]
     X:    -4.1268      Y:    -1.8604      Z:     0.0667     Total:     4.5272

*** Psi4 exiting successfully. Buy a developer a beer!
