                               Psi4 1.4a3.dev225

  ==> Input File <==

--------------------------------------------------------------------------
#psi4
#
memory 32 gb

molecule  {
1 1
  N       -1.4684160    -0.7256290     0.0168660
  C        0.7789870     0.0252000    -0.3750600
  C       -0.0143940    -1.1774380     0.1210740
  C       -0.0289190     1.1951300     0.1928770
  C       -1.5700109     0.8061969     0.0610067
  C        2.2387250    -0.0120120     0.0592990
  H        0.7264100     0.0548870    -1.4716460
  H        0.1145000    -2.0977020    -0.4513780
  H        0.1860930    -1.3741010     1.1771840
  H        0.2151160     2.1494100    -0.2804030
  H        0.1583560     1.2945460     1.2678570
  H       -2.0155250    -1.0560110     0.8205780
  H       -1.9143950    -1.1326260    -0.8134590
  H       -2.2036780     1.1930490     0.6461700
  H       -1.7986400     1.0658470    -1.0809590
  H        2.7502970    -0.8896260    -0.3442510
  H        2.7625990     0.8753680    -0.3028200
  H        2.3187760    -0.0349210     1.1503390
units angstrom
no_reorient  #important for SAPT in psi4, default
symmetry c1  #important for SAPT in psi4, default
}

set PROPERTIES_ORIGIN ["COM"]
properties('MP2/aug-cc-pvtz', properties = ['dipole'])
--------------------------------------------------------------------------

    Molecular point group: c1
  Charge       = 1
  Multiplicity = 1
  Basis Set: AUG-CC-PVTZ
    Blend: AUG-CC-PVTZ
  Basis Set: (AUG-CC-PVTZ AUX)
    Blend: AUG-CC-PVTZ-JKFIT

    Orbital Energies [Eh]
    ---------------------

    Doubly Occupied:

       1A    -15.868113     2A    -11.464000     3A    -11.461795
       4A    -11.404102     5A    -11.401525     6A    -11.360719
       7A     -1.492400     8A     -1.260450     9A     -1.192538
      10A     -1.098904    11A     -1.034524    12A     -0.971648
      13A     -0.936099    14A     -0.902780    15A     -0.823954
      16A     -0.799458    17A     -0.764378    18A     -0.733028
      19A     -0.710743    20A     -0.695465    21A     -0.675527
      22A     -0.647479    23A     -0.633471    24A     -0.631031

  @DF-RHF Final Energy:  -250.62249693610991

   => Energetics <=

    Nuclear Repulsion Energy =            264.7859652307200236
    One-Electron Energy =                -852.8886612282715305
    Two-Electron Energy =                 337.4801990614416241
    Total Energy =                       -250.6224969361099397
  Basis Set: (AUG-CC-PVTZ AUX)
    Blend: AUG-CC-PVTZ-RI
    Molecular point group: c1

    Geometry (in Angstrom), charge = 1, multiplicity = 1:

       Center              X                  Y                   Z               Mass
    ------------   -----------------  -----------------  -----------------  -----------------
         N           -1.440545103207    -0.724843638532     0.002158974007    14.003074004430
         C            0.806857896793     0.025985361468    -0.389767025993    12.000000000000
         C            0.013476896793    -1.176652638532     0.106366974007    12.000000000000
         C           -0.001048103207     1.195915361468     0.178169974007    12.000000000000
         C           -1.542140003207     0.806982261468     0.046299674007    12.000000000000
         C            2.266595896793    -0.011226638532     0.044591974007    12.000000000000
         H            0.754280896793     0.055672361468    -1.486353025993     1.007825032230
         H            0.142370896793    -2.096916638532    -0.466085025993     1.007825032230
         H            0.213963896793    -1.373315638532     1.162476974007     1.007825032230
         H            0.242986896793     2.150195361468    -0.295110025993     1.007825032230
         H            0.186226896793     1.295331361468     1.253149974007     1.007825032230
         H           -1.987654103207    -1.055225638532     0.805870974007     1.007825032230
         H           -1.886524103207    -1.131840638532    -0.828166025993     1.007825032230
         H           -2.175807103207     1.193834361468     0.631462974007     1.007825032230
         H           -1.770769103207     1.066632361468    -1.095666025993     1.007825032230
         H            2.778167896793    -0.888840638532    -0.358958025993     1.007825032230
         H            2.790469896793     0.876153361468    -0.317527025993     1.007825032230
         H            2.346646896793    -0.034135638532     1.135631974007     1.007825032230

  Basis Set: AUG-CC-PVTZ
    Blend: AUG-CC-PVTZ
  Basis Set: (AUG-CC-PVTZ AUX)
    Blend: AUG-CC-PVTZ-JKFIT
	 Reference Energy          =    -250.6224969361099113 [Eh]
	 Singles Energy            =      -0.0000000000000000 [Eh]
	 Same-Spin Energy          =      -0.2611071385101350 [Eh]
	 Opposite-Spin Energy      =      -0.9386953250399599 [Eh]
	 Correlation Energy        =      -1.1998024635500948 [Eh]
	 Total Energy              =    -251.8222993996600110 [Eh]

	 ================> DF-SCS-MP2 Energies <==================
	-----------------------------------------------------------
	 SCS Same-Spin Scale       =       0.3333333333333333 [-]
	 SCS Opposite-Spin Scale   =       1.2000000000000000 [-]
	 SCS Same-Spin Energy      =      -0.0870357128367117 [Eh]
	 SCS Opposite-Spin Energy  =      -1.1264343900479519 [Eh]
	 SCS Correlation Energy    =      -1.2134701028846635 [Eh]
	 SCS Total Energy          =    -251.8359670389945677 [Eh]
	-----------------------------------------------------------

  Dipole Moment: [D]
     X:    -4.1517      Y:    -1.9384      Z:    -0.0022     Total:     4.5819

*** Psi4 exiting successfully. Buy a developer a beer!
