                               Psi4 1.4a3.dev225

  ==> Input File <==

--------------------------------------------------------------------------
#psi4
#
memory 32 gb

molecule  {
1 1
  N       -1.4684160    -0.7256290     0.0168660
  C        0.7789870     0.0252000    -0.3750600
  C       -0.0143940    -1.1774380     0.1210740
  C       -0.0289190     1.1951300     0.1928770
  C       -1.4778980     0.8076670    -0.0707360
  C        2.2387250    -0.0120120     0.0592990
  H        0.7240163     0.0562386    -1.5215704
  H        0.1145000    -2.0977020    -0.4513780
  H        0.1860930    -1.3741010     1.1771840
  H        0.2151160     2.1494100    -0.2804030
  H        0.1583560     1.2945460     1.2678570
  H       -2.0155250    -1.0560110     0.8205780
  H       -1.9143950    -1.1326260    -0.8134590
  H       -2.2036780     1.1930490     0.6461700
  H       -1.7986400     1.0658470    -1.0809590
  H        2.7502970    -0.8896260    -0.3442510
  H        2.7625990     0.8753680    -0.3028200
  H        2.3187760    -0.0349210     1.1503390
units angstrom
no_reorient  #important for SAPT in psi4, default
symmetry c1  #important for SAPT in psi4, default
}

set PROPERTIES_ORIGIN ["COM"]
properties('MP2/aug-cc-pvtz', properties = ['dipole'])
--------------------------------------------------------------------------

    Molecular point group: c1
  Charge       = 1
  Multiplicity = 1
  Basis Set: AUG-CC-PVTZ
    Blend: AUG-CC-PVTZ
  Basis Set: (AUG-CC-PVTZ AUX)
    Blend: AUG-CC-PVTZ-JKFIT

    Orbital Energies [Eh]
    ---------------------

    Doubly Occupied:

       1A    -15.865661     2A    -11.463835     3A    -11.460475
       4A    -11.408895     5A    -11.397159     6A    -11.360079
       7A     -1.492705     8A     -1.263789     9A     -1.193954
      10A     -1.099136    11A     -1.023968    12A     -0.972392
      13A     -0.933135    14A     -0.891244    15A     -0.825461
      16A     -0.791240    17A     -0.753812    18A     -0.739749
      19A     -0.711386    20A     -0.703728    21A     -0.679826
      22A     -0.655322    23A     -0.635116    24A     -0.627728

  @DF-RHF Final Energy:  -250.65479712427162

   => Energetics <=

    Nuclear Repulsion Energy =            265.6397514370064528
    One-Electron Energy =                -854.6895090933520578
    Two-Electron Energy =                 338.3949605320739806
    Total Energy =                       -250.6547971242716244
  Basis Set: (AUG-CC-PVTZ AUX)
    Blend: AUG-CC-PVTZ-RI
    Molecular point group: c1

    Geometry (in Angstrom), charge = 1, multiplicity = 1:

       Center              X                  Y                   Z               Mass
    ------------   -----------------  -----------------  -----------------  -----------------
         N           -1.453355569277    -0.725064359137     0.021105371039    14.003074004430
         C            0.794047430723     0.025764640863    -0.370820628961    12.000000000000
         C            0.000666430723    -1.176873359137     0.125313371039    12.000000000000
         C           -0.013858569277     1.195694640863     0.197116371039    12.000000000000
         C           -1.462837569277     0.808231640863    -0.066496628961    12.000000000000
         C            2.253785430723    -0.011447359137     0.063538371039    12.000000000000
         H            0.739076730723     0.056803240863    -1.517331028961     1.007825032230
         H            0.129560430723    -2.097137359137    -0.447138628961     1.007825032230
         H            0.201153430723    -1.373536359137     1.181423371039     1.007825032230
         H            0.230176430723     2.149974640863    -0.276163628961     1.007825032230
         H            0.173416430723     1.295110640863     1.272096371039     1.007825032230
         H           -2.000464569277    -1.055446359137     0.824817371039     1.007825032230
         H           -1.899334569277    -1.132061359137    -0.809219628961     1.007825032230
         H           -2.188617569277     1.193613640863     0.650409371039     1.007825032230
         H           -1.783579569277     1.066411640863    -1.076719628961     1.007825032230
         H            2.765357430723    -0.889061359137    -0.340011628961     1.007825032230
         H            2.777659430723     0.875932640863    -0.298580628961     1.007825032230
         H            2.333836430723    -0.034356359137     1.154578371039     1.007825032230

  Basis Set: AUG-CC-PVTZ
    Blend: AUG-CC-PVTZ
  Basis Set: (AUG-CC-PVTZ AUX)
    Blend: AUG-CC-PVTZ-JKFIT
	 Reference Energy          =    -250.6547971242716244 [Eh]
	 Singles Energy            =      -0.0000000000000000 [Eh]
	 Same-Spin Energy          =      -0.2611374110429270 [Eh]
	 Opposite-Spin Energy      =      -0.9377827639223628 [Eh]
	 Correlation Energy        =      -1.1989201749652898 [Eh]
	 Total Energy              =    -251.8537172992369051 [Eh]

	 ================> DF-SCS-MP2 Energies <==================
	-----------------------------------------------------------
	 SCS Same-Spin Scale       =       0.3333333333333333 [-]
	 SCS Opposite-Spin Scale   =       1.2000000000000000 [-]
	 SCS Same-Spin Energy      =      -0.0870458036809757 [Eh]
	 SCS Opposite-Spin Energy  =      -1.1253393167068353 [Eh]
	 SCS Correlation Energy    =      -1.2123851203878109 [Eh]
	 SCS Total Energy          =    -251.8671822446594319 [Eh]
	-----------------------------------------------------------

  Dipole Moment: [D]
     X:    -4.2113      Y:    -1.8661      Z:     0.0074     Total:     4.6062

*** Psi4 exiting successfully. Buy a developer a beer!
