                               Psi4 1.4a3.dev225

  ==> Input File <==

--------------------------------------------------------------------------
#psi4
#
memory 32 gb

molecule  {
1 1
  N       -1.4684160    -0.7256290     0.0168660
  C        0.7789870     0.0252000    -0.3750600
  C       -0.0143940    -1.1774380     0.1210740
  C       -0.0289190     1.1951300     0.1928770
  C       -1.4778980     0.8076670    -0.0707360
  C        2.2387250    -0.0120120     0.0592990
  H        0.7264100     0.0548870    -1.4716460
  H        0.1145000    -2.0977020    -0.4513780
  H        0.1860930    -1.3741010     1.1771840
  H        0.2151160     2.1494100    -0.2804030
  H        0.1583560     1.2945460     1.2678570
  H       -2.0155250    -1.0560110     0.8205780
  H       -1.9143950    -1.1326260    -0.8134590
  H       -2.0705706     1.1223703     0.5146901
  H       -1.7986400     1.0658470    -1.0809590
  H        2.7502970    -0.8896260    -0.3442510
  H        2.7625990     0.8753680    -0.3028200
  H        2.3187760    -0.0349210     1.1503390
units angstrom
no_reorient  #important for SAPT in psi4, default
symmetry c1  #important for SAPT in psi4, default
}

set PROPERTIES_ORIGIN ["COM"]
properties('MP2/aug-cc-pvtz', properties = ['dipole'])
--------------------------------------------------------------------------

    Molecular point group: c1
  Charge       = 1
  Multiplicity = 1
  Basis Set: AUG-CC-PVTZ
    Blend: AUG-CC-PVTZ
  Basis Set: (AUG-CC-PVTZ AUX)
    Blend: AUG-CC-PVTZ-JKFIT

    Orbital Energies [Eh]
    ---------------------

    Doubly Occupied:

       1A    -15.865348     2A    -11.459927     3A    -11.442132
       4A    -11.402689     5A    -11.396214     6A    -11.359235
       7A     -1.493949     8A     -1.265263     9A     -1.210141
      10A     -1.098761    11A     -1.042109    12A     -0.976716
      13A     -0.935389    14A     -0.903044    15A     -0.828163
      16A     -0.807575    17A     -0.764353    18A     -0.741235
      19A     -0.711993    20A     -0.703298    21A     -0.684070
      22A     -0.654890    23A     -0.638353    24A     -0.630897

  @DF-RHF Final Energy:  -250.62273044938917

   => Energetics <=

    Nuclear Repulsion Energy =            266.9838225553944540
    One-Electron Energy =                -857.1816224796566530
    Two-Electron Energy =                 339.5750694748730325
    Total Energy =                       -250.6227304493891666
  Basis Set: (AUG-CC-PVTZ AUX)
    Blend: AUG-CC-PVTZ-RI
    Molecular point group: c1

    Geometry (in Angstrom), charge = 1, multiplicity = 1:

       Center              X                  Y                   Z               Mass
    ------------   -----------------  -----------------  -----------------  -----------------
         N           -1.454941703999    -0.724221194323     0.022060034951    14.003074004430
         C            0.792461296001     0.026607805677    -0.369865965049    12.000000000000
         C           -0.000919703999    -1.176030194323     0.126268034951    12.000000000000
         C           -0.015444703999     1.196537805677     0.198071034951    12.000000000000
         C           -1.464423703999     0.809074805677    -0.065541965049    12.000000000000
         C            2.252199296001    -0.010604194323     0.064493034951    12.000000000000
         H            0.739884296001     0.056294805677    -1.466451965049     1.007825032230
         H            0.127974296001    -2.096294194323    -0.446183965049     1.007825032230
         H            0.199567296001    -1.372693194323     1.182378034951     1.007825032230
         H            0.228590296001     2.150817805677    -0.275208965049     1.007825032230
         H            0.171830296001     1.295953805677     1.273051034951     1.007825032230
         H           -2.002050703999    -1.054603194323     0.825772034951     1.007825032230
         H           -1.900920703999    -1.131218194323    -0.808264965049     1.007825032230
         H           -2.057096303999     1.123778105677     0.519884134951     1.007825032230
         H           -1.785165703999     1.067254805677    -1.075764965049     1.007825032230
         H            2.763771296001    -0.888218194323    -0.339056965049     1.007825032230
         H            2.776073296001     0.876775805677    -0.297625965049     1.007825032230
         H            2.332250296001    -0.033513194323     1.155533034951     1.007825032230

  Basis Set: AUG-CC-PVTZ
    Blend: AUG-CC-PVTZ
  Basis Set: (AUG-CC-PVTZ AUX)
    Blend: AUG-CC-PVTZ-JKFIT
	 Reference Energy          =    -250.6227304493891666 [Eh]
	 Singles Energy            =      -0.0000000000000000 [Eh]
	 Same-Spin Energy          =      -0.2609749293168243 [Eh]
	 Opposite-Spin Energy      =      -0.9365211532471543 [Eh]
	 Correlation Energy        =      -1.1974960825639787 [Eh]
	 Total Energy              =    -251.8202265319531534 [Eh]

	 ================> DF-SCS-MP2 Energies <==================
	-----------------------------------------------------------
	 SCS Same-Spin Scale       =       0.3333333333333333 [-]
	 SCS Opposite-Spin Scale   =       1.2000000000000000 [-]
	 SCS Same-Spin Energy      =      -0.0869916431056081 [Eh]
	 SCS Opposite-Spin Energy  =      -1.1238253838965853 [Eh]
	 SCS Correlation Energy    =      -1.2108170270021934 [Eh]
	 SCS Total Energy          =    -251.8335474763913737 [Eh]
	-----------------------------------------------------------

  Dipole Moment: [D]
     X:    -4.2306      Y:    -1.8817      Z:    -0.0380     Total:     4.6303

*** Psi4 exiting successfully. Buy a developer a beer!
