                               Psi4 1.4a3.dev225

  ==> Input File <==

--------------------------------------------------------------------------
#psi4
#
memory 32 gb

molecule  {
1 1
  N       -1.4684160    -0.7256290     0.0168660
  C        0.7789870     0.0252000    -0.3750600
  C       -0.0143940    -1.1774380     0.1210740
  C       -0.0289190     1.1951300     0.1928770
  C       -1.4778980     0.8076670    -0.0707360
  C        2.2762105    -0.0086115    -0.0956571
  H        0.7264100     0.0548870    -1.4716460
  H        0.1145000    -2.0977020    -0.4513780
  H        0.1860930    -1.3741010     1.1771840
  H        0.2151160     2.1494100    -0.2804030
  H        0.1583560     1.2945460     1.2678570
  H       -2.0155250    -1.0560110     0.8205780
  H       -1.9143950    -1.1326260    -0.8134590
  H       -2.2036780     1.1930490     0.6461700
  H       -1.7986400     1.0658470    -1.0809590
  H        2.7502970    -0.8896260    -0.3442510
  H        2.7625990     0.8753680    -0.3028200
  H        2.3187760    -0.0349210     1.1503390
units angstrom
no_reorient  #important for SAPT in psi4, default
symmetry c1  #important for SAPT in psi4, default
}

set PROPERTIES_ORIGIN ["COM"]
properties('MP2/aug-cc-pvtz', properties = ['dipole'])
--------------------------------------------------------------------------

    Molecular point group: c1
  Charge       = 1
  Multiplicity = 1
  Basis Set: AUG-CC-PVTZ
    Blend: AUG-CC-PVTZ
  Basis Set: (AUG-CC-PVTZ AUX)
    Blend: AUG-CC-PVTZ-JKFIT

    Orbital Energies [Eh]
    ---------------------

    Doubly Occupied:

       1A    -15.867051     2A    -11.465036     3A    -11.461791
       4A    -11.404754     5A    -11.398350     6A    -11.364617
       7A     -1.493767     8A     -1.264973     9A     -1.194870
      10A     -1.103577    11A     -1.025064    12A     -0.974977
      13A     -0.936297    14A     -0.893671    15A     -0.827559
      16A     -0.792391    17A     -0.759548    18A     -0.752781
      19A     -0.717874    20A     -0.702345    21A     -0.671840
      22A     -0.663905    23A     -0.647382    24A     -0.595790

  @DF-RHF Final Energy:  -250.63368098001590

   => Energetics <=

    Nuclear Repulsion Energy =            265.4734381026316896
    One-Electron Energy =                -854.2538175542266572
    Two-Electron Energy =                 338.1466984715790431
    Total Energy =                       -250.6336809800159244
  Basis Set: (AUG-CC-PVTZ AUX)
    Blend: AUG-CC-PVTZ-RI
    Molecular point group: c1

    Geometry (in Angstrom), charge = 1, multiplicity = 1:

       Center              X                  Y                   Z               Mass
    ------------   -----------------  -----------------  -----------------  -----------------
         N           -1.458608232730    -0.725522491655     0.042118399113    14.003074004430
         C            0.788794767270     0.025306508345    -0.349807600887    12.000000000000
         C           -0.004586232730    -1.177331491655     0.146326399113    12.000000000000
         C           -0.019111232730     1.195236508345     0.218129399113    12.000000000000
         C           -1.468090232730     0.807773508345    -0.045483600887    12.000000000000
         C            2.286018267270    -0.008504991655    -0.070404700887    12.000000000000
         H            0.736217767270     0.054993508345    -1.446393600887     1.007825032230
         H            0.124307767270    -2.097595491655    -0.426125600887     1.007825032230
         H            0.195900767270    -1.373994491655     1.202436399113     1.007825032230
         H            0.224923767270     2.149516508345    -0.255150600887     1.007825032230
         H            0.168163767270     1.294652508345     1.293109399113     1.007825032230
         H           -2.005717232730    -1.055904491655     0.845830399113     1.007825032230
         H           -1.904587232730    -1.132519491655    -0.788206600887     1.007825032230
         H           -2.193870232730     1.193155508345     0.671422399113     1.007825032230
         H           -1.788832232730     1.065953508345    -1.055706600887     1.007825032230
         H            2.760104767270    -0.889519491655    -0.318998600887     1.007825032230
         H            2.772406767270     0.875474508345    -0.277567600887     1.007825032230
         H            2.328583767270    -0.034814491655     1.175591399113     1.007825032230

  Basis Set: AUG-CC-PVTZ
    Blend: AUG-CC-PVTZ
  Basis Set: (AUG-CC-PVTZ AUX)
    Blend: AUG-CC-PVTZ-JKFIT
	 Reference Energy          =    -250.6336809800158960 [Eh]
	 Singles Energy            =      -0.0000000000000000 [Eh]
	 Same-Spin Energy          =      -0.2613676658574102 [Eh]
	 Opposite-Spin Energy      =      -0.9383547472412415 [Eh]
	 Correlation Energy        =      -1.1997224130986517 [Eh]
	 Total Energy              =    -251.8334033931145370 [Eh]

	 ================> DF-SCS-MP2 Energies <==================
	-----------------------------------------------------------
	 SCS Same-Spin Scale       =       0.3333333333333333 [-]
	 SCS Opposite-Spin Scale   =       1.2000000000000000 [-]
	 SCS Same-Spin Energy      =      -0.0871225552858034 [Eh]
	 SCS Opposite-Spin Energy  =      -1.1260256966894897 [Eh]
	 SCS Correlation Energy    =      -1.2131482519752932 [Eh]
	 SCS Total Energy          =    -251.8468292319911939 [Eh]
	-----------------------------------------------------------

  Dipole Moment: [D]
     X:    -4.2840      Y:    -1.8713      Z:     0.0075     Total:     4.6749

*** Psi4 exiting successfully. Buy a developer a beer!
