                               Psi4 1.4a3.dev225

  ==> Input File <==

--------------------------------------------------------------------------
#psi4
#
memory 32 gb

molecule  {
1 1
  N       -1.4684160    -0.7256290     0.0168660
  C        0.7789870     0.0252000    -0.3750600
  C       -0.0143940    -1.1774380     0.1210740
  C       -0.0289190     1.1951300     0.1928770
  C       -1.4810646     0.8299931    -0.0848056
  C        2.2387250    -0.0120120     0.0592990
  H        0.7264100     0.0548870    -1.4716460
  H        0.1145000    -2.0977020    -0.4513780
  H        0.1860930    -1.3741010     1.1771840
  H        0.2151160     2.1494100    -0.2804030
  H        0.1583560     1.2945460     1.2678570
  H       -2.0155250    -1.0560110     0.8205780
  H       -1.9143950    -1.1326260    -0.8134590
  H       -2.2036780     1.1930490     0.6461700
  H       -1.7986400     1.0658470    -1.0809590
  H        2.7502970    -0.8896260    -0.3442510
  H        2.7625990     0.8753680    -0.3028200
  H        2.3187760    -0.0349210     1.1503390
units angstrom
no_reorient  #important for SAPT in psi4, default
symmetry c1  #important for SAPT in psi4, default
}

set PROPERTIES_ORIGIN ["COM"]
properties('MP2/aug-cc-pvtz', properties = ['dipole'])
--------------------------------------------------------------------------

    Molecular point group: c1
  Charge       = 1
  Multiplicity = 1
  Basis Set: AUG-CC-PVTZ
    Blend: AUG-CC-PVTZ
  Basis Set: (AUG-CC-PVTZ AUX)
    Blend: AUG-CC-PVTZ-JKFIT

    Orbital Energies [Eh]
    ---------------------

    Doubly Occupied:

       1A    -15.863273     2A    -11.464958     3A    -11.459147
       4A    -11.403128     5A    -11.397276     6A    -11.359588
       7A     -1.487332     8A     -1.264560     9A     -1.194447
      10A     -1.098116    11A     -1.024954    12A     -0.973313
      13A     -0.933016    14A     -0.889213    15A     -0.827465
      16A     -0.795662    17A     -0.750098    18A     -0.738449
      19A     -0.712181    20A     -0.704099    21A     -0.682417
      22A     -0.654985    23A     -0.638900    24A     -0.629905

  @DF-RHF Final Energy:  -250.65633538311687

   => Energetics <=

    Nuclear Repulsion Energy =            265.5744892854538080
    One-Electron Energy =                -854.5686831669562480
    Two-Electron Energy =                 338.3378584983856285
    Total Energy =                       -250.6563353831168683
  Basis Set: (AUG-CC-PVTZ AUX)
    Blend: AUG-CC-PVTZ-RI
    Molecular point group: c1

    Geometry (in Angstrom), charge = 1, multiplicity = 1:

       Center              X                  Y                   Z               Mass
    ------------   -----------------  -----------------  -----------------  -----------------
         N           -1.452942235714    -0.728160298635     0.022481959947    14.003074004430
         C            0.794460764286     0.022668701365    -0.369444040053    12.000000000000
         C            0.001079764286    -1.179969298635     0.126689959947    12.000000000000
         C           -0.013445235714     1.192598701365     0.198492959947    12.000000000000
         C           -1.465590835714     0.827461801365    -0.079189640053    12.000000000000
         C            2.254198764286    -0.014543298635     0.064914959947    12.000000000000
         H            0.741883764286     0.052355701365    -1.466030040053     1.007825032230
         H            0.129973764286    -2.100233298635    -0.445762040053     1.007825032230
         H            0.201566764286    -1.376632298635     1.182799959947     1.007825032230
         H            0.230589764286     2.146878701365    -0.274787040053     1.007825032230
         H            0.173829764286     1.292014701365     1.273472959947     1.007825032230
         H           -2.000051235714    -1.058542298635     0.826193959947     1.007825032230
         H           -1.898921235714    -1.135157298635    -0.807843040053     1.007825032230
         H           -2.188204235714     1.190517701365     0.651785959947     1.007825032230
         H           -1.783166235714     1.063315701365    -1.075343040053     1.007825032230
         H            2.765770764286    -0.892157298635    -0.338635040053     1.007825032230
         H            2.778072764286     0.872836701365    -0.297204040053     1.007825032230
         H            2.334249764286    -0.037452298635     1.155954959947     1.007825032230

  Basis Set: AUG-CC-PVTZ
    Blend: AUG-CC-PVTZ
  Basis Set: (AUG-CC-PVTZ AUX)
    Blend: AUG-CC-PVTZ-JKFIT
	 Reference Energy          =    -250.6563353831168683 [Eh]
	 Singles Energy            =      -0.0000000000000000 [Eh]
	 Same-Spin Energy          =      -0.2609905972299578 [Eh]
	 Opposite-Spin Energy      =      -0.9374150007687936 [Eh]
	 Correlation Energy        =      -1.1984055979987513 [Eh]
	 Total Energy              =    -251.8547409811156115 [Eh]

	 ================> DF-SCS-MP2 Energies <==================
	-----------------------------------------------------------
	 SCS Same-Spin Scale       =       0.3333333333333333 [-]
	 SCS Opposite-Spin Scale   =       1.2000000000000000 [-]
	 SCS Same-Spin Energy      =      -0.0869968657433192 [Eh]
	 SCS Opposite-Spin Energy  =      -1.1248980009225522 [Eh]
	 SCS Correlation Energy    =      -1.2118948666658715 [Eh]
	 SCS Total Energy          =    -251.8682302497827266 [Eh]
	-----------------------------------------------------------

  Dipole Moment: [D]
     X:    -4.2170      Y:    -1.8259      Z:    -0.0192     Total:     4.5954

*** Psi4 exiting successfully. Buy a developer a beer!
