                               Psi4 1.4a3.dev225

  ==> Input File <==

--------------------------------------------------------------------------
#psi4
#
memory 32 gb

molecule  {
1 1
  N       -1.4684160    -0.7256290     0.0168660
  C        0.7789870     0.0252000    -0.3750600
  C       -0.0143940    -1.1774380     0.1210740
  C       -0.0289190     1.1951300     0.1928770
  C       -1.4778980     0.8076670    -0.0707360
  C        2.2387250    -0.0120120     0.0592990
  H        0.7264100     0.0548870    -1.4716460
  H        0.1145000    -2.0977020    -0.4513780
  H        0.2044390    -1.3920970     1.2738254
  H        0.2151160     2.1494100    -0.2804030
  H        0.1583560     1.2945460     1.2678570
  H       -2.0155250    -1.0560110     0.8205780
  H       -1.9143950    -1.1326260    -0.8134590
  H       -2.2036780     1.1930490     0.6461700
  H       -1.7986400     1.0658470    -1.0809590
  H        2.7502970    -0.8896260    -0.3442510
  H        2.7625990     0.8753680    -0.3028200
  H        2.3187760    -0.0349210     1.1503390
units angstrom
no_reorient  #important for SAPT in psi4, default
symmetry c1  #important for SAPT in psi4, default
}

set PROPERTIES_ORIGIN ["COM"]
properties('MP2/aug-cc-pvtz', properties = ['dipole'])
--------------------------------------------------------------------------

    Molecular point group: c1
  Charge       = 1
  Multiplicity = 1
  Basis Set: AUG-CC-PVTZ
    Blend: AUG-CC-PVTZ
  Basis Set: (AUG-CC-PVTZ AUX)
    Blend: AUG-CC-PVTZ-JKFIT

    Orbital Energies [Eh]
    ---------------------

    Doubly Occupied:

       1A    -15.866157     2A    -11.470353     3A    -11.463950
       4A    -11.403802     5A    -11.396727     6A    -11.359545
       7A     -1.492567     8A     -1.264570     9A     -1.191447
      10A     -1.095836    11A     -1.022539    12A     -0.970794
      13A     -0.935231    14A     -0.892014    15A     -0.825638
      16A     -0.785194    17A     -0.753844    18A     -0.738933
      19A     -0.707450    20A     -0.697205    21A     -0.679026
      22A     -0.655105    23A     -0.637942    24A     -0.629455

  @DF-RHF Final Energy:  -250.64997223696778

   => Energetics <=

    Nuclear Repulsion Energy =            265.4326746869535327
    One-Electron Energy =                -854.2946431902838640
    Two-Electron Energy =                 338.2119962663625756
    Total Energy =                       -250.6499722369677556
  Basis Set: (AUG-CC-PVTZ AUX)
    Blend: AUG-CC-PVTZ-RI
    Molecular point group: c1

    Geometry (in Angstrom), charge = 1, multiplicity = 1:

       Center              X                  Y                   Z               Mass
    ------------   -----------------  -----------------  -----------------  -----------------
         N           -1.453598341906    -0.724837882008     0.019389716300    14.003074004430
         C            0.793804658094     0.025991117992    -0.372536283700    12.000000000000
         C            0.000423658094    -1.176646882008     0.123597716300    12.000000000000
         C           -0.014101341906     1.195921117992     0.195400716300    12.000000000000
         C           -1.463080341906     0.808458117992    -0.068212283700    12.000000000000
         C            2.253542658094    -0.011220882008     0.061822716300    12.000000000000
         H            0.741227658094     0.055678117992    -1.469122283700     1.007825032230
         H            0.129317658094    -2.096910882008    -0.448854283700     1.007825032230
         H            0.219256658094    -1.391305882008     1.276349116300     1.007825032230
         H            0.229933658094     2.150201117992    -0.277879283700     1.007825032230
         H            0.173173658094     1.295337117992     1.270380716300     1.007825032230
         H           -2.000707341906    -1.055219882008     0.823101716300     1.007825032230
         H           -1.899577341906    -1.131834882008    -0.810935283700     1.007825032230
         H           -2.188860341906     1.193840117992     0.648693716300     1.007825032230
         H           -1.783822341906     1.066638117992    -1.078435283700     1.007825032230
         H            2.765114658094    -0.888834882008    -0.341727283700     1.007825032230
         H            2.777416658094     0.876159117992    -0.300296283700     1.007825032230
         H            2.333593658094    -0.034129882008     1.152862716300     1.007825032230

  Basis Set: AUG-CC-PVTZ
    Blend: AUG-CC-PVTZ
  Basis Set: (AUG-CC-PVTZ AUX)
    Blend: AUG-CC-PVTZ-JKFIT
	 Reference Energy          =    -250.6499722369677841 [Eh]
	 Singles Energy            =      -0.0000000000000000 [Eh]
	 Same-Spin Energy          =      -0.2612933690038291 [Eh]
	 Opposite-Spin Energy      =      -0.9383180942976659 [Eh]
	 Correlation Energy        =      -1.1996114633014949 [Eh]
	 Total Energy              =    -251.8495837002692781 [Eh]

	 ================> DF-SCS-MP2 Energies <==================
	-----------------------------------------------------------
	 SCS Same-Spin Scale       =       0.3333333333333333 [-]
	 SCS Opposite-Spin Scale   =       1.2000000000000000 [-]
	 SCS Same-Spin Energy      =      -0.0870977896679430 [Eh]
	 SCS Opposite-Spin Energy  =      -1.1259817131571990 [Eh]
	 SCS Correlation Energy    =      -1.2130795028251420 [Eh]
	 SCS Total Energy          =    -251.8630517397929225 [Eh]
	-----------------------------------------------------------

  Dipole Moment: [D]
     X:    -4.2167      Y:    -1.8604      Z:    -0.0280     Total:     4.6090

*** Psi4 exiting successfully. Buy a developer a beer!
