                               Psi4 1.4a3.dev225

  ==> Input File <==

--------------------------------------------------------------------------
#psi4
#
memory 32 gb

molecule  {
1 1
  N       -1.4684160    -0.7256290     0.0168660
  C        0.7789870     0.0252000    -0.3750600
  C       -0.0143940    -1.1774380     0.1210740
  C       -0.0289190     1.1951300     0.1928770
  C       -1.5277421     0.7982161    -0.1651706
  C        2.2387250    -0.0120120     0.0592990
  H        0.7264100     0.0548870    -1.4716460
  H        0.1145000    -2.0977020    -0.4513780
  H        0.1860930    -1.3741010     1.1771840
  H        0.2151160     2.1494100    -0.2804030
  H        0.1583560     1.2945460     1.2678570
  H       -2.0155250    -1.0560110     0.8205780
  H       -1.9143950    -1.1326260    -0.8134590
  H       -2.2036780     1.1930490     0.6461700
  H       -1.7986400     1.0658470    -1.0809590
  H        2.7502970    -0.8896260    -0.3442510
  H        2.7625990     0.8753680    -0.3028200
  H        2.3187760    -0.0349210     1.1503390
units angstrom
no_reorient  #important for SAPT in psi4, default
symmetry c1  #important for SAPT in psi4, default
}

set PROPERTIES_ORIGIN ["COM"]
properties('MP2/aug-cc-pvtz', properties = ['dipole'])
--------------------------------------------------------------------------

    Molecular point group: c1
  Charge       = 1
  Multiplicity = 1
  Basis Set: AUG-CC-PVTZ
    Blend: AUG-CC-PVTZ
  Basis Set: (AUG-CC-PVTZ AUX)
    Blend: AUG-CC-PVTZ-JKFIT

    Orbital Energies [Eh]
    ---------------------

    Doubly Occupied:

       1A    -15.866471     2A    -11.461799     3A    -11.459886
       4A    -11.402133     5A    -11.400573     6A    -11.359230
       7A     -1.492066     8A     -1.260915     9A     -1.190764
      10A     -1.097839    11A     -1.030872    12A     -0.974107
      13A     -0.933269    14A     -0.892529    15A     -0.830381
      16A     -0.803679    17A     -0.751100    18A     -0.730845
      19A     -0.713123    20A     -0.702031    21A     -0.684732
      22A     -0.649274    23A     -0.638381    24A     -0.624287

  @DF-RHF Final Energy:  -250.64321418922572

   => Energetics <=

    Nuclear Repulsion Energy =            265.1537650505128454
    One-Electron Energy =                -853.6933818325312586
    Two-Electron Energy =                 337.8964025927926400
    Total Energy =                       -250.6432141892257164
  Basis Set: (AUG-CC-PVTZ AUX)
    Blend: AUG-CC-PVTZ-RI
    Molecular point group: c1

    Geometry (in Angstrom), charge = 1, multiplicity = 1:

       Center              X                  Y                   Z               Mass
    ------------   -----------------  -----------------  -----------------  -----------------
         N           -1.446436432183    -0.723731292823     0.033683050424    14.003074004430
         C            0.800966567817     0.027097707177    -0.358242949576    12.000000000000
         C            0.007585567817    -1.175540292823     0.137891050424    12.000000000000
         C           -0.006939432183     1.197027707177     0.209694050424    12.000000000000
         C           -1.505762532183     0.800113807177    -0.148353549576    12.000000000000
         C            2.260704567817    -0.010114292823     0.076116050424    12.000000000000
         H            0.748389567817     0.056784707177    -1.454828949576     1.007825032230
         H            0.136479567817    -2.095804292823    -0.434560949576     1.007825032230
         H            0.208072567817    -1.372203292823     1.194001050424     1.007825032230
         H            0.237095567817     2.151307707177    -0.263585949576     1.007825032230
         H            0.180335567817     1.296443707177     1.284674050424     1.007825032230
         H           -1.993545432183    -1.054113292823     0.837395050424     1.007825032230
         H           -1.892415432183    -1.130728292823    -0.796641949576     1.007825032230
         H           -2.181698432183     1.194946707177     0.662987050424     1.007825032230
         H           -1.776660432183     1.067744707177    -1.064141949576     1.007825032230
         H            2.772276567817    -0.887728292823    -0.327433949576     1.007825032230
         H            2.784578567817     0.877265707177    -0.286002949576     1.007825032230
         H            2.340755567817    -0.033023292823     1.167156050424     1.007825032230

  Basis Set: AUG-CC-PVTZ
    Blend: AUG-CC-PVTZ
  Basis Set: (AUG-CC-PVTZ AUX)
    Blend: AUG-CC-PVTZ-JKFIT
	 Reference Energy          =    -250.6432141892257164 [Eh]
	 Singles Energy            =      -0.0000000000000000 [Eh]
	 Same-Spin Energy          =      -0.2609429656101849 [Eh]
	 Opposite-Spin Energy      =      -0.9378059713707037 [Eh]
	 Correlation Energy        =      -1.1987489369808886 [Eh]
	 Total Energy              =    -251.8419631262065934 [Eh]

	 ================> DF-SCS-MP2 Energies <==================
	-----------------------------------------------------------
	 SCS Same-Spin Scale       =       0.3333333333333333 [-]
	 SCS Opposite-Spin Scale   =       1.2000000000000000 [-]
	 SCS Same-Spin Energy      =      -0.0869809885367283 [Eh]
	 SCS Opposite-Spin Energy  =      -1.1253671656448443 [Eh]
	 SCS Correlation Energy    =      -1.2123481541815726 [Eh]
	 SCS Total Energy          =    -251.8555623434072857 [Eh]
	-----------------------------------------------------------

  Dipole Moment: [D]
     X:    -4.2045      Y:    -1.8759      Z:    -0.0038     Total:     4.6040

*** Psi4 exiting successfully. Buy a developer a beer!
