                               Psi4 1.4a3.dev225

  ==> Input File <==

--------------------------------------------------------------------------
#psi4
#
memory 32 gb

molecule  {
1 1
  N       -1.4684160    -0.7256290     0.0168660
  C        0.7996903     0.0304605    -0.3263504
  C       -0.0143940    -1.1774380     0.1210740
  C       -0.0289190     1.1951300     0.1928770
  C       -1.4778980     0.8076670    -0.0707360
  C        2.2387250    -0.0120120     0.0592990
  H        0.7264100     0.0548870    -1.4716460
  H        0.1145000    -2.0977020    -0.4513780
  H        0.1860930    -1.3741010     1.1771840
  H        0.2151160     2.1494100    -0.2804030
  H        0.1583560     1.2945460     1.2678570
  H       -2.0155250    -1.0560110     0.8205780
  H       -1.9143950    -1.1326260    -0.8134590
  H       -2.2036780     1.1930490     0.6461700
  H       -1.7986400     1.0658470    -1.0809590
  H        2.7502970    -0.8896260    -0.3442510
  H        2.7625990     0.8753680    -0.3028200
  H        2.3187760    -0.0349210     1.1503390
units angstrom
no_reorient  #important for SAPT in psi4, default
symmetry c1  #important for SAPT in psi4, default
}

set PROPERTIES_ORIGIN ["COM"]
properties('MP2/aug-cc-pvtz', properties = ['dipole'])
--------------------------------------------------------------------------

    Molecular point group: c1
  Charge       = 1
  Multiplicity = 1
  Basis Set: AUG-CC-PVTZ
    Blend: AUG-CC-PVTZ
  Basis Set: (AUG-CC-PVTZ AUX)
    Blend: AUG-CC-PVTZ-JKFIT

    Orbital Energies [Eh]
    ---------------------

    Doubly Occupied:

       1A    -15.866721     2A    -11.464940     3A    -11.460267
       4A    -11.405738     5A    -11.396838     6A    -11.358638
       7A     -1.493190     8A     -1.268324     9A     -1.195287
      10A     -1.104188    11A     -1.026167    12A     -0.971317
      13A     -0.933704    14A     -0.891428    15A     -0.827705
      16A     -0.790934    17A     -0.755219    18A     -0.743245
      19A     -0.712640    20A     -0.704984    21A     -0.680109
      22A     -0.665448    23A     -0.634909    24A     -0.619232

  @DF-RHF Final Energy:  -250.65340235844735

   => Energetics <=

    Nuclear Repulsion Energy =            266.0967447952596103
    One-Electron Energy =                -855.5579529520190363
    Two-Electron Energy =                 338.8078057983120743
    Total Energy =                       -250.6534023584473516
  Basis Set: (AUG-CC-PVTZ AUX)
    Blend: AUG-CC-PVTZ-RI
    Molecular point group: c1

    Geometry (in Angstrom), charge = 1, multiplicity = 1:

       Center              X                  Y                   Z               Mass
    ------------   -----------------  -----------------  -----------------  -----------------
         N           -1.456269167956    -0.725781734215     0.013731938180    14.003074004430
         C            0.811837132044     0.030307765785    -0.329484461820    12.000000000000
         C           -0.002247167956    -1.177590734215     0.117939938180    12.000000000000
         C           -0.016772167956     1.194977265785     0.189742938180    12.000000000000
         C           -1.465751167956     0.807514265785    -0.073870061820    12.000000000000
         C            2.250871832044    -0.012164734215     0.056164938180    12.000000000000
         H            0.738556832044     0.054734265785    -1.474780061820     1.007825032230
         H            0.126646832044    -2.097854734215    -0.454512061820     1.007825032230
         H            0.198239832044    -1.374253734215     1.174049938180     1.007825032230
         H            0.227262832044     2.149257265785    -0.283537061820     1.007825032230
         H            0.170502832044     1.294393265785     1.264722938180     1.007825032230
         H           -2.003378167956    -1.056163734215     0.817443938180     1.007825032230
         H           -1.902248167956    -1.132778734215    -0.816593061820     1.007825032230
         H           -2.191531167956     1.192896265785     0.643035938180     1.007825032230
         H           -1.786493167956     1.065694265785    -1.084093061820     1.007825032230
         H            2.762443832044    -0.889778734215    -0.347385061820     1.007825032230
         H            2.774745832044     0.875215265785    -0.305954061820     1.007825032230
         H            2.330922832044    -0.035073734215     1.147204938180     1.007825032230

  Basis Set: AUG-CC-PVTZ
    Blend: AUG-CC-PVTZ
  Basis Set: (AUG-CC-PVTZ AUX)
    Blend: AUG-CC-PVTZ-JKFIT
	 Reference Energy          =    -250.6534023584473516 [Eh]
	 Singles Energy            =      -0.0000000000000000 [Eh]
	 Same-Spin Energy          =      -0.2613784193445505 [Eh]
	 Opposite-Spin Energy      =      -0.9378082649183586 [Eh]
	 Correlation Energy        =      -1.1991866842629091 [Eh]
	 Total Energy              =    -251.8525890427102638 [Eh]

	 ================> DF-SCS-MP2 Energies <==================
	-----------------------------------------------------------
	 SCS Same-Spin Scale       =       0.3333333333333333 [-]
	 SCS Opposite-Spin Scale   =       1.2000000000000000 [-]
	 SCS Same-Spin Energy      =      -0.0871261397815168 [Eh]
	 SCS Opposite-Spin Energy  =      -1.1253699179020302 [Eh]
	 SCS Correlation Energy    =      -1.2124960576835471 [Eh]
	 SCS Total Energy          =    -251.8658984161309036 [Eh]
	-----------------------------------------------------------

  Dipole Moment: [D]
     X:    -4.2397      Y:    -1.8685      Z:    -0.0248     Total:     4.6332

*** Psi4 exiting successfully. Buy a developer a beer!
