                               Psi4 1.4a3.dev225

  ==> Input File <==

--------------------------------------------------------------------------
#psi4
#
memory 32 gb

molecule  {
1 1
  N       -1.4684160    -0.7256290     0.0168660
  C        0.7789870     0.0252000    -0.3750600
  C       -0.0143940    -1.1774380     0.1210740
  C       -0.0289190     1.1951300     0.1928770
  C       -1.4969275     0.8025784    -0.0741980
  C        2.2387250    -0.0120120     0.0592990
  H        0.7264100     0.0548870    -1.4716460
  H        0.1145000    -2.0977020    -0.4513780
  H        0.1860930    -1.3741010     1.1771840
  H        0.2151160     2.1494100    -0.2804030
  H        0.1583560     1.2945460     1.2678570
  H       -2.0155250    -1.0560110     0.8205780
  H       -1.9143950    -1.1326260    -0.8134590
  H       -2.2036780     1.1930490     0.6461700
  H       -1.7986400     1.0658470    -1.0809590
  H        2.7502970    -0.8896260    -0.3442510
  H        2.7625990     0.8753680    -0.3028200
  H        2.3187760    -0.0349210     1.1503390
units angstrom
no_reorient  #important for SAPT in psi4, default
symmetry c1  #important for SAPT in psi4, default
}

set PROPERTIES_ORIGIN ["COM"]
properties('MP2/aug-cc-pvtz', properties = ['dipole'])
--------------------------------------------------------------------------

    Molecular point group: c1
  Charge       = 1
  Multiplicity = 1
  Basis Set: AUG-CC-PVTZ
    Blend: AUG-CC-PVTZ
  Basis Set: (AUG-CC-PVTZ AUX)
    Blend: AUG-CC-PVTZ-JKFIT

    Orbital Energies [Eh]
    ---------------------

    Doubly Occupied:

       1A    -15.866210     2A    -11.462782     3A    -11.460248
       4A    -11.402847     5A    -11.397591     6A    -11.359568
       7A     -1.493457     8A     -1.263548     9A     -1.192756
      10A     -1.098813    11A     -1.024899    12A     -0.975039
      13A     -0.935096    14A     -0.892817    15A     -0.827552
      16A     -0.792846    17A     -0.756584    18A     -0.737151
      19A     -0.711913    20A     -0.701225    21A     -0.681607
      22A     -0.653634    23A     -0.638190    24A     -0.629071

  @DF-RHF Final Energy:  -250.65676021590139

   => Energetics <=

    Nuclear Repulsion Energy =            265.6788592028345306
    One-Electron Energy =                -854.7603493750176540
    Two-Electron Energy =                 338.4247299562816806
    Total Energy =                       -250.6567602159013859
  Basis Set: (AUG-CC-PVTZ AUX)
    Blend: AUG-CC-PVTZ-RI
    Molecular point group: c1

    Geometry (in Angstrom), charge = 1, multiplicity = 1:

       Center              X                  Y                   Z               Mass
    ------------   -----------------  -----------------  -----------------  -----------------
         N           -1.450731300877    -0.724339300252     0.021003496843    14.003074004430
         C            0.796671699123     0.026489699748    -0.370922503157    12.000000000000
         C            0.003290699123    -1.176148300252     0.125211496843    12.000000000000
         C           -0.011234300877     1.196419699748     0.197014496843    12.000000000000
         C           -1.479242800877     0.803868099748    -0.070060503157    12.000000000000
         C            2.256409699123    -0.010722300252     0.063436496843    12.000000000000
         H            0.744094699123     0.056176699748    -1.467508503157     1.007825032230
         H            0.132184699123    -2.096412300252    -0.447240503157     1.007825032230
         H            0.203777699123    -1.372811300252     1.181321496843     1.007825032230
         H            0.232800699123     2.150699699748    -0.276265503157     1.007825032230
         H            0.176040699123     1.295835699748     1.271994496843     1.007825032230
         H           -1.997840300877    -1.054721300252     0.824715496843     1.007825032230
         H           -1.896710300877    -1.131336300252    -0.809321503157     1.007825032230
         H           -2.185993300877     1.194338699748     0.650307496843     1.007825032230
         H           -1.780955300877     1.067136699748    -1.076821503157     1.007825032230
         H            2.767981699123    -0.888336300252    -0.340113503157     1.007825032230
         H            2.780283699123     0.876657699748    -0.298682503157     1.007825032230
         H            2.336460699123    -0.033631300252     1.154476496843     1.007825032230

  Basis Set: AUG-CC-PVTZ
    Blend: AUG-CC-PVTZ
  Basis Set: (AUG-CC-PVTZ AUX)
    Blend: AUG-CC-PVTZ-JKFIT
	 Reference Energy          =    -250.6567602159013859 [Eh]
	 Singles Energy            =      -0.0000000000000000 [Eh]
	 Same-Spin Energy          =      -0.2609750212873821 [Eh]
	 Opposite-Spin Energy      =      -0.9373169968961645 [Eh]
	 Correlation Energy        =      -1.1982920181835466 [Eh]
	 Total Energy              =    -251.8550522340849227 [Eh]

	 ================> DF-SCS-MP2 Energies <==================
	-----------------------------------------------------------
	 SCS Same-Spin Scale       =       0.3333333333333333 [-]
	 SCS Opposite-Spin Scale   =       1.2000000000000000 [-]
	 SCS Same-Spin Energy      =      -0.0869916737624607 [Eh]
	 SCS Opposite-Spin Energy  =      -1.1247803962753975 [Eh]
	 SCS Correlation Energy    =      -1.2117720700378583 [Eh]
	 SCS Total Energy          =    -251.8685322859392386 [Eh]
	-----------------------------------------------------------

  Dipole Moment: [D]
     X:    -4.2196      Y:    -1.8790      Z:    -0.0137     Total:     4.6191

*** Psi4 exiting successfully. Buy a developer a beer!
