                               Psi4 1.4a3.dev225

  ==> Input File <==

--------------------------------------------------------------------------
#psi4
#
memory 32 gb

molecule  {
1 1
  N       -1.4684160    -0.7256290     0.0168660
  C        0.7273505    -0.0387360    -0.3067548
  C       -0.0143940    -1.1774380     0.1210740
  C       -0.0289190     1.1951300     0.1928770
  C       -1.4778980     0.8076670    -0.0707360
  C        2.2387250    -0.0120120     0.0592990
  H        0.7264100     0.0548870    -1.4716460
  H        0.1145000    -2.0977020    -0.4513780
  H        0.1860930    -1.3741010     1.1771840
  H        0.2151160     2.1494100    -0.2804030
  H        0.1583560     1.2945460     1.2678570
  H       -2.0155250    -1.0560110     0.8205780
  H       -1.9143950    -1.1326260    -0.8134590
  H       -2.2036780     1.1930490     0.6461700
  H       -1.7986400     1.0658470    -1.0809590
  H        2.7502970    -0.8896260    -0.3442510
  H        2.7625990     0.8753680    -0.3028200
  H        2.3187760    -0.0349210     1.1503390
units angstrom
no_reorient  #important for SAPT in psi4, default
symmetry c1  #important for SAPT in psi4, default
}

set PROPERTIES_ORIGIN ["COM"]
properties('MP2/aug-cc-pvtz', properties = ['dipole'])
--------------------------------------------------------------------------

    Molecular point group: c1
  Charge       = 1
  Multiplicity = 1
  Basis Set: AUG-CC-PVTZ
    Blend: AUG-CC-PVTZ
  Basis Set: (AUG-CC-PVTZ AUX)
    Blend: AUG-CC-PVTZ-JKFIT

    Orbital Energies [Eh]
    ---------------------

    Doubly Occupied:

       1A    -15.866528     2A    -11.463531     3A    -11.459036
       4A    -11.403331     5A    -11.397783     6A    -11.362739
       7A     -1.497047     8A     -1.272965     9A     -1.200784
      10A     -1.098312    11A     -1.025068    12A     -0.973792
      13A     -0.936225    14A     -0.894257    15A     -0.830877
      16A     -0.793253    17A     -0.757348    18A     -0.741656
      19A     -0.710187    20A     -0.706918    21A     -0.678237
      22A     -0.672402    23A     -0.631128    24A     -0.610897

  @DF-RHF Final Energy:  -250.64346631890180

   => Energetics <=

    Nuclear Repulsion Energy =            266.8664489486527032
    One-Electron Energy =                -857.0512253993292688
    Two-Electron Energy =                 339.5413101317747078
    Total Energy =                       -250.6434663189018011
  Basis Set: (AUG-CC-PVTZ AUX)
    Blend: AUG-CC-PVTZ-RI
    Molecular point group: c1

    Geometry (in Angstrom), charge = 1, multiplicity = 1:

       Center              X                  Y                   Z               Mass
    ------------   -----------------  -----------------  -----------------  -----------------
         N           -1.446186611557    -0.716137283805     0.011000748127    14.003074004430
         C            0.749579888443    -0.029244283805    -0.312620051873    12.000000000000
         C            0.007835388443    -1.167946283805     0.115208748127    12.000000000000
         C           -0.006689611557     1.204621716195     0.187011748127    12.000000000000
         C           -1.455668611557     0.817158716195    -0.076601251873    12.000000000000
         C            2.260954388443    -0.002520283805     0.053433748127    12.000000000000
         H            0.748639388443     0.064378716195    -1.477511251873     1.007825032230
         H            0.136729388443    -2.088210283805    -0.457243251873     1.007825032230
         H            0.208322388443    -1.364609283805     1.171318748127     1.007825032230
         H            0.237345388443     2.158901716195    -0.286268251873     1.007825032230
         H            0.180585388443     1.304037716195     1.261991748127     1.007825032230
         H           -1.993295611557    -1.046519283805     0.814712748127     1.007825032230
         H           -1.892165611557    -1.123134283805    -0.819324251873     1.007825032230
         H           -2.181448611557     1.202540716195     0.640304748127     1.007825032230
         H           -1.776410611557     1.075338716195    -1.086824251873     1.007825032230
         H            2.772526388443    -0.880134283805    -0.350116251873     1.007825032230
         H            2.784828388443     0.884859716195    -0.308685251873     1.007825032230
         H            2.341005388443    -0.025429283805     1.144473748127     1.007825032230

  Basis Set: AUG-CC-PVTZ
    Blend: AUG-CC-PVTZ
  Basis Set: (AUG-CC-PVTZ AUX)
    Blend: AUG-CC-PVTZ-JKFIT
	 Reference Energy          =    -250.6434663189018011 [Eh]
	 Singles Energy            =      -0.0000000000000000 [Eh]
	 Same-Spin Energy          =      -0.2619799507571994 [Eh]
	 Opposite-Spin Energy      =      -0.9385674324912729 [Eh]
	 Correlation Energy        =      -1.2005473832484723 [Eh]
	 Total Energy              =    -251.8440137021502778 [Eh]

	 ================> DF-SCS-MP2 Energies <==================
	-----------------------------------------------------------
	 SCS Same-Spin Scale       =       0.3333333333333333 [-]
	 SCS Opposite-Spin Scale   =       1.2000000000000000 [-]
	 SCS Same-Spin Energy      =      -0.0873266502523998 [Eh]
	 SCS Opposite-Spin Energy  =      -1.1262809189895275 [Eh]
	 SCS Correlation Energy    =      -1.2136075692419273 [Eh]
	 SCS Total Energy          =    -251.8570738881437308 [Eh]
	-----------------------------------------------------------

  Dipole Moment: [D]
     X:    -4.1840      Y:    -1.8378      Z:    -0.0281     Total:     4.5699

*** Psi4 exiting successfully. Buy a developer a beer!
