                               Psi4 1.4a3.dev225

  ==> Input File <==

--------------------------------------------------------------------------
#psi4
#
memory 32 gb

molecule  {
1 1
  N       -1.4566668    -0.6838372     0.0477389
  C        0.7789870     0.0252000    -0.3750600
  C       -0.0143940    -1.1774380     0.1210740
  C       -0.0289190     1.1951300     0.1928770
  C       -1.4778980     0.8076670    -0.0707360
  C        2.2387250    -0.0120120     0.0592990
  H        0.7264100     0.0548870    -1.4716460
  H        0.1145000    -2.0977020    -0.4513780
  H        0.1860930    -1.3741010     1.1771840
  H        0.2151160     2.1494100    -0.2804030
  H        0.1583560     1.2945460     1.2678570
  H       -2.0155250    -1.0560110     0.8205780
  H       -1.9143950    -1.1326260    -0.8134590
  H       -2.2036780     1.1930490     0.6461700
  H       -1.7986400     1.0658470    -1.0809590
  H        2.7502970    -0.8896260    -0.3442510
  H        2.7625990     0.8753680    -0.3028200
  H        2.3187760    -0.0349210     1.1503390
units angstrom
no_reorient  #important for SAPT in psi4, default
symmetry c1  #important for SAPT in psi4, default
}

set PROPERTIES_ORIGIN ["COM"]
properties('MP2/aug-cc-pvtz', properties = ['dipole'])
--------------------------------------------------------------------------

    Molecular point group: c1
  Charge       = 1
  Multiplicity = 1
  Basis Set: AUG-CC-PVTZ
    Blend: AUG-CC-PVTZ
  Basis Set: (AUG-CC-PVTZ AUX)
    Blend: AUG-CC-PVTZ-JKFIT

    Orbital Energies [Eh]
    ---------------------

    Doubly Occupied:

       1A    -15.869632     2A    -11.460381     3A    -11.460080
       4A    -11.402619     5A    -11.395630     6A    -11.359302
       7A     -1.496702     8A     -1.263134     9A     -1.196989
      10A     -1.098281    11A     -1.024106    12A     -0.971501
      13A     -0.930310    14A     -0.899140    15A     -0.823994
      16A     -0.791678    17A     -0.760216    18A     -0.738468
      19A     -0.711123    20A     -0.699356    21A     -0.678455
      22A     -0.654608    23A     -0.638268    24A     -0.628877

  @DF-RHF Final Energy:  -250.65237884245710

   => Energetics <=

    Nuclear Repulsion Energy =            266.4728650306338977
    One-Electron Energy =                -856.3447906775052161
    Two-Electron Energy =                 339.2195468044142217
    Total Energy =                       -250.6523788424570967
  Basis Set: (AUG-CC-PVTZ AUX)
    Blend: AUG-CC-PVTZ-RI
    Molecular point group: c1

    Geometry (in Angstrom), charge = 1, multiplicity = 1:

       Center              X                  Y                   Z               Mass
    ------------   -----------------  -----------------  -----------------  -----------------
         N           -1.443545314856    -0.690053883289     0.046372608739    14.003074004430
         C            0.792108485144     0.018983316711    -0.376426291261    12.000000000000
         C           -0.001272514856    -1.183654683289     0.119707708739    12.000000000000
         C           -0.015797514856     1.188913316711     0.191510708739    12.000000000000
         C           -1.464776514856     0.801450316711    -0.072102291261    12.000000000000
         C            2.251846485144    -0.018228683289     0.057932708739    12.000000000000
         H            0.739531485144     0.048670316711    -1.473012291261     1.007825032230
         H            0.127621485144    -2.103918683289    -0.452744291261     1.007825032230
         H            0.199214485144    -1.380317683289     1.175817708739     1.007825032230
         H            0.228237485144     2.143193316711    -0.281769291261     1.007825032230
         H            0.171477485144     1.288329316711     1.266490708739     1.007825032230
         H           -2.002403514856    -1.062227683289     0.819211708739     1.007825032230
         H           -1.901273514856    -1.138842683289    -0.814825291261     1.007825032230
         H           -2.190556514856     1.186832316711     0.644803708739     1.007825032230
         H           -1.785518514856     1.059630316711    -1.082325291261     1.007825032230
         H            2.763418485144    -0.895842683289    -0.345617291261     1.007825032230
         H            2.775720485144     0.869151316711    -0.304186291261     1.007825032230
         H            2.331897485144    -0.041137683289     1.148972708739     1.007825032230

  Basis Set: AUG-CC-PVTZ
    Blend: AUG-CC-PVTZ
  Basis Set: (AUG-CC-PVTZ AUX)
    Blend: AUG-CC-PVTZ-JKFIT
	 Reference Energy          =    -250.6523788424570967 [Eh]
	 Singles Energy            =      -0.0000000000000000 [Eh]
	 Same-Spin Energy          =      -0.2616507919606036 [Eh]
	 Opposite-Spin Energy      =      -0.9381980164806739 [Eh]
	 Correlation Energy        =      -1.1998488084412775 [Eh]
	 Total Energy              =    -251.8522276508983850 [Eh]

	 ================> DF-SCS-MP2 Energies <==================
	-----------------------------------------------------------
	 SCS Same-Spin Scale       =       0.3333333333333333 [-]
	 SCS Opposite-Spin Scale   =       1.2000000000000000 [-]
	 SCS Same-Spin Energy      =      -0.0872169306535345 [Eh]
	 SCS Opposite-Spin Energy  =      -1.1258376197768087 [Eh]
	 SCS Correlation Energy    =      -1.2130545504303432 [Eh]
	 SCS Total Energy          =    -251.8654333928874394 [Eh]
	-----------------------------------------------------------

  Dipole Moment: [D]
     X:    -4.2572      Y:    -1.9616      Z:    -0.0493     Total:     4.6877

*** Psi4 exiting successfully. Buy a developer a beer!
