                               Psi4 1.4a3.dev225

  ==> Input File <==

--------------------------------------------------------------------------
#psi4
#
memory 32 gb

molecule  {
1 1
  N       -1.4684160    -0.7256290     0.0168660
  C        0.7789870     0.0252000    -0.3750600
  C       -0.0143940    -1.1774380     0.1210740
  C       -0.0289190     1.1951300     0.1928770
  C       -1.4778980     0.8076670    -0.0707360
  C        2.2309088    -0.0125401     0.0847075
  H        0.7264100     0.0548870    -1.4716460
  H        0.1145000    -2.0977020    -0.4513780
  H        0.1860930    -1.3741010     1.1771840
  H        0.2151160     2.1494100    -0.2804030
  H        0.1583560     1.2945460     1.2678570
  H       -2.0155250    -1.0560110     0.8205780
  H       -1.9143950    -1.1326260    -0.8134590
  H       -2.2036780     1.1930490     0.6461700
  H       -1.7986400     1.0658470    -1.0809590
  H        2.7502970    -0.8896260    -0.3442510
  H        2.7625990     0.8753680    -0.3028200
  H        2.3187760    -0.0349210     1.1503390
units angstrom
no_reorient  #important for SAPT in psi4, default
symmetry c1  #important for SAPT in psi4, default
}

set PROPERTIES_ORIGIN ["COM"]
properties('MP2/aug-cc-pvtz', properties = ['dipole'])
--------------------------------------------------------------------------

    Molecular point group: c1
  Charge       = 1
  Multiplicity = 1
  Basis Set: AUG-CC-PVTZ
    Blend: AUG-CC-PVTZ
  Basis Set: (AUG-CC-PVTZ AUX)
    Blend: AUG-CC-PVTZ-JKFIT

    Orbital Energies [Eh]
    ---------------------

    Doubly Occupied:

       1A    -15.865409     2A    -11.463666     3A    -11.459822
       4A    -11.403166     5A    -11.396515     6A    -11.359575
       7A     -1.492582     8A     -1.265246     9A     -1.193980
      10A     -1.098552    11A     -1.023758    12A     -0.975177
      13A     -0.935197    14A     -0.892467    15A     -0.827703
      16A     -0.791639    17A     -0.753648    18A     -0.738283
      19A     -0.713822    20A     -0.701830    21A     -0.682284
      22A     -0.652557    23A     -0.641815    24A     -0.626524

  @DF-RHF Final Energy:  -250.65604521721926

   => Energetics <=

    Nuclear Repulsion Energy =            265.9580749462676863
    One-Electron Energy =                -855.3178085961199031
    Two-Electron Energy =                 338.7036884326329300
    Total Energy =                       -250.6560452172192299
  Basis Set: (AUG-CC-PVTZ AUX)
    Blend: AUG-CC-PVTZ-RI
    Molecular point group: c1

    Geometry (in Angstrom), charge = 1, multiplicity = 1:

       Center              X                  Y                   Z               Mass
    ------------   -----------------  -----------------  -----------------  -----------------
         N           -1.452294185067    -0.724974932344     0.016979592374    14.003074004430
         C            0.795108814933     0.025854067656    -0.374946407626    12.000000000000
         C            0.001727814933    -1.176783932344     0.121187592374    12.000000000000
         C           -0.012797185067     1.195784067656     0.192990592374    12.000000000000
         C           -1.461776185067     0.808321067656    -0.070622407626    12.000000000000
         C            2.247030614933    -0.011886032344     0.084821092374    12.000000000000
         H            0.742531814933     0.055541067656    -1.471532407626     1.007825032230
         H            0.130621814933    -2.097047932344    -0.451264407626     1.007825032230
         H            0.202214814933    -1.373446932344     1.177297592374     1.007825032230
         H            0.231237814933     2.150064067656    -0.280289407626     1.007825032230
         H            0.174477814933     1.295200067656     1.267970592374     1.007825032230
         H           -1.999403185067    -1.055356932344     0.820691592374     1.007825032230
         H           -1.898273185067    -1.131971932344    -0.813345407626     1.007825032230
         H           -2.187556185067     1.193703067656     0.646283592374     1.007825032230
         H           -1.782518185067     1.066501067656    -1.080845407626     1.007825032230
         H            2.766418814933    -0.888971932344    -0.344137407626     1.007825032230
         H            2.778720814933     0.876022067656    -0.302706407626     1.007825032230
         H            2.334897814933    -0.034266932344     1.150452592374     1.007825032230

  Basis Set: AUG-CC-PVTZ
    Blend: AUG-CC-PVTZ
  Basis Set: (AUG-CC-PVTZ AUX)
    Blend: AUG-CC-PVTZ-JKFIT
	 Reference Energy          =    -250.6560452172192583 [Eh]
	 Singles Energy            =      -0.0000000000000000 [Eh]
	 Same-Spin Energy          =      -0.2611330859999192 [Eh]
	 Opposite-Spin Energy      =      -0.9374873774691381 [Eh]
	 Correlation Energy        =      -1.1986204634690574 [Eh]
	 Total Energy              =    -251.8546656806883277 [Eh]

	 ================> DF-SCS-MP2 Energies <==================
	-----------------------------------------------------------
	 SCS Same-Spin Scale       =       0.3333333333333333 [-]
	 SCS Opposite-Spin Scale   =       1.2000000000000000 [-]
	 SCS Same-Spin Energy      =      -0.0870443619999731 [Eh]
	 SCS Opposite-Spin Energy  =      -1.1249848529629658 [Eh]
	 SCS Correlation Energy    =      -1.2120292149629388 [Eh]
	 SCS Total Energy          =    -251.8680744321821976 [Eh]
	-----------------------------------------------------------

  Dipole Moment: [D]
     X:    -4.2137      Y:    -1.8660      Z:    -0.0260     Total:     4.6085

*** Psi4 exiting successfully. Buy a developer a beer!
