                               Psi4 1.4a3.dev225

  ==> Input File <==

--------------------------------------------------------------------------
#psi4
#
memory 32 gb

molecule  {
1 1
  N       -1.4684160    -0.7256290     0.0168660
  C        0.7789870     0.0252000    -0.3750600
  C       -0.0143940    -1.1774380     0.1210740
  C       -0.0289190     1.1951300     0.1928770
  C       -1.4778980     0.8076670    -0.0707360
  C        2.2387250    -0.0120120     0.0592990
  H        0.7264100     0.0548870    -1.4716460
  H        0.1145000    -2.0977020    -0.4513780
  H        0.1860930    -1.3741010     1.1771840
  H        0.2151160     2.1494100    -0.2804030
  H        0.1583560     1.2945460     1.2678570
  H       -2.0155250    -1.0560110     0.8205780
  H       -1.9143950    -1.1326260    -0.8134590
  H       -2.1704012     1.1753793     0.6133000
  H       -1.7986400     1.0658470    -1.0809590
  H        2.7502970    -0.8896260    -0.3442510
  H        2.7625990     0.8753680    -0.3028200
  H        2.3187760    -0.0349210     1.1503390
units angstrom
no_reorient  #important for SAPT in psi4, default
symmetry c1  #important for SAPT in psi4, default
}

set PROPERTIES_ORIGIN ["COM"]
properties('MP2/aug-cc-pvtz', properties = ['dipole'])
--------------------------------------------------------------------------

    Molecular point group: c1
  Charge       = 1
  Multiplicity = 1
  Basis Set: AUG-CC-PVTZ
    Blend: AUG-CC-PVTZ
  Basis Set: (AUG-CC-PVTZ AUX)
    Blend: AUG-CC-PVTZ-JKFIT

    Orbital Energies [Eh]
    ---------------------

    Doubly Occupied:

       1A    -15.865464     2A    -11.459965     3A    -11.458486
       4A    -11.402918     5A    -11.396515     6A    -11.359469
       7A     -1.492881     8A     -1.264985     9A     -1.196968
      10A     -1.098869    11A     -1.027423    12A     -0.975337
      13A     -0.935126    14A     -0.894711    15A     -0.827745
      16A     -0.795046    17A     -0.756991    18A     -0.740312
      19A     -0.711888    20A     -0.703508    21A     -0.681057
      22A     -0.654802    23A     -0.638492    24A     -0.629856

  @DF-RHF Final Energy:  -250.65606592815337

   => Energetics <=

    Nuclear Repulsion Energy =            266.1308623032156788
    One-Electron Energy =                -855.6362231649517298
    Two-Electron Energy =                 338.8492949335827120
    Total Energy =                       -250.6560659281533958
  Basis Set: (AUG-CC-PVTZ AUX)
    Blend: AUG-CC-PVTZ-RI
    Molecular point group: c1

    Geometry (in Angstrom), charge = 1, multiplicity = 1:

       Center              X                  Y                   Z               Mass
    ------------   -----------------  -----------------  -----------------  -----------------
         N           -1.453773117316    -0.724841701577     0.020905737412    14.003074004430
         C            0.793629882684     0.025987298423    -0.371020262588    12.000000000000
         C            0.000248882684    -1.176650701577     0.125113737412    12.000000000000
         C           -0.014276117316     1.195917298423     0.196916737412    12.000000000000
         C           -1.463255117316     0.808454298423    -0.066696262588    12.000000000000
         C            2.253367882684    -0.011224701577     0.063338737412    12.000000000000
         H            0.741052882684     0.055674298423    -1.467606262588     1.007825032230
         H            0.129142882684    -2.096914701577    -0.447338262588     1.007825032230
         H            0.200735882684    -1.373313701577     1.181223737412     1.007825032230
         H            0.229758882684     2.150197298423    -0.276363262588     1.007825032230
         H            0.172998882684     1.295333298423     1.271896737412     1.007825032230
         H           -2.000882117316    -1.055223701577     0.824617737412     1.007825032230
         H           -1.899752117316    -1.131838701577    -0.809419262588     1.007825032230
         H           -2.155758317316     1.176166598423     0.617339737412     1.007825032230
         H           -1.783997117316     1.066634298423    -1.076919262588     1.007825032230
         H            2.764939882684    -0.888838701577    -0.340211262588     1.007825032230
         H            2.777241882684     0.876155298423    -0.298780262588     1.007825032230
         H            2.333418882684    -0.034133701577     1.154378737412     1.007825032230

  Basis Set: AUG-CC-PVTZ
    Blend: AUG-CC-PVTZ
  Basis Set: (AUG-CC-PVTZ AUX)
    Blend: AUG-CC-PVTZ-JKFIT
	 Reference Energy          =    -250.6560659281533674 [Eh]
	 Singles Energy            =      -0.0000000000000000 [Eh]
	 Same-Spin Energy          =      -0.2610364612039432 [Eh]
	 Opposite-Spin Energy      =      -0.9370499763326182 [Eh]
	 Correlation Energy        =      -1.1980864375365614 [Eh]
	 Total Energy              =    -251.8541523656899415 [Eh]

	 ================> DF-SCS-MP2 Energies <==================
	-----------------------------------------------------------
	 SCS Same-Spin Scale       =       0.3333333333333333 [-]
	 SCS Opposite-Spin Scale   =       1.2000000000000000 [-]
	 SCS Same-Spin Energy      =      -0.0870121537346477 [Eh]
	 SCS Opposite-Spin Energy  =      -1.1244599715991419 [Eh]
	 SCS Correlation Energy    =      -1.2114721253337897 [Eh]
	 SCS Total Energy          =    -251.8675380534871522 [Eh]
	-----------------------------------------------------------

  Dipole Moment: [D]
     X:    -4.2261      Y:    -1.8690      Z:    -0.0202     Total:     4.6210

*** Psi4 exiting successfully. Buy a developer a beer!
