                               Psi4 1.4a3.dev225

  ==> Input File <==

--------------------------------------------------------------------------
#psi4
#
memory 32 gb

molecule  {
1 1
  N       -1.4684160    -0.7256290     0.0168660
  C        0.7789870     0.0252000    -0.3750600
  C       -0.0143940    -1.1774380     0.1210740
  C       -0.0289190     1.1951300     0.1928770
  C       -1.4778980     0.8076670    -0.0707360
  C        2.2387250    -0.0120120     0.0592990
  H        0.7264100     0.0548870    -1.4716460
  H        0.1145000    -2.0977020    -0.4513780
  H        0.1860930    -1.3741010     1.1771840
  H        0.2151160     2.1494100    -0.2804030
  H        0.1754480     1.3036194     1.3659668
  H       -2.0155250    -1.0560110     0.8205780
  H       -1.9143950    -1.1326260    -0.8134590
  H       -2.2036780     1.1930490     0.6461700
  H       -1.7986400     1.0658470    -1.0809590
  H        2.7502970    -0.8896260    -0.3442510
  H        2.7625990     0.8753680    -0.3028200
  H        2.3187760    -0.0349210     1.1503390
units angstrom
no_reorient  #important for SAPT in psi4, default
symmetry c1  #important for SAPT in psi4, default
}

set PROPERTIES_ORIGIN ["COM"]
properties('MP2/aug-cc-pvtz', properties = ['dipole'])
--------------------------------------------------------------------------

    Molecular point group: c1
  Charge       = 1
  Multiplicity = 1
  Basis Set: AUG-CC-PVTZ
    Blend: AUG-CC-PVTZ
  Basis Set: (AUG-CC-PVTZ AUX)
    Blend: AUG-CC-PVTZ-JKFIT

    Orbital Energies [Eh]
    ---------------------

    Doubly Occupied:

       1A    -15.865837     2A    -11.464701     3A    -11.460112
       4A    -11.407835     5A    -11.403960     6A    -11.359577
       7A     -1.492874     8A     -1.263603     9A     -1.193279
      10A     -1.098907    11A     -1.019628    12A     -0.972835
      13A     -0.933789    14A     -0.892679    15A     -0.824490
      16A     -0.788458    17A     -0.754035    18A     -0.739888
      19A     -0.711950    20A     -0.703548    21A     -0.670802
      22A     -0.654036    23A     -0.635934    24A     -0.628614

  @DF-RHF Final Energy:  -250.65031130115489

   => Energetics <=

    Nuclear Repulsion Energy =            265.4404688609733967
    One-Electron Energy =                -854.2988106351176611
    Two-Electron Energy =                 338.2080304729893783
    Total Energy =                       -250.6503113011548862
  Basis Set: (AUG-CC-PVTZ AUX)
    Blend: AUG-CC-PVTZ-RI
    Molecular point group: c1

    Geometry (in Angstrom), charge = 1, multiplicity = 1:

       Center              X                  Y                   Z               Mass
    ------------   -----------------  -----------------  -----------------  -----------------
         N           -1.453583662963    -0.725154748183     0.019372527656    14.003074004430
         C            0.793819337037     0.025674251817    -0.372553472344    12.000000000000
         C            0.000438337037    -1.176963748183     0.123580527656    12.000000000000
         C           -0.014086662963     1.195604251817     0.195383527656    12.000000000000
         C           -1.463065662963     0.808141251817    -0.068229472344    12.000000000000
         C            2.253557337037    -0.011537748183     0.061805527656    12.000000000000
         H            0.741242337037     0.055361251817    -1.469139472344     1.007825032230
         H            0.129332337037    -2.097227748183    -0.448871472344     1.007825032230
         H            0.200925337037    -1.373626748183     1.179690527656     1.007825032230
         H            0.229948337037     2.149884251817    -0.277896472344     1.007825032230
         H            0.190280337037     1.304093651817     1.368473327656     1.007825032230
         H           -2.000692662963    -1.055536748183     0.823084527656     1.007825032230
         H           -1.899562662963    -1.132151748183    -0.810952472344     1.007825032230
         H           -2.188845662963     1.193523251817     0.648676527656     1.007825032230
         H           -1.783807662963     1.066321251817    -1.078452472344     1.007825032230
         H            2.765129337037    -0.889151748183    -0.341744472344     1.007825032230
         H            2.777431337037     0.875842251817    -0.300313472344     1.007825032230
         H            2.333608337037    -0.034446748183     1.152845527656     1.007825032230

  Basis Set: AUG-CC-PVTZ
    Blend: AUG-CC-PVTZ
  Basis Set: (AUG-CC-PVTZ AUX)
    Blend: AUG-CC-PVTZ-JKFIT
	 Reference Energy          =    -250.6503113011548862 [Eh]
	 Singles Energy            =      -0.0000000000000000 [Eh]
	 Same-Spin Energy          =      -0.2611939330689630 [Eh]
	 Opposite-Spin Energy      =      -0.9382049829537016 [Eh]
	 Correlation Energy        =      -1.1993989160226646 [Eh]
	 Total Energy              =    -251.8497102171775452 [Eh]

	 ================> DF-SCS-MP2 Energies <==================
	-----------------------------------------------------------
	 SCS Same-Spin Scale       =       0.3333333333333333 [-]
	 SCS Opposite-Spin Scale   =       1.2000000000000000 [-]
	 SCS Same-Spin Energy      =      -0.0870646443563210 [Eh]
	 SCS Opposite-Spin Energy  =      -1.1258459795444418 [Eh]
	 SCS Correlation Energy    =      -1.2129106239007628 [Eh]
	 SCS Total Energy          =    -251.8632219250556545 [Eh]
	-----------------------------------------------------------

  Dipole Moment: [D]
     X:    -4.2262      Y:    -1.8713      Z:    -0.0504     Total:     4.6222

*** Psi4 exiting successfully. Buy a developer a beer!
