                               Psi4 1.4a3.dev225

  ==> Input File <==

--------------------------------------------------------------------------
#psi4
#
memory 32 gb

molecule  {
1 1
  N       -1.4684160    -0.7256290     0.0168660
  C        0.7789870     0.0252000    -0.3750600
  C       -0.0143940    -1.1774380     0.1210740
  C       -0.0289190     1.1951300     0.1928770
  C       -1.4902482     0.9431550    -0.1538003
  C        2.2387250    -0.0120120     0.0592990
  H        0.7264100     0.0548870    -1.4716460
  H        0.1145000    -2.0977020    -0.4513780
  H        0.1860930    -1.3741010     1.1771840
  H        0.2151160     2.1494100    -0.2804030
  H        0.1583560     1.2945460     1.2678570
  H       -2.0155250    -1.0560110     0.8205780
  H       -1.9143950    -1.1326260    -0.8134590
  H       -2.2036780     1.1930490     0.6461700
  H       -1.7986400     1.0658470    -1.0809590
  H        2.7502970    -0.8896260    -0.3442510
  H        2.7625990     0.8753680    -0.3028200
  H        2.3187760    -0.0349210     1.1503390
units angstrom
no_reorient  #important for SAPT in psi4, default
symmetry c1  #important for SAPT in psi4, default
}

set PROPERTIES_ORIGIN ["COM"]
properties('MP2/aug-cc-pvtz', properties = ['dipole'])
--------------------------------------------------------------------------

    Molecular point group: c1
  Charge       = 1
  Multiplicity = 1
  Basis Set: AUG-CC-PVTZ
    Blend: AUG-CC-PVTZ
  Basis Set: (AUG-CC-PVTZ AUX)
    Blend: AUG-CC-PVTZ-JKFIT

    Orbital Energies [Eh]
    ---------------------

    Doubly Occupied:

       1A    -15.848761     2A    -11.474032     3A    -11.454225
       4A    -11.403624     5A    -11.401643     6A    -11.359625
       7A     -1.462705     8A     -1.263115     9A     -1.197764
      10A     -1.093885    11A     -1.033950    12A     -0.966883
      13A     -0.922086    14A     -0.873915    15A     -0.829753
      16A     -0.813399    17A     -0.747799    18A     -0.720648
      19A     -0.714055    20A     -0.704642    21A     -0.685531
      22A     -0.655111    23A     -0.639626    24A     -0.631940

  @DF-RHF Final Energy:  -250.63604269784958

   => Energetics <=

    Nuclear Repulsion Energy =            264.1172135857060539
    One-Electron Energy =                -851.7090767555985167
    Two-Electron Energy =                 336.9558204720428876
    Total Energy =                       -250.6360426978495752
  Basis Set: (AUG-CC-PVTZ AUX)
    Blend: AUG-CC-PVTZ-RI
    Molecular point group: c1

    Geometry (in Angstrom), charge = 1, multiplicity = 1:

       Center              X                  Y                   Z               Mass
    ------------   -----------------  -----------------  -----------------  -----------------
         N           -1.451662246483    -0.743932546262     0.032098283933    14.003074004430
         C            0.795740753517     0.006896453738    -0.359827716067    12.000000000000
         C            0.002359753517    -1.195741546262     0.136306283933    12.000000000000
         C           -0.012165246483     1.176826453738     0.208109283933    12.000000000000
         C           -1.473494446483     0.924851453738    -0.138568016067    12.000000000000
         C            2.255478753517    -0.030315546262     0.074531283933    12.000000000000
         H            0.743163753517     0.036583453738    -1.456413716067     1.007825032230
         H            0.131253753517    -2.116005546262    -0.436145716067     1.007825032230
         H            0.202846753517    -1.392404546262     1.192416283933     1.007825032230
         H            0.231869753517     2.131106453738    -0.265170716067     1.007825032230
         H            0.175109753517     1.276242453738     1.283089283933     1.007825032230
         H           -1.998771246483    -1.074314546262     0.835810283933     1.007825032230
         H           -1.897641246483    -1.150929546262    -0.798226716067     1.007825032230
         H           -2.186924246483     1.174745453738     0.661402283933     1.007825032230
         H           -1.781886246483     1.047543453738    -1.065726716067     1.007825032230
         H            2.767050753517    -0.907929546262    -0.329018716067     1.007825032230
         H            2.779352753517     0.857064453738    -0.287587716067     1.007825032230
         H            2.335529753517    -0.053224546262     1.165571283933     1.007825032230

  Basis Set: AUG-CC-PVTZ
    Blend: AUG-CC-PVTZ
  Basis Set: (AUG-CC-PVTZ AUX)
    Blend: AUG-CC-PVTZ-JKFIT
	 Reference Energy          =    -250.6360426978495752 [Eh]
	 Singles Energy            =      -0.0000000000000000 [Eh]
	 Same-Spin Energy          =      -0.2608839219657613 [Eh]
	 Opposite-Spin Energy      =      -0.9382153371489679 [Eh]
	 Correlation Energy        =      -1.1990992591147291 [Eh]
	 Total Energy              =    -251.8351419569642928 [Eh]

	 ================> DF-SCS-MP2 Energies <==================
	-----------------------------------------------------------
	 SCS Same-Spin Scale       =       0.3333333333333333 [-]
	 SCS Opposite-Spin Scale   =       1.2000000000000000 [-]
	 SCS Same-Spin Energy      =      -0.0869613073219204 [Eh]
	 SCS Opposite-Spin Energy  =      -1.1258584045787614 [Eh]
	 SCS Correlation Energy    =      -1.2128197119006818 [Eh]
	 SCS Total Energy          =    -251.8488624097502679 [Eh]
	-----------------------------------------------------------

  Dipole Moment: [D]
     X:    -4.1817      Y:    -1.5814      Z:    -0.0356     Total:     4.4709

*** Psi4 exiting successfully. Buy a developer a beer!
