                               Psi4 1.4a3.dev225

  ==> Input File <==

--------------------------------------------------------------------------
#psi4
#
memory 32 gb

molecule  {
1 1
  N       -1.4684160    -0.7256290     0.0168660
  C        0.7789870     0.0252000    -0.3750600
  C       -0.0143940    -1.1774380     0.1210740
  C       -0.0289190     1.1951300     0.1928770
  C       -1.4778980     0.8076670    -0.0707360
  C        2.2387250    -0.0120120     0.0592990
  H        0.7264100     0.0548870    -1.4716460
  H        0.1145000    -2.0977020    -0.4513780
  H        0.1860930    -1.3741010     1.1771840
  H        0.1704534     1.9747603    -0.1937846
  H        0.1583560     1.2945460     1.2678570
  H       -2.0155250    -1.0560110     0.8205780
  H       -1.9143950    -1.1326260    -0.8134590
  H       -2.2036780     1.1930490     0.6461700
  H       -1.7986400     1.0658470    -1.0809590
  H        2.7502970    -0.8896260    -0.3442510
  H        2.7625990     0.8753680    -0.3028200
  H        2.3187760    -0.0349210     1.1503390
units angstrom
no_reorient  #important for SAPT in psi4, default
symmetry c1  #important for SAPT in psi4, default
}

set PROPERTIES_ORIGIN ["COM"]
properties('MP2/aug-cc-pvtz', properties = ['dipole'])
--------------------------------------------------------------------------

    Molecular point group: c1
  Charge       = 1
  Multiplicity = 1
  Basis Set: AUG-CC-PVTZ
    Blend: AUG-CC-PVTZ
  Basis Set: (AUG-CC-PVTZ AUX)
    Blend: AUG-CC-PVTZ-JKFIT

    Orbital Energies [Eh]
    ---------------------

    Doubly Occupied:

       1A    -15.865230     2A    -11.463289     3A    -11.459381
       4A    -11.402438     5A    -11.374130     6A    -11.359680
       7A     -1.492231     8A     -1.270809     9A     -1.198531
      10A     -1.098996    11A     -1.042007    12A     -0.976240
      13A     -0.942431    14A     -0.893893    15A     -0.831423
      16A     -0.792759    17A     -0.763100    18A     -0.740885
      19A     -0.720465    20A     -0.709915    21A     -0.685781
      22A     -0.654861    23A     -0.640486    24A     -0.629094

  @DF-RHF Final Energy:  -250.62308631981278

   => Energetics <=

    Nuclear Repulsion Energy =            266.9893441141975927
    One-Electron Energy =                -857.2087450065046141
    Two-Electron Energy =                 339.5963145724942365
    Total Energy =                       -250.6230863198127850
  Basis Set: (AUG-CC-PVTZ AUX)
    Blend: AUG-CC-PVTZ-RI
    Molecular point group: c1

    Geometry (in Angstrom), charge = 1, multiplicity = 1:

       Center              X                  Y                   Z               Mass
    ------------   -----------------  -----------------  -----------------  -----------------
         N           -1.452860782372    -0.723004141376     0.019507042494    14.003074004430
         C            0.794542217628     0.027824858624    -0.372418957506    12.000000000000
         C            0.001161217628    -1.174813141376     0.123715042494    12.000000000000
         C           -0.013363782372     1.197754858624     0.195518042494    12.000000000000
         C           -1.462342782372     0.810291858624    -0.068094957506    12.000000000000
         C            2.254280217628    -0.009387141376     0.061940042494    12.000000000000
         H            0.741965217628     0.057511858624    -1.469004957506     1.007825032230
         H            0.130055217628    -2.095077141376    -0.448736957506     1.007825032230
         H            0.201648217628    -1.371476141376     1.179825042494     1.007825032230
         H            0.186008617628     1.977385158624    -0.191143557506     1.007825032230
         H            0.173911217628     1.297170858624     1.270498042494     1.007825032230
         H           -1.999969782372    -1.053386141376     0.823219042494     1.007825032230
         H           -1.898839782372    -1.130001141376    -0.810817957506     1.007825032230
         H           -2.188122782372     1.195673858624     0.648811042494     1.007825032230
         H           -1.783084782372     1.068471858624    -1.078317957506     1.007825032230
         H            2.765852217628    -0.887001141376    -0.341609957506     1.007825032230
         H            2.778154217628     0.877992858624    -0.300178957506     1.007825032230
         H            2.334331217628    -0.032296141376     1.152980042494     1.007825032230

  Basis Set: AUG-CC-PVTZ
    Blend: AUG-CC-PVTZ
  Basis Set: (AUG-CC-PVTZ AUX)
    Blend: AUG-CC-PVTZ-JKFIT
	 Reference Energy          =    -250.6230863198127850 [Eh]
	 Singles Energy            =      -0.0000000000000000 [Eh]
	 Same-Spin Energy          =      -0.2610203351045424 [Eh]
	 Opposite-Spin Energy      =      -0.9366327232271074 [Eh]
	 Correlation Energy        =      -1.1976530583316498 [Eh]
	 Total Energy              =    -251.8207393781444239 [Eh]

	 ================> DF-SCS-MP2 Energies <==================
	-----------------------------------------------------------
	 SCS Same-Spin Scale       =       0.3333333333333333 [-]
	 SCS Opposite-Spin Scale   =       1.2000000000000000 [-]
	 SCS Same-Spin Energy      =      -0.0870067783681808 [Eh]
	 SCS Opposite-Spin Energy  =      -1.1239592678725290 [Eh]
	 SCS Correlation Energy    =      -1.2109660462407097 [Eh]
	 SCS Total Energy          =    -251.8340523660534984 [Eh]
	-----------------------------------------------------------

  Dipole Moment: [D]
     X:    -4.2282      Y:    -1.8694      Z:    -0.0047     Total:     4.6231

*** Psi4 exiting successfully. Buy a developer a beer!
