                               Psi4 1.4a3.dev225

  ==> Input File <==

--------------------------------------------------------------------------
#psi4
#
memory 32 gb

molecule  {
1 1
  N       -1.4627620    -0.7046611     0.0322889
  C        0.7789870     0.0252000    -0.3750600
  C       -0.0143940    -1.1774380     0.1210740
  C       -0.0289190     1.1951300     0.1928770
  C       -1.4778980     0.8076670    -0.0707360
  C        2.2387250    -0.0120120     0.0592990
  H        0.7264100     0.0548870    -1.4716460
  H        0.1145000    -2.0977020    -0.4513780
  H        0.1860930    -1.3741010     1.1771840
  H        0.2151160     2.1494100    -0.2804030
  H        0.1583560     1.2945460     1.2678570
  H       -2.0155250    -1.0560110     0.8205780
  H       -1.9143950    -1.1326260    -0.8134590
  H       -2.2036780     1.1930490     0.6461700
  H       -1.7986400     1.0658470    -1.0809590
  H        2.7502970    -0.8896260    -0.3442510
  H        2.7625990     0.8753680    -0.3028200
  H        2.3187760    -0.0349210     1.1503390
units angstrom
no_reorient  #important for SAPT in psi4, default
symmetry c1  #important for SAPT in psi4, default
}

set PROPERTIES_ORIGIN ["COM"]
properties('MP2/aug-cc-pvtz', properties = ['dipole'])
--------------------------------------------------------------------------

    Molecular point group: c1
  Charge       = 1
  Multiplicity = 1
  Basis Set: AUG-CC-PVTZ
    Blend: AUG-CC-PVTZ
  Basis Set: (AUG-CC-PVTZ AUX)
    Blend: AUG-CC-PVTZ-JKFIT

    Orbital Energies [Eh]
    ---------------------

    Doubly Occupied:

       1A    -15.867665     2A    -11.461921     3A    -11.460191
       4A    -11.402838     5A    -11.396150     6A    -11.359446
       7A     -1.494610     8A     -1.264061     9A     -1.195455
      10A     -1.098576    11A     -1.023886    12A     -0.973124
      13A     -0.932854    14A     -0.895795    15A     -0.825814
      16A     -0.791517    17A     -0.757141    18A     -0.739142
      19A     -0.711437    20A     -0.701687    21A     -0.679127
      22A     -0.654706    23A     -0.638428    24A     -0.629137

  @DF-RHF Final Energy:  -250.65544403696754

   => Energetics <=

    Nuclear Repulsion Energy =            266.1753230706859199
    One-Electron Energy =                -855.7521218326024837
    Two-Electron Energy =                 338.9213547249489693
    Total Energy =                       -250.6554440369675376
  Basis Set: (AUG-CC-PVTZ AUX)
    Blend: AUG-CC-PVTZ-RI
    Molecular point group: c1

    Geometry (in Angstrom), charge = 1, multiplicity = 1:

       Center              X                  Y                   Z               Mass
    ------------   -----------------  -----------------  -----------------  -----------------
         N           -1.448649172974    -0.707490920803     0.033435443771    14.003074004430
         C            0.793099827026     0.022370179197    -0.373913456229    12.000000000000
         C           -0.000281172974    -1.180267820803     0.122220543771    12.000000000000
         C           -0.014806172974     1.192300179197     0.194023543771    12.000000000000
         C           -1.463785172974     0.804837179197    -0.069589456229    12.000000000000
         C            2.252837827026    -0.014841820803     0.060445543771    12.000000000000
         H            0.740522827026     0.052057179197    -1.470499456229     1.007825032230
         H            0.128612827026    -2.100531820803    -0.450231456229     1.007825032230
         H            0.200205827026    -1.376930820803     1.178330543771     1.007825032230
         H            0.229228827026     2.146580179197    -0.279256456229     1.007825032230
         H            0.172468827026     1.291716179197     1.269003543771     1.007825032230
         H           -2.001412172974    -1.058840820803     0.821724543771     1.007825032230
         H           -1.900282172974    -1.135455820803    -0.812312456229     1.007825032230
         H           -2.189565172974     1.190219179197     0.647316543771     1.007825032230
         H           -1.784527172974     1.063017179197    -1.079812456229     1.007825032230
         H            2.764409827026    -0.892455820803    -0.343104456229     1.007825032230
         H            2.776711827026     0.872538179197    -0.301673456229     1.007825032230
         H            2.332888827026    -0.037750820803     1.151485543771     1.007825032230

  Basis Set: AUG-CC-PVTZ
    Blend: AUG-CC-PVTZ
  Basis Set: (AUG-CC-PVTZ AUX)
    Blend: AUG-CC-PVTZ-JKFIT
	 Reference Energy          =    -250.6554440369675376 [Eh]
	 Singles Energy            =      -0.0000000000000000 [Eh]
	 Same-Spin Energy          =      -0.2613473138550331 [Eh]
	 Opposite-Spin Energy      =      -0.9377503206763936 [Eh]
	 Correlation Energy        =      -1.1990976345314266 [Eh]
	 Total Energy              =    -251.8545416714989642 [Eh]

	 ================> DF-SCS-MP2 Energies <==================
	-----------------------------------------------------------
	 SCS Same-Spin Scale       =       0.3333333333333333 [-]
	 SCS Opposite-Spin Scale   =       1.2000000000000000 [-]
	 SCS Same-Spin Energy      =      -0.0871157712850110 [Eh]
	 SCS Opposite-Spin Energy  =      -1.1253003848116723 [Eh]
	 SCS Correlation Energy    =      -1.2124161560966833 [Eh]
	 SCS Total Energy          =    -251.8678601930642174 [Eh]
	-----------------------------------------------------------

  Dipole Moment: [D]
     X:    -4.2392      Y:    -1.9156      Z:    -0.0330     Total:     4.6521

*** Psi4 exiting successfully. Buy a developer a beer!
