                               Psi4 1.4a3.dev225

  ==> Input File <==

--------------------------------------------------------------------------
#psi4
#
memory 32 gb

molecule  {
1 1
  N       -1.4684160    -0.7256290     0.0168660
  C        0.7789870     0.0252000    -0.3750600
  C       -0.0143940    -1.1774380     0.1210740
  C       -0.0289190     1.1951300     0.1928770
  C       -1.4778980     0.8076670    -0.0707360
  C        2.2387250    -0.0120120     0.0592990
  H        0.7264100     0.0548870    -1.4716460
  H        0.1204049    -2.1398610    -0.4776031
  H        0.1860930    -1.3741010     1.1771840
  H        0.2151160     2.1494100    -0.2804030
  H        0.1583560     1.2945460     1.2678570
  H       -2.0155250    -1.0560110     0.8205780
  H       -1.9143950    -1.1326260    -0.8134590
  H       -2.2036780     1.1930490     0.6461700
  H       -1.7986400     1.0658470    -1.0809590
  H        2.7502970    -0.8896260    -0.3442510
  H        2.7625990     0.8753680    -0.3028200
  H        2.3187760    -0.0349210     1.1503390
units angstrom
no_reorient  #important for SAPT in psi4, default
symmetry c1  #important for SAPT in psi4, default
}

set PROPERTIES_ORIGIN ["COM"]
properties('MP2/aug-cc-pvtz', properties = ['dipole'])
--------------------------------------------------------------------------

    Molecular point group: c1
  Charge       = 1
  Multiplicity = 1
  Basis Set: AUG-CC-PVTZ
    Blend: AUG-CC-PVTZ
  Basis Set: (AUG-CC-PVTZ AUX)
    Blend: AUG-CC-PVTZ-JKFIT

    Orbital Energies [Eh]
    ---------------------

    Doubly Occupied:

       1A    -15.865816     2A    -11.465196     3A    -11.463953
       4A    -11.403305     5A    -11.396943     6A    -11.359598
       7A     -1.492621     8A     -1.264991     9A     -1.192370
      10A     -1.097334    11A     -1.023063    12A     -0.974979
      13A     -0.933051    14A     -0.890291    15A     -0.827694
      16A     -0.790460    17A     -0.750361    18A     -0.739621
      19A     -0.708559    20A     -0.703460    21A     -0.679663
      22A     -0.654683    23A     -0.638709    24A     -0.628934

  @DF-RHF Final Energy:  -250.65455878262321

   => Energetics <=

    Nuclear Repulsion Energy =            265.6428941008562106
    One-Electron Energy =                -854.7035970959485667
    Two-Electron Energy =                 338.4061442124691439
    Total Energy =                       -250.6545587826232122
  Basis Set: (AUG-CC-PVTZ AUX)
    Blend: AUG-CC-PVTZ-RI
    Molecular point group: c1

    Geometry (in Angstrom), charge = 1, multiplicity = 1:

       Center              X                  Y                   Z               Mass
    ------------   -----------------  -----------------  -----------------  -----------------
         N           -1.453452710168    -0.724555037269     0.020827954231    14.003074004430
         C            0.793950289832     0.026273962731    -0.371098045769    12.000000000000
         C            0.000569289832    -1.176364037269     0.125035954231    12.000000000000
         C           -0.013955710168     1.196203962731     0.196838954231    12.000000000000
         C           -1.462934710168     0.808740962731    -0.066774045769    12.000000000000
         C            2.253688289832    -0.010938037269     0.063260954231    12.000000000000
         H            0.741373289832     0.055960962731    -1.467684045769     1.007825032230
         H            0.135368189832    -2.138787037269    -0.473641145769     1.007825032230
         H            0.201056289832    -1.373027037269     1.181145954231     1.007825032230
         H            0.230079289832     2.150483962731    -0.276441045769     1.007825032230
         H            0.173319289832     1.295619962731     1.271818954231     1.007825032230
         H           -2.000561710168    -1.054937037269     0.824539954231     1.007825032230
         H           -1.899431710168    -1.131552037269    -0.809497045769     1.007825032230
         H           -2.188714710168     1.194122962731     0.650131954231     1.007825032230
         H           -1.783676710168     1.066920962731    -1.076997045769     1.007825032230
         H            2.765260289832    -0.888552037269    -0.340289045769     1.007825032230
         H            2.777562289832     0.876441962731    -0.298858045769     1.007825032230
         H            2.333739289832    -0.033847037269     1.154300954231     1.007825032230

  Basis Set: AUG-CC-PVTZ
    Blend: AUG-CC-PVTZ
  Basis Set: (AUG-CC-PVTZ AUX)
    Blend: AUG-CC-PVTZ-JKFIT
	 Reference Energy          =    -250.6545587826232122 [Eh]
	 Singles Energy            =      -0.0000000000000000 [Eh]
	 Same-Spin Energy          =      -0.2611786397829898 [Eh]
	 Opposite-Spin Energy      =      -0.9378279269715059 [Eh]
	 Correlation Energy        =      -1.1990065667544956 [Eh]
	 Total Energy              =    -251.8535653493777033 [Eh]

	 ================> DF-SCS-MP2 Energies <==================
	-----------------------------------------------------------
	 SCS Same-Spin Scale       =       0.3333333333333333 [-]
	 SCS Opposite-Spin Scale   =       1.2000000000000000 [-]
	 SCS Same-Spin Energy      =      -0.0870595465943299 [Eh]
	 SCS Opposite-Spin Energy  =      -1.1253935123658070 [Eh]
	 SCS Correlation Energy    =      -1.2124530589601370 [Eh]
	 SCS Total Energy          =    -251.8670118415833485 [Eh]
	-----------------------------------------------------------

  Dipole Moment: [D]
     X:    -4.2189      Y:    -1.8624      Z:    -0.0196     Total:     4.6118

*** Psi4 exiting successfully. Buy a developer a beer!
