                               Psi4 1.4a3.dev225

  ==> Input File <==

--------------------------------------------------------------------------
#psi4
#
memory 32 gb

molecule  {
1 1
  N       -1.4684160    -0.7256290     0.0168660
  C        0.7789870     0.0252000    -0.3750600
  C       -0.0143940    -1.1774380     0.1210740
  C       -0.0289190     1.1951300     0.1928770
  C       -1.4903728     0.8060034    -0.0944027
  C        2.2387250    -0.0120120     0.0592990
  H        0.7264100     0.0548870    -1.4716460
  H        0.1145000    -2.0977020    -0.4513780
  H        0.1860930    -1.3741010     1.1771840
  H        0.2151160     2.1494100    -0.2804030
  H        0.1583560     1.2945460     1.2678570
  H       -2.0155250    -1.0560110     0.8205780
  H       -1.9143950    -1.1326260    -0.8134590
  H       -2.2036780     1.1930490     0.6461700
  H       -1.7986400     1.0658470    -1.0809590
  H        2.7502970    -0.8896260    -0.3442510
  H        2.7625990     0.8753680    -0.3028200
  H        2.3187760    -0.0349210     1.1503390
units angstrom
no_reorient  #important for SAPT in psi4, default
symmetry c1  #important for SAPT in psi4, default
}

set PROPERTIES_ORIGIN ["COM"]
properties('MP2/aug-cc-pvtz', properties = ['dipole'])
--------------------------------------------------------------------------

    Molecular point group: c1
  Charge       = 1
  Multiplicity = 1
  Basis Set: AUG-CC-PVTZ
    Blend: AUG-CC-PVTZ
  Basis Set: (AUG-CC-PVTZ AUX)
    Blend: AUG-CC-PVTZ-JKFIT

    Orbital Energies [Eh]
    ---------------------

    Doubly Occupied:

       1A    -15.865707     2A    -11.463118     3A    -11.459954
       4A    -11.402765     5A    -11.397580     6A    -11.359472
       7A     -1.492462     8A     -1.263832     9A     -1.193003
      10A     -1.098642    11A     -1.025163    12A     -0.974817
      13A     -0.934526    14A     -0.891981    15A     -0.828159
      16A     -0.794417    17A     -0.753358    18A     -0.736941
      19A     -0.712161    20A     -0.702773    21A     -0.682400
      22A     -0.653668    23A     -0.638560    24A     -0.628426

  @DF-RHF Final Energy:  -250.65625058243126

   => Energetics <=

    Nuclear Repulsion Energy =            265.6971177180338373
    One-Electron Energy =                -854.7989664575856068
    Two-Electron Energy =                 338.4455981571205143
    Total Energy =                       -250.6562505824312552
  Basis Set: (AUG-CC-PVTZ AUX)
    Blend: AUG-CC-PVTZ-RI
    Molecular point group: c1

    Geometry (in Angstrom), charge = 1, multiplicity = 1:

       Center              X                  Y                   Z               Mass
    ------------   -----------------  -----------------  -----------------  -----------------
         N           -1.451644880020    -0.724816668943     0.023819581865    14.003074004430
         C            0.795758119980     0.026012331057    -0.368106418135    12.000000000000
         C            0.002377119980    -1.176625668943     0.128027581865    12.000000000000
         C           -0.012147880020     1.195942331057     0.199830581865    12.000000000000
         C           -1.473601680020     0.806815731057    -0.087449118135    12.000000000000
         C            2.255496119980    -0.011199668943     0.066252581865    12.000000000000
         H            0.743181119980     0.055699331057    -1.464692418135     1.007825032230
         H            0.131271119980    -2.096889668943    -0.444424418135     1.007825032230
         H            0.202864119980    -1.373288668943     1.184137581865     1.007825032230
         H            0.231887119980     2.150222331057    -0.273449418135     1.007825032230
         H            0.175127119980     1.295358331057     1.274810581865     1.007825032230
         H           -1.998753880020    -1.055198668943     0.827531581865     1.007825032230
         H           -1.897623880020    -1.131813668943    -0.806505418135     1.007825032230
         H           -2.186906880020     1.193861331057     0.653123581865     1.007825032230
         H           -1.781868880020     1.066659331057    -1.074005418135     1.007825032230
         H            2.767068119980    -0.888813668943    -0.337297418135     1.007825032230
         H            2.779370119980     0.876180331057    -0.295866418135     1.007825032230
         H            2.335547119980    -0.034108668943     1.157292581865     1.007825032230

  Basis Set: AUG-CC-PVTZ
    Blend: AUG-CC-PVTZ
  Basis Set: (AUG-CC-PVTZ AUX)
    Blend: AUG-CC-PVTZ-JKFIT
	 Reference Energy          =    -250.6562505824312552 [Eh]
	 Singles Energy            =      -0.0000000000000000 [Eh]
	 Same-Spin Energy          =      -0.2609967763227563 [Eh]
	 Opposite-Spin Energy      =      -0.9373587164837274 [Eh]
	 Correlation Energy        =      -1.1983554928064837 [Eh]
	 Total Energy              =    -251.8546060752377400 [Eh]

	 ================> DF-SCS-MP2 Energies <==================
	-----------------------------------------------------------
	 SCS Same-Spin Scale       =       0.3333333333333333 [-]
	 SCS Opposite-Spin Scale   =       1.2000000000000000 [-]
	 SCS Same-Spin Energy      =      -0.0869989254409188 [Eh]
	 SCS Opposite-Spin Energy  =      -1.1248304597804728 [Eh]
	 SCS Correlation Energy    =      -1.2118293852213915 [Eh]
	 SCS Total Energy          =    -251.8680799676526476 [Eh]
	-----------------------------------------------------------

  Dipole Moment: [D]
     X:    -4.2206      Y:    -1.8675      Z:    -0.0155     Total:     4.6154

*** Psi4 exiting successfully. Buy a developer a beer!
