                               Psi4 1.4a3.dev225

  ==> Input File <==

--------------------------------------------------------------------------
#psi4
#
memory 32 gb

molecule  {
1 1
  N       -1.4684160    -0.7256290     0.0168660
  C        0.7789870     0.0252000    -0.3750600
  C       -0.0143940    -1.1774380     0.1210740
  C       -0.0289190     1.1951300     0.1928770
  C       -1.4778980     0.8076670    -0.0707360
  C        2.2387250    -0.0120120     0.0592990
  H        0.7264100     0.0548870    -1.4716460
  H        0.1145000    -2.0977020    -0.4513780
  H        0.1860930    -1.3741010     1.1771840
  H        0.2151160     2.1494100    -0.2804030
  H        0.1583560     1.2945460     1.2678570
  H       -2.0155250    -1.0560110     0.8205780
  H       -1.9143950    -1.1326260    -0.8134590
  H       -2.2036780     1.1930490     0.6461700
  H       -1.7986400     1.0658470    -1.0809590
  H        2.7502970    -0.8896260    -0.3442510
  H        2.7625990     0.8753680    -0.3028200
  H        2.3173128    -0.0345023     1.1303970
units angstrom
no_reorient  #important for SAPT in psi4, default
symmetry c1  #important for SAPT in psi4, default
}

set PROPERTIES_ORIGIN ["COM"]
properties('MP2/aug-cc-pvtz', properties = ['dipole'])
--------------------------------------------------------------------------

    Molecular point group: c1
  Charge       = 1
  Multiplicity = 1
  Basis Set: AUG-CC-PVTZ
    Blend: AUG-CC-PVTZ
  Basis Set: (AUG-CC-PVTZ AUX)
    Blend: AUG-CC-PVTZ-JKFIT

    Orbital Energies [Eh]
    ---------------------

    Doubly Occupied:

       1A    -15.865601     2A    -11.463814     3A    -11.460037
       4A    -11.402873     5A    -11.396704     6A    -11.357192
       7A     -1.492694     8A     -1.265144     9A     -1.194092
      10A     -1.100153    11A     -1.023997    12A     -0.975242
      13A     -0.935412    14A     -0.892645    15A     -0.827763
      16A     -0.791686    17A     -0.753752    18A     -0.739717
      19A     -0.713313    20A     -0.703625    21A     -0.680910
      22A     -0.654620    23A     -0.639518    24A     -0.629523

  @DF-RHF Final Energy:  -250.65691015275866

   => Energetics <=

    Nuclear Repulsion Energy =            265.9641215364379150
    One-Electron Energy =                -855.3220073707782376
    Two-Electron Energy =                 338.7009756815816672
    Total Energy =                       -250.6569101527586554
  Basis Set: (AUG-CC-PVTZ AUX)
    Blend: AUG-CC-PVTZ-RI
    Molecular point group: c1

    Geometry (in Angstrom), charge = 1, multiplicity = 1:

       Center              X                  Y                   Z               Mass
    ------------   -----------------  -----------------  -----------------  -----------------
         N           -1.453366461428    -0.725053438893     0.020754406171    14.003074004430
         C            0.794036538572     0.025775561107    -0.371171593829    12.000000000000
         C            0.000655538572    -1.176862438893     0.124962406171    12.000000000000
         C           -0.013869461428     1.195705561107     0.196765406171    12.000000000000
         C           -1.462848461428     0.808242561107    -0.066847593829    12.000000000000
         C            2.253774538572    -0.011436438893     0.063187406171    12.000000000000
         H            0.741459538572     0.055462561107    -1.467757593829     1.007825032230
         H            0.129549538572    -2.097126438893    -0.447489593829     1.007825032230
         H            0.201142538572    -1.373525438893     1.181072406171     1.007825032230
         H            0.230165538572     2.149985561107    -0.276514593829     1.007825032230
         H            0.173405538572     1.295121561107     1.271745406171     1.007825032230
         H           -2.000475461428    -1.055435438893     0.824466406171     1.007825032230
         H           -1.899345461428    -1.132050438893    -0.809570593829     1.007825032230
         H           -2.188628461428     1.193624561107     0.650058406171     1.007825032230
         H           -1.783590461428     1.066422561107    -1.077070593829     1.007825032230
         H            2.765346538572    -0.889050438893    -0.340362593829     1.007825032230
         H            2.777648538572     0.875943561107    -0.298931593829     1.007825032230
         H            2.332362338572    -0.033926738893     1.134285406171     1.007825032230

  Basis Set: AUG-CC-PVTZ
    Blend: AUG-CC-PVTZ
  Basis Set: (AUG-CC-PVTZ AUX)
    Blend: AUG-CC-PVTZ-JKFIT
	 Reference Energy          =    -250.6569101527586554 [Eh]
	 Singles Energy            =      -0.0000000000000000 [Eh]
	 Same-Spin Energy          =      -0.2610960784589175 [Eh]
	 Opposite-Spin Energy      =      -0.9372885182079351 [Eh]
	 Correlation Energy        =      -1.1983845966668527 [Eh]
	 Total Energy              =    -251.8552947494254965 [Eh]

	 ================> DF-SCS-MP2 Energies <==================
	-----------------------------------------------------------
	 SCS Same-Spin Scale       =       0.3333333333333333 [-]
	 SCS Opposite-Spin Scale   =       1.2000000000000000 [-]
	 SCS Same-Spin Energy      =      -0.0870320261529725 [Eh]
	 SCS Opposite-Spin Energy  =      -1.1247462218495221 [Eh]
	 SCS Correlation Energy    =      -1.2117782480024946 [Eh]
	 SCS Total Energy          =    -251.8686884007611582 [Eh]
	-----------------------------------------------------------

  Dipole Moment: [D]
     X:    -4.2200      Y:    -1.8679      Z:    -0.0078     Total:     4.6149

*** Psi4 exiting successfully. Buy a developer a beer!
