                               Psi4 1.4a3.dev225

  ==> Input File <==

--------------------------------------------------------------------------
#psi4
#
memory 32 gb

molecule  {
1 1
  N       -1.4684160    -0.7256290     0.0168660
  C        0.7789870     0.0252000    -0.3750600
  C       -0.0143940    -1.1774380     0.1210740
  C       -0.0289190     1.1951300     0.1928770
  C       -1.4778980     0.8076670    -0.0707360
  C        2.2387250    -0.0120120     0.0592990
  H        0.7264100     0.0548870    -1.4716460
  H        0.1145000    -2.0977020    -0.4513780
  H        0.1860930    -1.3741010     1.1771840
  H        0.2151160     2.1494100    -0.2804030
  H        0.1583560     1.2945460     1.2678570
  H       -2.0155250    -1.0560110     0.8205780
  H       -1.9143950    -1.1326260    -0.8134590
  H       -2.3367854     1.2637277     0.7776499
  H       -1.7986400     1.0658470    -1.0809590
  H        2.7502970    -0.8896260    -0.3442510
  H        2.7625990     0.8753680    -0.3028200
  H        2.3187760    -0.0349210     1.1503390
units angstrom
no_reorient  #important for SAPT in psi4, default
symmetry c1  #important for SAPT in psi4, default
}

set PROPERTIES_ORIGIN ["COM"]
properties('MP2/aug-cc-pvtz', properties = ['dipole'])
--------------------------------------------------------------------------

    Molecular point group: c1
  Charge       = 1
  Multiplicity = 1
  Basis Set: AUG-CC-PVTZ
    Blend: AUG-CC-PVTZ
  Basis Set: (AUG-CC-PVTZ AUX)
    Blend: AUG-CC-PVTZ-JKFIT

    Orbital Energies [Eh]
    ---------------------

    Doubly Occupied:

       1A    -15.866612     2A    -11.482932     3A    -11.460595
       4A    -11.403992     5A    -11.397884     6A    -11.360312
       7A     -1.492700     8A     -1.265687     9A     -1.186951
      10A     -1.099551    11A     -1.014968    12A     -0.973639
      13A     -0.935304    14A     -0.885886    15A     -0.828180
      16A     -0.783896    17A     -0.745943    18A     -0.729107
      19A     -0.711696    20A     -0.704622    21A     -0.671437
      22A     -0.654334    23A     -0.639239    24A     -0.626093

  @DF-RHF Final Energy:  -250.63553973327254

   => Energetics <=

    Nuclear Repulsion Energy =            265.0162160842348840
    One-Electron Energy =                -853.4603927500849068
    Two-Electron Energy =                 337.8086369325774854
    Total Energy =                       -250.6355397332725374
  Basis Set: (AUG-CC-PVTZ AUX)
    Blend: AUG-CC-PVTZ-RI
    Molecular point group: c1

    Geometry (in Angstrom), charge = 1, multiplicity = 1:

       Center              X                  Y                   Z               Mass
    ------------   -----------------  -----------------  -----------------  -----------------
         N           -1.451825474406    -0.725875881113     0.018981907400    14.003074004430
         C            0.795577525594     0.024953118887    -0.372944092600    12.000000000000
         C            0.002196525594    -1.177684881113     0.123189907400    12.000000000000
         C           -0.012328474406     1.194883118887     0.194992907400    12.000000000000
         C           -1.461307474406     0.807420118887    -0.068620092600    12.000000000000
         C            2.255315525594    -0.012258881113     0.061414907400    12.000000000000
         H            0.743000525594     0.054640118887    -1.469530092600     1.007825032230
         H            0.131090525594    -2.097948881113    -0.449262092600     1.007825032230
         H            0.202683525594    -1.374347881113     1.179299907400     1.007825032230
         H            0.231706525594     2.149163118887    -0.278287092600     1.007825032230
         H            0.174946525594     1.294299118887     1.269972907400     1.007825032230
         H           -1.998934474406    -1.056257881113     0.822693907400     1.007825032230
         H           -1.897804474406    -1.132872881113    -0.811343092600     1.007825032230
         H           -2.320194874406     1.263480818887     0.779765807400     1.007825032230
         H           -1.782049474406     1.065600118887    -1.078843092600     1.007825032230
         H            2.766887525594    -0.889872881113    -0.342135092600     1.007825032230
         H            2.779189525594     0.875121118887    -0.300704092600     1.007825032230
         H            2.335366525594    -0.035167881113     1.152454907400     1.007825032230

  Basis Set: AUG-CC-PVTZ
    Blend: AUG-CC-PVTZ
  Basis Set: (AUG-CC-PVTZ AUX)
    Blend: AUG-CC-PVTZ-JKFIT
	 Reference Energy          =    -250.6355397332725374 [Eh]
	 Singles Energy            =      -0.0000000000000000 [Eh]
	 Same-Spin Energy          =      -0.2614359830966472 [Eh]
	 Opposite-Spin Energy      =      -0.9393900450258186 [Eh]
	 Correlation Energy        =      -1.2008260281224659 [Eh]
	 Total Energy              =    -251.8363657613950011 [Eh]

	 ================> DF-SCS-MP2 Energies <==================
	-----------------------------------------------------------
	 SCS Same-Spin Scale       =       0.3333333333333333 [-]
	 SCS Opposite-Spin Scale   =       1.2000000000000000 [-]
	 SCS Same-Spin Energy      =      -0.0871453276988824 [Eh]
	 SCS Opposite-Spin Energy  =      -1.1272680540309823 [Eh]
	 SCS Correlation Energy    =      -1.2144133817298646 [Eh]
	 SCS Total Energy          =    -251.8499531150023927 [Eh]
	-----------------------------------------------------------

  Dipole Moment: [D]
     X:    -4.1819      Y:    -1.8708      Z:    -0.0055     Total:     4.5813

*** Psi4 exiting successfully. Buy a developer a beer!
