                               Psi4 1.4a3.dev225

  ==> Input File <==

--------------------------------------------------------------------------
#psi4
#
memory 32 gb

molecule  {
1 1
  N       -1.4684160    -0.7256290     0.0168660
  C        0.7757742     0.0478497    -0.3615088
  C       -0.0143940    -1.1774380     0.1210740
  C       -0.0289190     1.1951300     0.1928770
  C       -1.4778980     0.8076670    -0.0707360
  C        2.2387250    -0.0120120     0.0592990
  H        0.7264100     0.0548870    -1.4716460
  H        0.1145000    -2.0977020    -0.4513780
  H        0.1860930    -1.3741010     1.1771840
  H        0.2151160     2.1494100    -0.2804030
  H        0.1583560     1.2945460     1.2678570
  H       -2.0155250    -1.0560110     0.8205780
  H       -1.9143950    -1.1326260    -0.8134590
  H       -2.2036780     1.1930490     0.6461700
  H       -1.7986400     1.0658470    -1.0809590
  H        2.7502970    -0.8896260    -0.3442510
  H        2.7625990     0.8753680    -0.3028200
  H        2.3187760    -0.0349210     1.1503390
units angstrom
no_reorient  #important for SAPT in psi4, default
symmetry c1  #important for SAPT in psi4, default
}

set PROPERTIES_ORIGIN ["COM"]
properties('MP2/aug-cc-pvtz', properties = ['dipole'])
--------------------------------------------------------------------------

    Molecular point group: c1
  Charge       = 1
  Multiplicity = 1
  Basis Set: AUG-CC-PVTZ
    Blend: AUG-CC-PVTZ
  Basis Set: (AUG-CC-PVTZ AUX)
    Blend: AUG-CC-PVTZ-JKFIT

    Orbital Energies [Eh]
    ---------------------

    Doubly Occupied:

       1A    -15.865483     2A    -11.464246     3A    -11.460020
       4A    -11.403726     5A    -11.396150     6A    -11.359659
       7A     -1.492609     8A     -1.267109     9A     -1.193380
      10A     -1.098770    11A     -1.026388    12A     -0.973644
      13A     -0.934578    14A     -0.891670    15A     -0.827449
      16A     -0.791503    17A     -0.754045    18A     -0.740640
      19A     -0.712487    20A     -0.703969    21A     -0.680144
      22A     -0.653426    23A     -0.635846    24A     -0.632258

  @DF-RHF Final Energy:  -250.65609575344374

   => Energetics <=

    Nuclear Repulsion Energy =            266.0010981341148977
    One-Electron Energy =                -855.3959943881407071
    Two-Electron Energy =                 338.7388005005820446
    Total Energy =                       -250.6560957534437080
  Basis Set: (AUG-CC-PVTZ AUX)
    Blend: AUG-CC-PVTZ-RI
    Molecular point group: c1

    Geometry (in Angstrom), charge = 1, multiplicity = 1:

       Center              X                  Y                   Z               Mass
    ------------   -----------------  -----------------  -----------------  -----------------
         N           -1.452935796463    -0.728205401266     0.018632235815    14.003074004430
         C            0.791254403537     0.045273298734    -0.359742564185    12.000000000000
         C            0.001086203537    -1.180014401266     0.122840235815    12.000000000000
         C           -0.013438796463     1.192553598734     0.194643235815    12.000000000000
         C           -1.462417796463     0.805090598734    -0.068969764185    12.000000000000
         C            2.254205203537    -0.014588401266     0.061065235815    12.000000000000
         H            0.741890203537     0.052310598734    -1.469879764185     1.007825032230
         H            0.129980203537    -2.100278401266    -0.449611764185     1.007825032230
         H            0.201573203537    -1.376677401266     1.178950235815     1.007825032230
         H            0.230596203537     2.146833598734    -0.278636764185     1.007825032230
         H            0.173836203537     1.291969598734     1.269623235815     1.007825032230
         H           -2.000044796463    -1.058587401266     0.822344235815     1.007825032230
         H           -1.898914796463    -1.135202401266    -0.811692764185     1.007825032230
         H           -2.188197796463     1.190472598734     0.647936235815     1.007825032230
         H           -1.783159796463     1.063270598734    -1.079192764185     1.007825032230
         H            2.765777203537    -0.892202401266    -0.342484764185     1.007825032230
         H            2.778079203537     0.872791598734    -0.301053764185     1.007825032230
         H            2.334256203537    -0.037497401266     1.152105235815     1.007825032230

  Basis Set: AUG-CC-PVTZ
    Blend: AUG-CC-PVTZ
  Basis Set: (AUG-CC-PVTZ AUX)
    Blend: AUG-CC-PVTZ-JKFIT
	 Reference Energy          =    -250.6560957534437364 [Eh]
	 Singles Energy            =      -0.0000000000000000 [Eh]
	 Same-Spin Energy          =      -0.2611809504053292 [Eh]
	 Opposite-Spin Energy      =      -0.9375115161411887 [Eh]
	 Correlation Energy        =      -1.1986924665465177 [Eh]
	 Total Energy              =    -251.8547882199902403 [Eh]

	 ================> DF-SCS-MP2 Energies <==================
	-----------------------------------------------------------
	 SCS Same-Spin Scale       =       0.3333333333333333 [-]
	 SCS Opposite-Spin Scale   =       1.2000000000000000 [-]
	 SCS Same-Spin Energy      =      -0.0870603168017764 [Eh]
	 SCS Opposite-Spin Energy  =      -1.1250138193694263 [Eh]
	 SCS Correlation Energy    =      -1.2120741361712026 [Eh]
	 SCS Total Energy          =    -251.8681698896149328 [Eh]
	-----------------------------------------------------------

  Dipole Moment: [D]
     X:    -4.2237      Y:    -1.8743      Z:    -0.0199     Total:     4.6209

*** Psi4 exiting successfully. Buy a developer a beer!
