                               Psi4 1.4a3.dev225

  ==> Input File <==

--------------------------------------------------------------------------
#psi4
#
memory 32 gb

molecule  {
1 1
  N       -1.4684160    -0.7256290     0.0168660
  C        0.7789870     0.0252000    -0.3750600
  C       -0.0143940    -1.1774380     0.1210740
  C       -0.0022134     1.1612329     0.2906396
  C       -1.4778980     0.8076670    -0.0707360
  C        2.2387250    -0.0120120     0.0592990
  H        0.7264100     0.0548870    -1.4716460
  H        0.1145000    -2.0977020    -0.4513780
  H        0.1860930    -1.3741010     1.1771840
  H        0.2151160     2.1494100    -0.2804030
  H        0.1583560     1.2945460     1.2678570
  H       -2.0155250    -1.0560110     0.8205780
  H       -1.9143950    -1.1326260    -0.8134590
  H       -2.2036780     1.1930490     0.6461700
  H       -1.7986400     1.0658470    -1.0809590
  H        2.7502970    -0.8896260    -0.3442510
  H        2.7625990     0.8753680    -0.3028200
  H        2.3187760    -0.0349210     1.1503390
units angstrom
no_reorient  #important for SAPT in psi4, default
symmetry c1  #important for SAPT in psi4, default
}

set PROPERTIES_ORIGIN ["COM"]
properties('MP2/aug-cc-pvtz', properties = ['dipole'])
--------------------------------------------------------------------------

    Molecular point group: c1
  Charge       = 1
  Multiplicity = 1
  Basis Set: AUG-CC-PVTZ
    Blend: AUG-CC-PVTZ
  Basis Set: (AUG-CC-PVTZ AUX)
    Blend: AUG-CC-PVTZ-JKFIT

    Orbital Energies [Eh]
    ---------------------

    Doubly Occupied:

       1A    -15.863885     2A    -11.465073     3A    -11.458997
       4A    -11.403787     5A    -11.397292     6A    -11.359148
       7A     -1.491455     8A     -1.265124     9A     -1.189009
      10A     -1.098637    11A     -1.027373    12A     -0.976940
      13A     -0.934145    14A     -0.890614    15A     -0.830493
      16A     -0.796033    17A     -0.750834    18A     -0.734263
      19A     -0.712569    20A     -0.710496    21A     -0.675985
      22A     -0.650867    23A     -0.642953    24A     -0.624003

  @DF-RHF Final Energy:  -250.64266134396959

   => Energetics <=

    Nuclear Repulsion Energy =            265.8751602673707453
    One-Electron Energy =                -855.1356936145318741
    Two-Electron Energy =                 338.6178720031914509
    Total Energy =                       -250.6426613439696212
  Basis Set: (AUG-CC-PVTZ AUX)
    Blend: AUG-CC-PVTZ-RI
    Molecular point group: c1

    Geometry (in Angstrom), charge = 1, multiplicity = 1:

       Center              X                  Y                   Z               Mass
    ------------   -----------------  -----------------  -----------------  -----------------
         N           -1.457105754845    -0.720324037201     0.006895042875    14.003074004430
         C            0.790297245155     0.030504962799    -0.385030957125    12.000000000000
         C           -0.003083754845    -1.172133037201     0.111103042875    12.000000000000
         C            0.009096845155     1.166537862799     0.280668642875    12.000000000000
         C           -1.466587754845     0.812971962799    -0.080706957125    12.000000000000
         C            2.250035245155    -0.006707037201     0.049328042875    12.000000000000
         H            0.737720245155     0.060191962799    -1.481616957125     1.007825032230
         H            0.125810245155    -2.092397037201    -0.461348957125     1.007825032230
         H            0.197403245155    -1.368796037201     1.167213042875     1.007825032230
         H            0.226426245155     2.154714962799    -0.290373957125     1.007825032230
         H            0.169666245155     1.299850962799     1.257886042875     1.007825032230
         H           -2.004214754845    -1.050706037201     0.810607042875     1.007825032230
         H           -1.903084754845    -1.127321037201    -0.823429957125     1.007825032230
         H           -2.192367754845     1.198353962799     0.636199042875     1.007825032230
         H           -1.787329754845     1.071151962799    -1.090929957125     1.007825032230
         H            2.761607245155    -0.884321037201    -0.354221957125     1.007825032230
         H            2.773909245155     0.880672962799    -0.312790957125     1.007825032230
         H            2.330086245155    -0.029616037201     1.140368042875     1.007825032230

  Basis Set: AUG-CC-PVTZ
    Blend: AUG-CC-PVTZ
  Basis Set: (AUG-CC-PVTZ AUX)
    Blend: AUG-CC-PVTZ-JKFIT
	 Reference Energy          =    -250.6426613439695927 [Eh]
	 Singles Energy            =      -0.0000000000000000 [Eh]
	 Same-Spin Energy          =      -0.2613104434004199 [Eh]
	 Opposite-Spin Energy      =      -0.9381371819128863 [Eh]
	 Correlation Energy        =      -1.1994476253133062 [Eh]
	 Total Energy              =    -251.8421089692828900 [Eh]

	 ================> DF-SCS-MP2 Energies <==================
	-----------------------------------------------------------
	 SCS Same-Spin Scale       =       0.3333333333333333 [-]
	 SCS Opposite-Spin Scale   =       1.2000000000000000 [-]
	 SCS Same-Spin Energy      =      -0.0871034811334733 [Eh]
	 SCS Opposite-Spin Energy  =      -1.1257646182954635 [Eh]
	 SCS Correlation Energy    =      -1.2128680994289367 [Eh]
	 SCS Total Energy          =    -251.8555294433985239 [Eh]
	-----------------------------------------------------------

  Dipole Moment: [D]
     X:    -4.2265      Y:    -1.8347      Z:    -0.0533     Total:     4.6079

*** Psi4 exiting successfully. Buy a developer a beer!
