                               Psi4 1.4a3.dev225

  ==> Input File <==

--------------------------------------------------------------------------
#psi4
#
memory 32 gb

molecule  {
1 1
  N       -1.4684160    -0.7256290     0.0168660
  C        0.7789870     0.0252000    -0.3750600
  C       -0.0143940    -1.1774380     0.1210740
  C       -0.0289190     1.1951300     0.1928770
  C       -1.4778980     0.8076670    -0.0707360
  C        2.2387250    -0.0120120     0.0592990
  H        0.7264100     0.0548870    -1.4716460
  H        0.1145000    -2.0977020    -0.4513780
  H        0.1860930    -1.3741010     1.1771840
  H        0.2151160     2.1494100    -0.2804030
  H        0.1583560     1.2945460     1.2678570
  H       -2.0155250    -1.0560110     0.8205780
  H       -1.9143950    -1.1326260    -0.8134590
  H       -2.2036780     1.1930490     0.6461700
  H       -1.7986400     1.0658470    -1.0809590
  H        2.7502970    -0.8896260    -0.3442510
  H        2.7625990     0.8753680    -0.3028200
  H        2.3041443    -0.0307337     0.9509189
units angstrom
no_reorient  #important for SAPT in psi4, default
symmetry c1  #important for SAPT in psi4, default
}

set PROPERTIES_ORIGIN ["COM"]
properties('MP2/aug-cc-pvtz', properties = ['dipole'])
--------------------------------------------------------------------------

    Molecular point group: c1
  Charge       = 1
  Multiplicity = 1
  Basis Set: AUG-CC-PVTZ
    Blend: AUG-CC-PVTZ
  Basis Set: (AUG-CC-PVTZ AUX)
    Blend: AUG-CC-PVTZ-JKFIT

    Orbital Energies [Eh]
    ---------------------

    Doubly Occupied:

       1A    -15.865623     2A    -11.463822     3A    -11.460134
       4A    -11.401600     5A    -11.396765     6A    -11.335223
       7A     -1.492698     8A     -1.267186     9A     -1.195356
      10A     -1.116309    11A     -1.025984    12A     -0.979162
      13A     -0.938926    14A     -0.895442    15A     -0.828115
      16A     -0.792457    17A     -0.755084    18A     -0.744862
      19A     -0.728243    20A     -0.703295    21A     -0.688378
      22A     -0.653631    23A     -0.644975    24A     -0.629503

  @DF-RHF Final Energy:  -250.62281073778863

   => Energetics <=

    Nuclear Repulsion Energy =            266.8132472692458350
    One-Electron Energy =                -856.8665679301100226
    Two-Electron Energy =                 339.4305099230755900
    Total Energy =                       -250.6228107377885976
  Basis Set: (AUG-CC-PVTZ AUX)
    Blend: AUG-CC-PVTZ-RI
    Molecular point group: c1

    Geometry (in Angstrom), charge = 1, multiplicity = 1:

       Center              X                  Y                   Z               Mass
    ------------   -----------------  -----------------  -----------------  -----------------
         N           -1.453212314966    -0.725097552980     0.022855322297    14.003074004430
         C            0.794190685034     0.025731447020    -0.369070677703    12.000000000000
         C            0.000809685034    -1.176906552980     0.127063322297    12.000000000000
         C           -0.013715314966     1.195661447020     0.198866322297    12.000000000000
         C           -1.462694314966     0.808198447020    -0.064746677703    12.000000000000
         C            2.253928685034    -0.011480552980     0.065288322297    12.000000000000
         H            0.741613685034     0.055418447020    -1.465656677703     1.007825032230
         H            0.129703685034    -2.097170552980    -0.445388677703     1.007825032230
         H            0.201296685034    -1.373569552980     1.183173322297     1.007825032230
         H            0.230319685034     2.149941447020    -0.274413677703     1.007825032230
         H            0.173559685034     1.295077447020     1.273846322297     1.007825032230
         H           -2.000321314966    -1.055479552980     0.826567322297     1.007825032230
         H           -1.899191314966    -1.132094552980    -0.807469677703     1.007825032230
         H           -2.188474314966     1.193580447020     0.652159322297     1.007825032230
         H           -1.783436314966     1.066378447020    -1.074969677703     1.007825032230
         H            2.765500685034    -0.889094552980    -0.338261677703     1.007825032230
         H            2.777802685034     0.875899447020    -0.296830677703     1.007825032230
         H            2.319347985034    -0.030202252980     0.956908222297     1.007825032230

  Basis Set: AUG-CC-PVTZ
    Blend: AUG-CC-PVTZ
  Basis Set: (AUG-CC-PVTZ AUX)
    Blend: AUG-CC-PVTZ-JKFIT
	 Reference Energy          =    -250.6228107377886261 [Eh]
	 Singles Energy            =      -0.0000000000000000 [Eh]
	 Same-Spin Energy          =      -0.2611874415026666 [Eh]
	 Opposite-Spin Energy      =      -0.9368039901727218 [Eh]
	 Correlation Energy        =      -1.1979914316753884 [Eh]
	 Total Energy              =    -251.8208021694640024 [Eh]

	 ================> DF-SCS-MP2 Energies <==================
	-----------------------------------------------------------
	 SCS Same-Spin Scale       =       0.3333333333333333 [-]
	 SCS Opposite-Spin Scale   =       1.2000000000000000 [-]
	 SCS Same-Spin Energy      =      -0.0870624805008889 [Eh]
	 SCS Opposite-Spin Energy  =      -1.1241647882072661 [Eh]
	 SCS Correlation Energy    =      -1.2112272687081549 [Eh]
	 SCS Total Energy          =    -251.8340380064967690 [Eh]
	-----------------------------------------------------------

  Dipole Moment: [D]
     X:    -4.2196      Y:    -1.8722      Z:     0.0463     Total:     4.6165

*** Psi4 exiting successfully. Buy a developer a beer!
