                               Psi4 1.4a3.dev225

  ==> Input File <==

--------------------------------------------------------------------------
#psi4
#
memory 32 gb

molecule  {
1 1
  N       -1.4684160    -0.7256290     0.0168660
  C        0.7789870     0.0252000    -0.3750600
  C       -0.0143940    -1.1774380     0.1210740
  C       -0.0289190     1.1951300     0.1928770
  C       -1.4778980     0.8076670    -0.0707360
  C        2.2655214    -0.0097881    -0.0435802
  H        0.7264100     0.0548870    -1.4716460
  H        0.1145000    -2.0977020    -0.4513780
  H        0.1860930    -1.3741010     1.1771840
  H        0.2151160     2.1494100    -0.2804030
  H        0.1583560     1.2945460     1.2678570
  H       -2.0155250    -1.0560110     0.8205780
  H       -1.9143950    -1.1326260    -0.8134590
  H       -2.2036780     1.1930490     0.6461700
  H       -1.7986400     1.0658470    -1.0809590
  H        2.7502970    -0.8896260    -0.3442510
  H        2.7625990     0.8753680    -0.3028200
  H        2.3187760    -0.0349210     1.1503390
units angstrom
no_reorient  #important for SAPT in psi4, default
symmetry c1  #important for SAPT in psi4, default
}

set PROPERTIES_ORIGIN ["COM"]
properties('MP2/aug-cc-pvtz', properties = ['dipole'])
--------------------------------------------------------------------------

    Molecular point group: c1
  Charge       = 1
  Multiplicity = 1
  Basis Set: AUG-CC-PVTZ
    Blend: AUG-CC-PVTZ
  Basis Set: (AUG-CC-PVTZ AUX)
    Blend: AUG-CC-PVTZ-JKFIT

    Orbital Energies [Eh]
    ---------------------

    Doubly Occupied:

       1A    -15.866529     2A    -11.464586     3A    -11.461126
       4A    -11.403782     5A    -11.397719     6A    -11.361996
       7A     -1.493356     8A     -1.264769     9A     -1.194480
      10A     -1.101708    11A     -1.024543    12A     -0.974694
      13A     -0.935629    14A     -0.892983    15A     -0.827635
      16A     -0.791967    17A     -0.755031    18A     -0.749554
      19A     -0.714295    20A     -0.703779    21A     -0.671937
      22A     -0.663021    23A     -0.643260    24A     -0.611207

  @DF-RHF Final Energy:  -250.64596768226741

   => Energetics <=

    Nuclear Repulsion Energy =            265.6035228639854040
    One-Electron Energy =                -854.5598122585046212
    Two-Electron Energy =                 338.3103217122517776
    Total Energy =                       -250.6459676822674396
  Basis Set: (AUG-CC-PVTZ AUX)
    Blend: AUG-CC-PVTZ-RI
    Molecular point group: c1

    Geometry (in Angstrom), charge = 1, multiplicity = 1:

       Center              X                  Y                   Z               Mass
    ------------   -----------------  -----------------  -----------------  -----------------
         N           -1.457118410342    -0.725358499830     0.034860039520    14.003074004430
         C            0.790284589658     0.025470500170    -0.357065960480    12.000000000000
         C           -0.003096410342    -1.177167499830     0.139068039520    12.000000000000
         C           -0.017621410342     1.195400500170     0.210871039520    12.000000000000
         C           -1.466600410342     0.807937500170    -0.052741960480    12.000000000000
         C            2.276818989658    -0.009517599830    -0.025586160480    12.000000000000
         H            0.737707589658     0.055157500170    -1.453651960480     1.007825032230
         H            0.125797589658    -2.097431499830    -0.433383960480     1.007825032230
         H            0.197390589658    -1.373830499830     1.195178039520     1.007825032230
         H            0.226413589658     2.149680500170    -0.262408960480     1.007825032230
         H            0.169653589658     1.294816500170     1.285851039520     1.007825032230
         H           -2.004227410342    -1.055740499830     0.838572039520     1.007825032230
         H           -1.903097410342    -1.132355499830    -0.795464960480     1.007825032230
         H           -2.192380410342     1.193319500170     0.664164039520     1.007825032230
         H           -1.787342410342     1.066117500170    -1.062964960480     1.007825032230
         H            2.761594589658    -0.889355499830    -0.326256960480     1.007825032230
         H            2.773896589658     0.875638500170    -0.284825960480     1.007825032230
         H            2.330073589658    -0.034650499830     1.168333039520     1.007825032230

  Basis Set: AUG-CC-PVTZ
    Blend: AUG-CC-PVTZ
  Basis Set: (AUG-CC-PVTZ AUX)
    Blend: AUG-CC-PVTZ-JKFIT
	 Reference Energy          =    -250.6459676822674112 [Eh]
	 Singles Energy            =      -0.0000000000000000 [Eh]
	 Same-Spin Energy          =      -0.2611867317857200 [Eh]
	 Opposite-Spin Energy      =      -0.9377754775581231 [Eh]
	 Correlation Energy        =      -1.1989622093438430 [Eh]
	 Total Energy              =    -251.8449298916112582 [Eh]

	 ================> DF-SCS-MP2 Energies <==================
	-----------------------------------------------------------
	 SCS Same-Spin Scale       =       0.3333333333333333 [-]
	 SCS Opposite-Spin Scale   =       1.2000000000000000 [-]
	 SCS Same-Spin Energy      =      -0.0870622439285733 [Eh]
	 SCS Opposite-Spin Energy  =      -1.1253305730697476 [Eh]
	 SCS Correlation Energy    =      -1.2123928169983209 [Eh]
	 SCS Total Energy          =    -251.8583604992657285 [Eh]
	-----------------------------------------------------------

  Dipole Moment: [D]
     X:    -4.2596      Y:    -1.8708      Z:     0.0055     Total:     4.6523

*** Psi4 exiting successfully. Buy a developer a beer!
