                               Psi4 1.4a3.dev225

  ==> Input File <==

--------------------------------------------------------------------------
#psi4
#
memory 32 gb

molecule  {
0 1
  S       -1.3055980     0.0000010    -0.0000040
  C        1.2766570     0.7093650     0.2807600
  C        1.2766500    -0.7093720    -0.2807680
  C       -0.0542300     1.3297750    -0.1396080
  C       -0.0542340    -1.3297710     0.1396230
  H        1.3396290     0.6711660     1.3740810
  H        2.1212810     1.3027060    -0.0855190
  H        1.3396020    -0.6711730    -1.3740910
  H        2.1212770    -1.3027160     0.0854980
  H       -0.3560952     2.2056343     0.5289382
  H       -0.0077520     1.6828060    -1.1735290
  H       -0.3428960    -2.1673120    -0.4996450
  H       -0.0077460    -1.6827810     1.1735500
units angstrom
no_reorient  #important for SAPT in psi4, default
symmetry c1  #important for SAPT in psi4, default
}

set PROPERTIES_ORIGIN ["COM"]
properties('MP2/aug-cc-pvtz', properties = ['dipole'])
--------------------------------------------------------------------------

    Molecular point group: c1
  Charge       = 0
  Multiplicity = 1
  Basis Set: AUG-CC-PVTZ
    Blend: AUG-CC-PVTZ
  Basis Set: (AUG-CC-PVTZ AUX)
    Blend: AUG-CC-PVTZ-JKFIT

    Orbital Energies [Eh]
    ---------------------

    Doubly Occupied:

       1A    -91.936057     2A    -11.258185     3A    -11.252680
       4A    -11.233738     5A    -11.233113     6A     -8.936710
       7A     -6.617878     8A     -6.617102     9A     -6.616095
      10A     -1.126384    11A     -0.981417    12A     -0.964778
      13A     -0.792142    14A     -0.776655    15A     -0.654059
      16A     -0.637014    17A     -0.594635    18A     -0.544257
      19A     -0.502151    20A     -0.489513    21A     -0.479521
      22A     -0.476360    23A     -0.421487    24A     -0.329939

  @DF-RHF Final Energy:  -553.73124692933720

   => Energetics <=

    Nuclear Repulsion Energy =            235.3320859210837455
    One-Electron Energy =               -1227.1829238165296374
    Two-Electron Energy =                 438.1195909661087171
    Total Energy =                       -553.7312469293372033
  Basis Set: (AUG-CC-PVTZ AUX)
    Blend: AUG-CC-PVTZ-RI
    Molecular point group: c1

    Geometry (in Angstrom), charge = 0, multiplicity = 1:

       Center              X                  Y                   Z               Mass
    ------------   -----------------  -----------------  -----------------  -----------------
         S           -1.235754108268    -0.000437761312    -0.000338736908    31.972071174400
         C            1.346500891732     0.708926238688     0.280425263092    12.000000000000
         C            1.346493891732    -0.709810761312    -0.281102736908    12.000000000000
         C            0.015613891732     1.329336238688    -0.139942736908    12.000000000000
         C            0.015609891732    -1.330209761312     0.139288263092    12.000000000000
         H            1.409472891732     0.670727238688     1.373746263092     1.007825032230
         H            2.191124891732     1.302267238688    -0.085853736908     1.007825032230
         H            1.409445891732    -0.671611761312    -1.374425736908     1.007825032230
         H            2.191120891732    -1.303154761312     0.085163263092     1.007825032230
         H           -0.286251308268     2.205195538688     0.528603463092     1.007825032230
         H            0.062091891732     1.682367238688    -1.173863736908     1.007825032230
         H           -0.273052108268    -2.167750761312    -0.499979736908     1.007825032230
         H            0.062097891732    -1.683219761312     1.173215263092     1.007825032230

  Basis Set: AUG-CC-PVTZ
    Blend: AUG-CC-PVTZ
  Basis Set: (AUG-CC-PVTZ AUX)
    Blend: AUG-CC-PVTZ-JKFIT
	 Reference Energy          =    -553.7312469293372033 [Eh]
	 Singles Energy            =      -0.0000000000000000 [Eh]
	 Same-Spin Energy          =      -0.2261265397728933 [Eh]
	 Opposite-Spin Energy      =      -0.7715425577328825 [Eh]
	 Correlation Energy        =      -0.9976690975057758 [Eh]
	 Total Energy              =    -554.7289160268429669 [Eh]

	 ================> DF-SCS-MP2 Energies <==================
	-----------------------------------------------------------
	 SCS Same-Spin Scale       =       0.3333333333333333 [-]
	 SCS Opposite-Spin Scale   =       1.2000000000000000 [-]
	 SCS Same-Spin Energy      =      -0.0753755132576311 [Eh]
	 SCS Opposite-Spin Energy  =      -0.9258510692794589 [Eh]
	 SCS Correlation Energy    =      -1.0012265825370901 [Eh]
	 SCS Total Energy          =    -554.7324735118743320 [Eh]
	-----------------------------------------------------------

  Dipole Moment: [D]
     X:     2.1190      Y:    -0.0286      Z:    -0.0039     Total:     2.1192

*** Psi4 exiting successfully. Buy a developer a beer!
