                               Psi4 1.3.2 release

  ==> Input File <==

--------------------------------------------------------------------------
#psi4
#
memory 32 gb

molecule  {
0 1
  S       -1.3055980     0.0000010    -0.0000040
  C        1.2766570     0.7093650     0.2807600
  C        1.2831409    -0.7450134    -0.1806183
  C       -0.0542300     1.3297750    -0.1396080
  C       -0.0542340    -1.3297710     0.1396230
  H        1.3396290     0.6711660     1.3740810
  H        2.1212810     1.3027060    -0.0855190
  H        1.3396020    -0.6711730    -1.3740910
  H        2.1212770    -1.3027160     0.0854980
  H       -0.3428840     2.1673020     0.4996790
  H       -0.0077520     1.6828060    -1.1735290
  H       -0.3428960    -2.1673120    -0.4996450
  H       -0.0077460    -1.6827810     1.1735500
units angstrom
no_reorient  #important for SAPT in psi4, default
symmetry c1  #important for SAPT in psi4, default
}

set PROPERTIES_ORIGIN ["COM"]
properties('MP2/aug-cc-pvtz', properties = ['dipole'])
--------------------------------------------------------------------------

    Molecular point group: c1
  Charge       = 0
  Multiplicity = 1
  Basis Set: AUG-CC-PVTZ
    Blend: AUG-CC-PVTZ
  Basis Set: (AUG-CC-PVTZ AUX)
    Blend: AUG-CC-PVTZ-JKFIT

    Orbital Energies [Eh]
    ---------------------

    Doubly Occupied:

       1A    -91.937659     2A    -11.254016     3A    -11.251688
       4A    -11.235883     5A    -11.234037     6A     -8.938239
       7A     -6.619426     8A     -6.618611     9A     -6.617609
      10A     -1.128919    11A     -0.988415    12A     -0.965985
      13A     -0.789774    14A     -0.781805    15A     -0.656540
      16A     -0.647332    17A     -0.592845    18A     -0.537973
      19A     -0.514976    20A     -0.499928    21A     -0.480792
      22A     -0.451985    23A     -0.424722    24A     -0.330953

  @DF-RHF Final Energy:  -553.72163302069737

   => Energetics <=

    Nuclear Repulsion Energy =            235.6615584850320033
    One-Electron Energy =               -1227.7661613930306430
    Two-Electron Energy =                 438.3829698873013285
    Total Energy =                       -553.7216330206973680
  Basis Set: (AUG-CC-PVTZ AUX)
    Blend: AUG-CC-PVTZ-RI
    Molecular point group: c1

    Geometry (in Angstrom), charge = 0, multiplicity = 1:

       Center              X                  Y                   Z               Mass
    ------------   -----------------  -----------------  -----------------  -----------------
         S           -1.236790124835     0.004859345429    -0.013655174929    31.972071174400
         C            1.345464875165     0.714223345429     0.267108825071    12.000000000000
         C            1.351948775165    -0.740155054571    -0.194269474929    12.000000000000
         C            0.014577875165     1.334633345429    -0.153259174929    12.000000000000
         C            0.014573875165    -1.324912654571     0.125971825071    12.000000000000
         H            1.408436875165     0.676024345429     1.360429825071     1.007825032230
         H            2.190088875165     1.307564345429    -0.099170174929     1.007825032230
         H            1.408409875165    -0.666314654571    -1.387742174929     1.007825032230
         H            2.190084875165    -1.297857654571     0.071846825071     1.007825032230
         H           -0.274076124835     2.172160345429     0.486027825071     1.007825032230
         H            0.061055875165     1.687664345429    -1.187180174929     1.007825032230
         H           -0.274088124835    -2.162453654571    -0.513296174929     1.007825032230
         H            0.061061875165    -1.677922654571     1.159898825071     1.007825032230

  Basis Set: AUG-CC-PVTZ
    Blend: AUG-CC-PVTZ
  Basis Set: (AUG-CC-PVTZ AUX)
    Blend: AUG-CC-PVTZ-JKFIT
	 Reference Energy          =    -553.7216330206973680 [Eh]
	 Singles Energy            =      -0.0000000000000000 [Eh]
	 Same-Spin Energy          =      -0.2263492014829905 [Eh]
	 Opposite-Spin Energy      =      -0.7719843881078534 [Eh]
	 Correlation Energy        =      -0.9983335895908438 [Eh]
	 Total Energy              =    -554.7199666102882247 [Eh]

	 ================> DF-SCS-MP2 Energies <==================
	-----------------------------------------------------------
	 SCS Same-Spin Scale       =       0.3333333333333333 [-]
	 SCS Opposite-Spin Scale   =       1.2000000000000000 [-]
	 SCS Same-Spin Energy      =      -0.0754497338276635 [Eh]
	 SCS Opposite-Spin Energy  =      -0.9263812657294240 [Eh]
	 SCS Correlation Energy    =      -1.0018309995570875 [Eh]
	 SCS Total Energy          =    -554.7234640202544824 [Eh]
	-----------------------------------------------------------

  Dipole Moment: [D]
     X:     2.0746      Y:     0.0174      Z:     0.0788     Total:     2.0762

*** Psi4 exiting successfully. Buy a developer a beer!
