                               Psi4 1.3.2 release

  ==> Input File <==

--------------------------------------------------------------------------
#psi4
#
memory 32 gb

molecule  {
0 1
  S       -1.3055980     0.0000010    -0.0000040
  C        1.2766570     0.7093650     0.2807600
  C        1.4212575    -0.7263600    -0.2151361
  C       -0.0542300     1.3297750    -0.1396080
  C       -0.0542340    -1.3297710     0.1396230
  H        1.3396290     0.6711660     1.3740810
  H        2.1212810     1.3027060    -0.0855190
  H        1.3396020    -0.6711730    -1.3740910
  H        2.1212770    -1.3027160     0.0854980
  H       -0.3428840     2.1673020     0.4996790
  H       -0.0077520     1.6828060    -1.1735290
  H       -0.3428960    -2.1673120    -0.4996450
  H       -0.0077460    -1.6827810     1.1735500
units angstrom
no_reorient  #important for SAPT in psi4, default
symmetry c1  #important for SAPT in psi4, default
}

set PROPERTIES_ORIGIN ["COM"]
properties('MP2/aug-cc-pvtz', properties = ['dipole'])
--------------------------------------------------------------------------

    Molecular point group: c1
  Charge       = 0
  Multiplicity = 1
  Basis Set: AUG-CC-PVTZ
    Blend: AUG-CC-PVTZ
  Basis Set: (AUG-CC-PVTZ AUX)
    Blend: AUG-CC-PVTZ-JKFIT

    Orbital Energies [Eh]
    ---------------------

    Doubly Occupied:

       1A    -91.937684     2A    -11.255544     3A    -11.254959
       4A    -11.235210     5A    -11.234215     6A     -8.938050
       7A     -6.619264     8A     -6.618419     9A     -6.617444
      10A     -1.117042    11A     -0.977949    12A     -0.969973
      13A     -0.802179    14A     -0.778617    15A     -0.664960
      16A     -0.635969    17A     -0.588773    18A     -0.544148
      19A     -0.527361    20A     -0.482547    21A     -0.472544
      22A     -0.458412    23A     -0.422475    24A     -0.329646

  @DF-RHF Final Energy:  -553.70354068490303

   => Energetics <=

    Nuclear Repulsion Energy =            233.7237018214862587
    One-Electron Energy =               -1223.8877194466253968
    Two-Electron Energy =                 436.4604769402361626
    Total Energy =                       -553.7035406849030323
  Basis Set: (AUG-CC-PVTZ AUX)
    Blend: AUG-CC-PVTZ-RI
    Molecular point group: c1

    Geometry (in Angstrom), charge = 0, multiplicity = 1:

       Center              X                  Y                   Z               Mass
    ------------   -----------------  -----------------  -----------------  -----------------
         S           -1.255616789069     0.002316701760    -0.008950055988    31.972071174400
         C            1.326638210931     0.711680701760     0.271813944012    12.000000000000
         C            1.471238710931    -0.724044298240    -0.224082155988    12.000000000000
         C           -0.004248789069     1.332090701760    -0.148554055988    12.000000000000
         C           -0.004252789069    -1.327455298240     0.130676944012    12.000000000000
         H            1.389610210931     0.673481701760     1.365134944012     1.007825032230
         H            2.171262210931     1.305021701760    -0.094465055988     1.007825032230
         H            1.389583210931    -0.668857298240    -1.383037055988     1.007825032230
         H            2.171258210931    -1.300400298240     0.076551944012     1.007825032230
         H           -0.292902789069     2.169617701760     0.490732944012     1.007825032230
         H            0.042229210931     1.685121701760    -1.182475055988     1.007825032230
         H           -0.292914789069    -2.164996298240    -0.508591055988     1.007825032230
         H            0.042235210931    -1.680465298240     1.164603944012     1.007825032230

  Basis Set: AUG-CC-PVTZ
    Blend: AUG-CC-PVTZ
  Basis Set: (AUG-CC-PVTZ AUX)
    Blend: AUG-CC-PVTZ-JKFIT
	 Reference Energy          =    -553.7035406849030323 [Eh]
	 Singles Energy            =      -0.0000000000000000 [Eh]
	 Same-Spin Energy          =      -0.2260044881287117 [Eh]
	 Opposite-Spin Energy      =      -0.7723626892073974 [Eh]
	 Correlation Energy        =      -0.9983671773361091 [Eh]
	 Total Energy              =    -554.7019078622391817 [Eh]

	 ================> DF-SCS-MP2 Energies <==================
	-----------------------------------------------------------
	 SCS Same-Spin Scale       =       0.3333333333333333 [-]
	 SCS Opposite-Spin Scale   =       1.2000000000000000 [-]
	 SCS Same-Spin Energy      =      -0.0753348293762372 [Eh]
	 SCS Opposite-Spin Energy  =      -0.9268352270488768 [Eh]
	 SCS Correlation Energy    =      -1.0021700564251139 [Eh]
	 SCS Total Energy          =    -554.7057107413281756 [Eh]
	-----------------------------------------------------------

  Dipole Moment: [D]
     X:     2.0828      Y:     0.0434      Z:     0.0597     Total:     2.0841

*** Psi4 exiting successfully. Buy a developer a beer!
