                               Psi4 1.3.2 release

  ==> Input File <==

--------------------------------------------------------------------------
#psi4
#
memory 32 gb

molecule  {
0 1
  S       -1.3055980     0.0000010    -0.0000040
  C        1.2766570     0.7093650     0.2807600
  C        1.2701591    -0.6668187    -0.3781820
  C       -0.0542300     1.3297750    -0.1396080
  C       -0.0542340    -1.3297710     0.1396230
  H        1.3396290     0.6711660     1.3740810
  H        2.1212810     1.3027060    -0.0855190
  H        1.3396020    -0.6711730    -1.3740910
  H        2.1212770    -1.3027160     0.0854980
  H       -0.3428840     2.1673020     0.4996790
  H       -0.0077520     1.6828060    -1.1735290
  H       -0.3428960    -2.1673120    -0.4996450
  H       -0.0077460    -1.6827810     1.1735500
units angstrom
no_reorient  #important for SAPT in psi4, default
symmetry c1  #important for SAPT in psi4, default
}

set PROPERTIES_ORIGIN ["COM"]
properties('MP2/aug-cc-pvtz', properties = ['dipole'])
--------------------------------------------------------------------------

    Molecular point group: c1
  Charge       = 0
  Multiplicity = 1
  Basis Set: AUG-CC-PVTZ
    Blend: AUG-CC-PVTZ
  Basis Set: (AUG-CC-PVTZ AUX)
    Blend: AUG-CC-PVTZ-JKFIT

    Orbital Energies [Eh]
    ---------------------

    Doubly Occupied:

       1A    -91.934085     2A    -11.254798     3A    -11.251335
       4A    -11.234156     5A    -11.233500     6A     -8.934837
       7A     -6.615995     8A     -6.615256     9A     -6.614249
      10A     -1.125274    11A     -0.979084    12A     -0.965430
      13A     -0.803322    14A     -0.777084    15A     -0.654256
      16A     -0.631424    17A     -0.600638    18A     -0.556369
      19A     -0.503231    20A     -0.494240    21A     -0.478020
      22A     -0.468682    23A     -0.415743    24A     -0.329264

  @DF-RHF Final Energy:  -553.71983763350818

   => Energetics <=

    Nuclear Repulsion Energy =            235.4555484137594306
    One-Electron Energy =               -1227.4102239894605191
    Two-Electron Energy =                 438.2348379421929394
    Total Energy =                       -553.7198376335081775
  Basis Set: (AUG-CC-PVTZ AUX)
    Blend: AUG-CC-PVTZ-RI
    Molecular point group: c1

    Geometry (in Angstrom), charge = 0, multiplicity = 1:

       Center              X                  Y                   Z               Mass
    ------------   -----------------  -----------------  -----------------  -----------------
         S           -1.235020576571    -0.005799368742     0.013274719412    31.972071174400
         C            1.347234423429     0.703564631258     0.294038719412    12.000000000000
         C            1.340736523429    -0.672619068742    -0.364903280588    12.000000000000
         C            0.016347423429     1.323974631258    -0.126329280588    12.000000000000
         C            0.016343423429    -1.335571368742     0.152901719412    12.000000000000
         H            1.410206423429     0.665365631258     1.387359719412     1.007825032230
         H            2.191858423429     1.296905631258    -0.072240280588     1.007825032230
         H            1.410179423429    -0.676973368742    -1.360812280588     1.007825032230
         H            2.191854423429    -1.308516368742     0.098776719412     1.007825032230
         H           -0.272306576571     2.161501631258     0.512957719412     1.007825032230
         H            0.062825423429     1.677005631258    -1.160250280588     1.007825032230
         H           -0.272318576571    -2.173112368742    -0.486366280588     1.007825032230
         H            0.062831423429    -1.688581368742     1.186828719412     1.007825032230

  Basis Set: AUG-CC-PVTZ
    Blend: AUG-CC-PVTZ
  Basis Set: (AUG-CC-PVTZ AUX)
    Blend: AUG-CC-PVTZ-JKFIT
	 Reference Energy          =    -553.7198376335081775 [Eh]
	 Singles Energy            =      -0.0000000000000000 [Eh]
	 Same-Spin Energy          =      -0.2262342234190180 [Eh]
	 Opposite-Spin Energy      =      -0.7716242414168769 [Eh]
	 Correlation Energy        =      -0.9978584648358949 [Eh]
	 Total Energy              =    -554.7176960983440495 [Eh]

	 ================> DF-SCS-MP2 Energies <==================
	-----------------------------------------------------------
	 SCS Same-Spin Scale       =       0.3333333333333333 [-]
	 SCS Opposite-Spin Scale   =       1.2000000000000000 [-]
	 SCS Same-Spin Energy      =      -0.0754114078063393 [Eh]
	 SCS Opposite-Spin Energy  =      -0.9259490897002522 [Eh]
	 SCS Correlation Energy    =      -1.0013604975065915 [Eh]
	 SCS Total Energy          =    -554.7211981310147166 [Eh]
	-----------------------------------------------------------

  Dipole Moment: [D]
     X:     2.1272      Y:     0.0023      Z:    -0.0401     Total:     2.1276

*** Psi4 exiting successfully. Buy a developer a beer!
