                               Psi4 1.3.2 release

  ==> Input File <==

--------------------------------------------------------------------------
#psi4
#
memory 32 gb

molecule  {
0 1
  S       -1.3055980     0.0000010    -0.0000040
  C        1.2766570     0.7093650     0.2807600
  C        1.2863765    -0.7601865    -0.1296695
  C       -0.0542300     1.3297750    -0.1396080
  C       -0.0542340    -1.3297710     0.1396230
  H        1.3396290     0.6711660     1.3740810
  H        2.1212810     1.3027060    -0.0855190
  H        1.3396020    -0.6711730    -1.3740910
  H        2.1212770    -1.3027160     0.0854980
  H       -0.3428840     2.1673020     0.4996790
  H       -0.0077520     1.6828060    -1.1735290
  H       -0.3428960    -2.1673120    -0.4996450
  H       -0.0077460    -1.6827810     1.1735500
units angstrom
no_reorient  #important for SAPT in psi4, default
symmetry c1  #important for SAPT in psi4, default
}

set PROPERTIES_ORIGIN ["COM"]
properties('MP2/aug-cc-pvtz', properties = ['dipole'])
--------------------------------------------------------------------------

    Molecular point group: c1
  Charge       = 0
  Multiplicity = 1
  Basis Set: AUG-CC-PVTZ
    Blend: AUG-CC-PVTZ
  Basis Set: (AUG-CC-PVTZ AUX)
    Blend: AUG-CC-PVTZ-JKFIT

    Orbital Energies [Eh]
    ---------------------

    Doubly Occupied:

       1A    -91.938864     2A    -11.254976     3A    -11.252010
       4A    -11.238592     5A    -11.235224     6A     -8.939390
       7A     -6.620582     8A     -6.619750     9A     -6.618748
      10A     -1.130425    11A     -0.991111    12A     -0.967047
      13A     -0.790728    14A     -0.783011    15A     -0.657381
      16A     -0.651838    17A     -0.591625    18A     -0.536293
      19A     -0.520663    20A     -0.503965    21A     -0.482077
      22A     -0.437353    23A     -0.424999    24A     -0.331512

  @DF-RHF Final Energy:  -553.70830751898325

   => Energetics <=

    Nuclear Repulsion Energy =            235.6840294436080114
    One-Electron Energy =               -1227.7483447349484322
    Two-Electron Energy =                 438.3560077723572022
    Total Energy =                       -553.7083075189832471
  Basis Set: (AUG-CC-PVTZ AUX)
    Blend: AUG-CC-PVTZ-RI
    Molecular point group: c1

    Geometry (in Angstrom), charge = 0, multiplicity = 1:

       Center              X                  Y                   Z               Mass
    ------------   -----------------  -----------------  -----------------  -----------------
         S           -1.237231169248     0.006927589645    -0.020600002348    31.972071174400
         C            1.345023830752     0.716291589645     0.260163997652    12.000000000000
         C            1.354743330752    -0.753259910355    -0.150265502348    12.000000000000
         C            0.014136830752     1.336701589645    -0.160204002348    12.000000000000
         C            0.014132830752    -1.322844410355     0.119026997652    12.000000000000
         H            1.407995830752     0.678092589645     1.353484997652     1.007825032230
         H            2.189647830752     1.309632589645    -0.106115002348     1.007825032230
         H            1.407968830752    -0.664246410355    -1.394687002348     1.007825032230
         H            2.189643830752    -1.295789410355     0.064901997652     1.007825032230
         H           -0.274517169248     2.174228589645     0.479082997652     1.007825032230
         H            0.060614830752     1.689732589645    -1.194125002348     1.007825032230
         H           -0.274529169248    -2.160385410355    -0.520241002348     1.007825032230
         H            0.060620830752    -1.675854410355     1.152953997652     1.007825032230

  Basis Set: AUG-CC-PVTZ
    Blend: AUG-CC-PVTZ
  Basis Set: (AUG-CC-PVTZ AUX)
    Blend: AUG-CC-PVTZ-JKFIT
	 Reference Energy          =    -553.7083075189832471 [Eh]
	 Singles Energy            =      -0.0000000000000000 [Eh]
	 Same-Spin Energy          =      -0.2266297938942033 [Eh]
	 Opposite-Spin Energy      =      -0.7727987698573334 [Eh]
	 Correlation Energy        =      -0.9994285637515368 [Eh]
	 Total Energy              =    -554.7077360827347547 [Eh]

	 ================> DF-SCS-MP2 Energies <==================
	-----------------------------------------------------------
	 SCS Same-Spin Scale       =       0.3333333333333333 [-]
	 SCS Opposite-Spin Scale   =       1.2000000000000000 [-]
	 SCS Same-Spin Energy      =      -0.0755432646314011 [Eh]
	 SCS Opposite-Spin Energy  =      -0.9273585238288000 [Eh]
	 SCS Correlation Energy    =      -1.0029017884602012 [Eh]
	 SCS Total Energy          =    -554.7112093074434824 [Eh]
	-----------------------------------------------------------

  Dipole Moment: [D]
     X:     2.0434      Y:     0.0315      Z:     0.1323     Total:     2.0480

*** Psi4 exiting successfully. Buy a developer a beer!
