                               Psi4 1.3.2 release

  ==> Input File <==

--------------------------------------------------------------------------
#psi4
#
memory 32 gb

molecule  {
0 1
  S       -1.3055980     0.0000010    -0.0000040
  C        1.2766570     0.7093650     0.2807600
  C        1.2766500    -0.7093720    -0.2807680
  C       -0.1016558     1.3723983    -0.1440835
  C       -0.0542340    -1.3297710     0.1396230
  H        1.3396290     0.6711660     1.3740810
  H        2.1212810     1.3027060    -0.0855190
  H        1.3396020    -0.6711730    -1.3740910
  H        2.1212770    -1.3027160     0.0854980
  H       -0.3428840     2.1673020     0.4996790
  H       -0.0077520     1.6828060    -1.1735290
  H       -0.3428960    -2.1673120    -0.4996450
  H       -0.0077460    -1.6827810     1.1735500
units angstrom
no_reorient  #important for SAPT in psi4, default
symmetry c1  #important for SAPT in psi4, default
}

set PROPERTIES_ORIGIN ["COM"]
properties('MP2/aug-cc-pvtz', properties = ['dipole'])
--------------------------------------------------------------------------

    Molecular point group: c1
  Charge       = 0
  Multiplicity = 1
  Basis Set: AUG-CC-PVTZ
    Blend: AUG-CC-PVTZ
  Basis Set: (AUG-CC-PVTZ AUX)
    Blend: AUG-CC-PVTZ-JKFIT

    Orbital Energies [Eh]
    ---------------------

    Doubly Occupied:

       1A    -91.935506     2A    -11.252733     3A    -11.251078
       4A    -11.236188     5A    -11.233299     6A     -8.936088
       7A     -6.617265     8A     -6.616535     9A     -6.615533
      10A     -1.120949    11A     -0.981767    12A     -0.963978
      13A     -0.794297    14A     -0.781925    15A     -0.655920
      16A     -0.633494    17A     -0.599694    18A     -0.550082
      19A     -0.500047    20A     -0.489933    21A     -0.482905
      22A     -0.476289    23A     -0.415753    24A     -0.330624

  @DF-RHF Final Energy:  -553.73051657901703

   => Energetics <=

    Nuclear Repulsion Energy =            234.8260662845032130
    One-Electron Energy =               -1226.1694039416154283
    Two-Electron Energy =                 437.6128210780952372
    Total Energy =                       -553.7305165790169212
  Basis Set: (AUG-CC-PVTZ AUX)
    Blend: AUG-CC-PVTZ-RI
    Molecular point group: c1

    Geometry (in Angstrom), charge = 0, multiplicity = 1:

       Center              X                  Y                   Z               Mass
    ------------   -----------------  -----------------  -----------------  -----------------
         S           -1.229440743171    -0.005808910438     0.000606278878    31.972071174400
         C            1.352814256829     0.703555089562     0.281370278878    12.000000000000
         C            1.352807256829    -0.715181910438    -0.280157721122    12.000000000000
         C           -0.025498543171     1.366588389562    -0.143473221122    12.000000000000
         C            0.021923256829    -1.335580910438     0.140233278878    12.000000000000
         H            1.415786256829     0.665356089562     1.374691278878     1.007825032230
         H            2.197438256829     1.296896089562    -0.084908721122     1.007825032230
         H            1.415759256829    -0.676982910438    -1.373480721122     1.007825032230
         H            2.197434256829    -1.308525910438     0.086108278878     1.007825032230
         H           -0.266726743171     2.161492089562     0.500289278878     1.007825032230
         H            0.068405256829     1.676996089562    -1.172918721122     1.007825032230
         H           -0.266738743171    -2.173121910438    -0.499034721122     1.007825032230
         H            0.068411256829    -1.688590910438     1.174160278878     1.007825032230

  Basis Set: AUG-CC-PVTZ
    Blend: AUG-CC-PVTZ
  Basis Set: (AUG-CC-PVTZ AUX)
    Blend: AUG-CC-PVTZ-JKFIT
	 Reference Energy          =    -553.7305165790170349 [Eh]
	 Singles Energy            =      -0.0000000000000000 [Eh]
	 Same-Spin Energy          =      -0.2257017458654461 [Eh]
	 Opposite-Spin Energy      =      -0.7709357866956390 [Eh]
	 Correlation Energy        =      -0.9966375325610850 [Eh]
	 Total Energy              =    -554.7271541115781019 [Eh]

	 ================> DF-SCS-MP2 Energies <==================
	-----------------------------------------------------------
	 SCS Same-Spin Scale       =       0.3333333333333333 [-]
	 SCS Opposite-Spin Scale   =       1.2000000000000000 [-]
	 SCS Same-Spin Energy      =      -0.0752339152884820 [Eh]
	 SCS Opposite-Spin Energy  =      -0.9251229440347668 [Eh]
	 SCS Correlation Energy    =      -1.0003568593232488 [Eh]
	 SCS Total Energy          =    -554.7308734383402680 [Eh]
	-----------------------------------------------------------

  Dipole Moment: [D]
     X:     2.1406      Y:     0.0077      Z:     0.0031     Total:     2.1406

*** Psi4 exiting successfully. Buy a developer a beer!
