                               Psi4 1.3.2 release

  ==> Input File <==

--------------------------------------------------------------------------
#psi4
#
memory 32 gb

molecule  {
0 1
  S       -1.3055980     0.0000010    -0.0000040
  C        1.2766570     0.7093650     0.2807600
  C        1.2750260    -0.6993741    -0.3053968
  C       -0.0542300     1.3297750    -0.1396080
  C       -0.0542340    -1.3297710     0.1396230
  H        1.3396290     0.6711660     1.3740810
  H        2.1212810     1.3027060    -0.0855190
  H        1.3396020    -0.6711730    -1.3740910
  H        2.1212770    -1.3027160     0.0854980
  H       -0.3428840     2.1673020     0.4996790
  H       -0.0077520     1.6828060    -1.1735290
  H       -0.3428960    -2.1673120    -0.4996450
  H       -0.0077460    -1.6827810     1.1735500
units angstrom
no_reorient  #important for SAPT in psi4, default
symmetry c1  #important for SAPT in psi4, default
}

set PROPERTIES_ORIGIN ["COM"]
properties('MP2/aug-cc-pvtz', properties = ['dipole'])
--------------------------------------------------------------------------

    Molecular point group: c1
  Charge       = 0
  Multiplicity = 1
  Basis Set: AUG-CC-PVTZ
    Blend: AUG-CC-PVTZ
  Basis Set: (AUG-CC-PVTZ AUX)
    Blend: AUG-CC-PVTZ-JKFIT

    Orbital Energies [Eh]
    ---------------------

    Doubly Occupied:

       1A    -91.935161     2A    -11.252875     3A    -11.252100
       4A    -11.233336     5A    -11.232688     6A     -8.935860
       7A     -6.617031     8A     -6.616263     9A     -6.615258
      10A     -1.126153    11A     -0.982175    12A     -0.964850
      13A     -0.794529    14A     -0.778968    15A     -0.655219
      16A     -0.635918    17A     -0.597336    18A     -0.547939
      19A     -0.500993    20A     -0.488004    21A     -0.485853
      22A     -0.474897    23A     -0.419905    24A     -0.329775

  @DF-RHF Final Energy:  -553.73272155507345

   => Energetics <=

    Nuclear Repulsion Energy =            235.5459641070142141
    One-Electron Energy =               -1227.6111958708340808
    Two-Electron Energy =                 438.3325102087463847
    Total Energy =                       -553.7327215550734536
  Basis Set: (AUG-CC-PVTZ AUX)
    Blend: AUG-CC-PVTZ-RI
    Molecular point group: c1

    Geometry (in Angstrom), charge = 0, multiplicity = 1:

       Center              X                  Y                   Z               Mass
    ------------   -----------------  -----------------  -----------------  -----------------
         S           -1.235683983375    -0.001361744410     0.003353373813    31.972071174400
         C            1.346571016625     0.708002255590     0.284117373813    12.000000000000
         C            1.344940016625    -0.700736844410    -0.302039426187    12.000000000000
         C            0.015684016625     1.328412255590    -0.136250626187    12.000000000000
         C            0.015680016625    -1.331133744410     0.142980373813    12.000000000000
         H            1.409543016625     0.669803255590     1.377438373813     1.007825032230
         H            2.191195016625     1.301343255590    -0.082161626187     1.007825032230
         H            1.409516016625    -0.672535744410    -1.370733626187     1.007825032230
         H            2.191191016625    -1.304078744410     0.088855373813     1.007825032230
         H           -0.272969983375     2.165939255590     0.503036373813     1.007825032230
         H            0.062162016625     1.681443255590    -1.170171626187     1.007825032230
         H           -0.272981983375    -2.168674744410    -0.496287626187     1.007825032230
         H            0.062168016625    -1.684143744410     1.176907373813     1.007825032230

  Basis Set: AUG-CC-PVTZ
    Blend: AUG-CC-PVTZ
  Basis Set: (AUG-CC-PVTZ AUX)
    Blend: AUG-CC-PVTZ-JKFIT
	 Reference Energy          =    -553.7327215550734536 [Eh]
	 Singles Energy            =      -0.0000000000000000 [Eh]
	 Same-Spin Energy          =      -0.2260752510121329 [Eh]
	 Opposite-Spin Energy      =      -0.7711518972361437 [Eh]
	 Correlation Energy        =      -0.9972271482482766 [Eh]
	 Total Energy              =    -554.7299487033217247 [Eh]

	 ================> DF-SCS-MP2 Energies <==================
	-----------------------------------------------------------
	 SCS Same-Spin Scale       =       0.3333333333333333 [-]
	 SCS Opposite-Spin Scale   =       1.2000000000000000 [-]
	 SCS Same-Spin Energy      =      -0.0753584170040443 [Eh]
	 SCS Opposite-Spin Energy  =      -0.9253822766833725 [Eh]
	 SCS Correlation Energy    =      -1.0007406936874168 [Eh]
	 SCS Total Energy          =    -554.7334622487608158 [Eh]
	-----------------------------------------------------------

  Dipole Moment: [D]
     X:     2.1219      Y:    -0.0015      Z:    -0.0136     Total:     2.1219

*** Psi4 exiting successfully. Buy a developer a beer!
