                               Psi4 1.3.2 release

  ==> Input File <==

--------------------------------------------------------------------------
#psi4
#
memory 32 gb

molecule  {
0 1
  S       -1.3055980     0.0000010    -0.0000040
  C        1.2766570     0.7093650     0.2807600
  C        1.2766505    -0.6163901    -0.2439663
  C       -0.0542300     1.3297750    -0.1396080
  C       -0.0542340    -1.3297710     0.1396230
  H        1.3396290     0.6711660     1.3740810
  H        2.1212810     1.3027060    -0.0855190
  H        1.3396020    -0.6711730    -1.3740910
  H        2.1212770    -1.3027160     0.0854980
  H       -0.3428840     2.1673020     0.4996790
  H       -0.0077520     1.6828060    -1.1735290
  H       -0.3428960    -2.1673120    -0.4996450
  H       -0.0077460    -1.6827810     1.1735500
units angstrom
no_reorient  #important for SAPT in psi4, default
symmetry c1  #important for SAPT in psi4, default
}

set PROPERTIES_ORIGIN ["COM"]
properties('MP2/aug-cc-pvtz', properties = ['dipole'])
--------------------------------------------------------------------------

    Molecular point group: c1
  Charge       = 0
  Multiplicity = 1
  Basis Set: AUG-CC-PVTZ
    Blend: AUG-CC-PVTZ
  Basis Set: (AUG-CC-PVTZ AUX)
    Blend: AUG-CC-PVTZ-JKFIT

    Orbital Energies [Eh]
    ---------------------

    Doubly Occupied:

       1A    -91.934725     2A    -11.254453     3A    -11.252840
       4A    -11.237428     5A    -11.229149     6A     -8.935475
       7A     -6.616633     8A     -6.615908     9A     -6.614881
      10A     -1.137312    11A     -0.981149    12A     -0.972512
      13A     -0.786826    14A     -0.781959    15A     -0.657661
      16A     -0.643668    17A     -0.594878    18A     -0.546035
      19A     -0.516876    20A     -0.496311    21A     -0.470520
      22A     -0.466832    23A     -0.418922    24A     -0.329200

  @DF-RHF Final Energy:  -553.72220867567330

   => Energetics <=

    Nuclear Repulsion Energy =            236.5699564358993712
    One-Electron Energy =               -1229.6000257227244674
    Two-Electron Energy =                 439.3078606111517956
    Total Energy =                       -553.7222086756733006
  Basis Set: (AUG-CC-PVTZ AUX)
    Blend: AUG-CC-PVTZ-RI
    Molecular point group: c1

    Geometry (in Angstrom), charge = 0, multiplicity = 1:

       Center              X                  Y                   Z               Mass
    ------------   -----------------  -----------------  -----------------  -----------------
         S           -1.235905418858    -0.012673287735    -0.005020213412    31.972071174400
         C            1.346349581142     0.696690712265     0.275743786588    12.000000000000
         C            1.346343081142    -0.629064387735    -0.248982513412    12.000000000000
         C            0.015462581142     1.317100712265    -0.144624213412    12.000000000000
         C            0.015458581142    -1.342445287735     0.134606786588    12.000000000000
         H            1.409321581142     0.658491712265     1.369064786588     1.007825032230
         H            2.190973581142     1.290031712265    -0.090535213412     1.007825032230
         H            1.409294581142    -0.683847287735    -1.379107213412     1.007825032230
         H            2.190969581142    -1.315390287735     0.080481786588     1.007825032230
         H           -0.273191418858     2.154627712265     0.494662786588     1.007825032230
         H            0.061940581142     1.670131712265    -1.178545213412     1.007825032230
         H           -0.273203418858    -2.179986287735    -0.504661213412     1.007825032230
         H            0.061946581142    -1.695455287735     1.168533786588     1.007825032230

  Basis Set: AUG-CC-PVTZ
    Blend: AUG-CC-PVTZ
  Basis Set: (AUG-CC-PVTZ AUX)
    Blend: AUG-CC-PVTZ-JKFIT
	 Reference Energy          =    -553.7222086756733006 [Eh]
	 Singles Energy            =      -0.0000000000000000 [Eh]
	 Same-Spin Energy          =      -0.2269412770132663 [Eh]
	 Opposite-Spin Energy      =      -0.7722045534430806 [Eh]
	 Correlation Energy        =      -0.9991458304563470 [Eh]
	 Total Energy              =    -554.7213545061296145 [Eh]

	 ================> DF-SCS-MP2 Energies <==================
	-----------------------------------------------------------
	 SCS Same-Spin Scale       =       0.3333333333333333 [-]
	 SCS Opposite-Spin Scale   =       1.2000000000000000 [-]
	 SCS Same-Spin Energy      =      -0.0756470923377554 [Eh]
	 SCS Opposite-Spin Energy  =      -0.9266454641316967 [Eh]
	 SCS Correlation Energy    =      -1.0022925564694520 [Eh]
	 SCS Total Energy          =    -554.7245012321427566 [Eh]
	-----------------------------------------------------------

  Dipole Moment: [D]
     X:     2.1252      Y:     0.0084      Z:     0.0110     Total:     2.1252

*** Psi4 exiting successfully. Buy a developer a beer!
