                               Psi4 1.3.2 release

  ==> Input File <==

--------------------------------------------------------------------------
#psi4
#
memory 32 gb

molecule  {
0 1
  S       -1.3690008     0.0744509     0.0823139
  C        1.2766570     0.7093650     0.2807600
  C        1.2766500    -0.7093720    -0.2807680
  C       -0.0542300     1.3297750    -0.1396080
  C       -0.0542340    -1.3297710     0.1396230
  H        1.3396290     0.6711660     1.3740810
  H        2.1212810     1.3027060    -0.0855190
  H        1.3396020    -0.6711730    -1.3740910
  H        2.1212770    -1.3027160     0.0854980
  H       -0.3428840     2.1673020     0.4996790
  H       -0.0077520     1.6828060    -1.1735290
  H       -0.3428960    -2.1673120    -0.4996450
  H       -0.0077460    -1.6827810     1.1735500
units angstrom
no_reorient  #important for SAPT in psi4, default
symmetry c1  #important for SAPT in psi4, default
}

set PROPERTIES_ORIGIN ["COM"]
properties('MP2/aug-cc-pvtz', properties = ['dipole'])
--------------------------------------------------------------------------

    Molecular point group: c1
  Charge       = 0
  Multiplicity = 1
  Basis Set: AUG-CC-PVTZ
    Blend: AUG-CC-PVTZ
  Basis Set: (AUG-CC-PVTZ AUX)
    Blend: AUG-CC-PVTZ-JKFIT

    Orbital Energies [Eh]
    ---------------------

    Doubly Occupied:

       1A    -91.939780     2A    -11.259365     3A    -11.252116
       4A    -11.234295     5A    -11.233255     6A     -8.938937
       7A     -6.620008     8A     -6.619172     9A     -6.618234
      10A     -1.119755    11A     -0.982635    12A     -0.957628
      13A     -0.791251    14A     -0.781651    15A     -0.653850
      16A     -0.636784    17A     -0.596133    18A     -0.543325
      19A     -0.501528    20A     -0.490352    21A     -0.481214
      22A     -0.463675    23A     -0.421872    24A     -0.332295

  @DF-RHF Final Energy:  -553.72911828922781

   => Energetics <=

    Nuclear Repulsion Energy =            233.0239805077704034
    One-Electron Energy =               -1222.5679748964244027
    Two-Electron Energy =                 435.8148760994262148
    Total Energy =                       -553.7291182892278130
  Basis Set: (AUG-CC-PVTZ AUX)
    Blend: AUG-CC-PVTZ-RI
    Molecular point group: c1

    Geometry (in Angstrom), charge = 0, multiplicity = 1:

       Center              X                  Y                   Z               Mass
    ------------   -----------------  -----------------  -----------------  -----------------
         S           -1.276281781646     0.047412559089     0.052418246226    31.972071174400
         C            1.369376018354     0.682326659089     0.250864346226    12.000000000000
         C            1.369369018354    -0.736410340911    -0.310663653774    12.000000000000
         C            0.038489018354     1.302736659089    -0.169503653774    12.000000000000
         C            0.038485018354    -1.356809340911     0.109727346226    12.000000000000
         H            1.432348018354     0.644127659089     1.344185346226     1.007825032230
         H            2.214000018354     1.275667659089    -0.115414653774     1.007825032230
         H            1.432321018354    -0.698211340911    -1.403986653774     1.007825032230
         H            2.213996018354    -1.329754340911     0.055602346226     1.007825032230
         H           -0.250164981646     2.140263659089     0.469783346226     1.007825032230
         H            0.084967018354     1.655767659089    -1.203424653774     1.007825032230
         H           -0.250176981646    -2.194350340911    -0.529540653774     1.007825032230
         H            0.084973018354    -1.709819340911     1.143654346226     1.007825032230

  Basis Set: AUG-CC-PVTZ
    Blend: AUG-CC-PVTZ
  Basis Set: (AUG-CC-PVTZ AUX)
    Blend: AUG-CC-PVTZ-JKFIT
	 Reference Energy          =    -553.7291182892278130 [Eh]
	 Singles Energy            =      -0.0000000000000000 [Eh]
	 Same-Spin Energy          =      -0.2256831549244098 [Eh]
	 Opposite-Spin Energy      =      -0.7718300044216886 [Eh]
	 Correlation Energy        =      -0.9975131593460984 [Eh]
	 Total Energy              =    -554.7266314485739258 [Eh]

	 ================> DF-SCS-MP2 Energies <==================
	-----------------------------------------------------------
	 SCS Same-Spin Scale       =       0.3333333333333333 [-]
	 SCS Opposite-Spin Scale   =       1.2000000000000000 [-]
	 SCS Same-Spin Energy      =      -0.0752277183081366 [Eh]
	 SCS Opposite-Spin Energy  =      -0.9261960053060263 [Eh]
	 SCS Correlation Energy    =      -1.0014237236141630 [Eh]
	 SCS Total Energy          =    -554.7305420128419655 [Eh]
	-----------------------------------------------------------

  Dipole Moment: [D]
     X:     2.1593      Y:    -0.0702      Z:    -0.0786     Total:     2.1619

*** Psi4 exiting successfully. Buy a developer a beer!
