                               Psi4 1.3.2 release

  ==> Input File <==

--------------------------------------------------------------------------
#psi4
#
memory 32 gb

molecule  {
0 1
  S       -1.3055980     0.0000010    -0.0000040
  C        1.2766570     0.7093650     0.2807600
  C        1.2766509    -0.5234082    -0.2071646
  C       -0.0542300     1.3297750    -0.1396080
  C       -0.0542340    -1.3297710     0.1396230
  H        1.3396290     0.6711660     1.3740810
  H        2.1212810     1.3027060    -0.0855190
  H        1.3396020    -0.6711730    -1.3740910
  H        2.1212770    -1.3027160     0.0854980
  H       -0.3428840     2.1673020     0.4996790
  H       -0.0077520     1.6828060    -1.1735290
  H       -0.3428960    -2.1673120    -0.4996450
  H       -0.0077460    -1.6827810     1.1735500
units angstrom
no_reorient  #important for SAPT in psi4, default
symmetry c1  #important for SAPT in psi4, default
}

set PROPERTIES_ORIGIN ["COM"]
properties('MP2/aug-cc-pvtz', properties = ['dipole'])
--------------------------------------------------------------------------

    Molecular point group: c1
  Charge       = 0
  Multiplicity = 1
  Basis Set: AUG-CC-PVTZ
    Blend: AUG-CC-PVTZ
  Basis Set: (AUG-CC-PVTZ AUX)
    Blend: AUG-CC-PVTZ-JKFIT

    Orbital Energies [Eh]
    ---------------------

    Doubly Occupied:

       1A    -91.934166     2A    -11.257179     3A    -11.253965
       4A    -11.243767     5A    -11.224502     6A     -8.934965
       7A     -6.616104     8A     -6.615428     9A     -6.614381
      10A     -1.153399    11A     -0.991394    12A     -0.969906
      13A     -0.786458    14A     -0.778747    15A     -0.663576
      16A     -0.650295    17A     -0.595692    18A     -0.551420
      19A     -0.539731    20A     -0.492410    21A     -0.460714
      22A     -0.446416    23A     -0.414437    24A     -0.328580

  @DF-RHF Final Energy:  -553.68443631586695

   => Energetics <=

    Nuclear Repulsion Energy =            237.6449126076172718
    One-Electron Energy =               -1231.6234356800505338
    Two-Electron Energy =                 440.2940867565663439
    Total Energy =                       -553.6844363158669466
  Basis Set: (AUG-CC-PVTZ AUX)
    Blend: AUG-CC-PVTZ-RI
    Molecular point group: c1

    Geometry (in Angstrom), charge = 0, multiplicity = 1:

       Center              X                  Y                   Z               Mass
    ------------   -----------------  -----------------  -----------------  -----------------
         S           -1.235905473382    -0.025347644121    -0.010036650604    31.972071174400
         C            1.346349526618     0.684016355879     0.270727349396    12.000000000000
         C            1.346343426618    -0.548756844121    -0.217197250604    12.000000000000
         C            0.015462526618     1.304426355879    -0.149640650604    12.000000000000
         C            0.015458526618    -1.355119644121     0.129590349396    12.000000000000
         H            1.409321526618     0.645817355879     1.364048349396     1.007825032230
         H            2.190973526618     1.277357355879    -0.095551650604     1.007825032230
         H            1.409294526618    -0.696521644121    -1.384123650604     1.007825032230
         H            2.190969526618    -1.328064644121     0.075465349396     1.007825032230
         H           -0.273191473382     2.141953355879     0.489646349396     1.007825032230
         H            0.061940526618     1.657457355879    -1.183561650604     1.007825032230
         H           -0.273203473382    -2.192660644121    -0.509677650604     1.007825032230
         H            0.061946526618    -1.708129644121     1.163517349396     1.007825032230

  Basis Set: AUG-CC-PVTZ
    Blend: AUG-CC-PVTZ
  Basis Set: (AUG-CC-PVTZ AUX)
    Blend: AUG-CC-PVTZ-JKFIT
	 Reference Energy          =    -553.6844363158669466 [Eh]
	 Singles Energy            =      -0.0000000000000000 [Eh]
	 Same-Spin Energy          =      -0.2287908454235821 [Eh]
	 Opposite-Spin Energy      =      -0.7748483404567204 [Eh]
	 Correlation Energy        =      -1.0036391858803024 [Eh]
	 Total Energy              =    -554.6880755017472211 [Eh]

	 ================> DF-SCS-MP2 Energies <==================
	-----------------------------------------------------------
	 SCS Same-Spin Scale       =       0.3333333333333333 [-]
	 SCS Opposite-Spin Scale   =       1.2000000000000000 [-]
	 SCS Same-Spin Energy      =      -0.0762636151411940 [Eh]
	 SCS Opposite-Spin Energy  =      -0.9298180085480644 [Eh]
	 SCS Correlation Energy    =      -1.0060816236892585 [Eh]
	 SCS Total Energy          =    -554.6905179395562300 [Eh]
	-----------------------------------------------------------

  Dipole Moment: [D]
     X:     2.1232      Y:     0.0453      Z:     0.0350     Total:     2.1240

*** Psi4 exiting successfully. Buy a developer a beer!
