                               Psi4 1.3.2 release

  ==> Input File <==

--------------------------------------------------------------------------
#psi4
#
memory 32 gb

molecule  {
0 1
  S       -1.3055980     0.0000010    -0.0000040
  C        1.2766570     0.7093650     0.2807600
  C        1.1801471    -0.6893926    -0.3211464
  C       -0.0542300     1.3297750    -0.1396080
  C       -0.0542340    -1.3297710     0.1396230
  H        1.3396290     0.6711660     1.3740810
  H        2.1212810     1.3027060    -0.0855190
  H        1.3396020    -0.6711730    -1.3740910
  H        2.1212770    -1.3027160     0.0854980
  H       -0.3428840     2.1673020     0.4996790
  H       -0.0077520     1.6828060    -1.1735290
  H       -0.3428960    -2.1673120    -0.4996450
  H       -0.0077460    -1.6827810     1.1735500
units angstrom
no_reorient  #important for SAPT in psi4, default
symmetry c1  #important for SAPT in psi4, default
}

set PROPERTIES_ORIGIN ["COM"]
properties('MP2/aug-cc-pvtz', properties = ['dipole'])
--------------------------------------------------------------------------

    Molecular point group: c1
  Charge       = 0
  Multiplicity = 1
  Basis Set: AUG-CC-PVTZ
    Blend: AUG-CC-PVTZ
  Basis Set: (AUG-CC-PVTZ AUX)
    Blend: AUG-CC-PVTZ-JKFIT

    Orbital Energies [Eh]
    ---------------------

    Doubly Occupied:

       1A    -91.934796     2A    -11.251779     3A    -11.251331
       4A    -11.236420     5A    -11.233688     6A     -8.935735
       7A     -6.616859     8A     -6.616152     9A     -6.615108
      10A     -1.135949    11A     -0.990744    12A     -0.961274
      13A     -0.792885    14A     -0.780887    15A     -0.658343
      16A     -0.635216    17A     -0.600992    18A     -0.550896
      19A     -0.516950    20A     -0.486301    21A     -0.483647
      22A     -0.461639    23A     -0.415235    24A     -0.330732

  @DF-RHF Final Energy:  -553.72116189574126

   => Energetics <=

    Nuclear Repulsion Energy =            236.9038899827686748
    One-Electron Energy =               -1230.2629890410705684
    Two-Electron Energy =                 439.6379371625607178
    Total Energy =                       -553.7211618957412611
  Basis Set: (AUG-CC-PVTZ AUX)
    Blend: AUG-CC-PVTZ-RI
    Molecular point group: c1

    Geometry (in Angstrom), charge = 0, multiplicity = 1:

       Center              X                  Y                   Z               Mass
    ------------   -----------------  -----------------  -----------------  -----------------
         S           -1.222751047050    -0.002722321988     0.005500200704    31.972071174400
         C            1.359503952950     0.706641678012     0.286264200704    12.000000000000
         C            1.262994052950    -0.692115921988    -0.315642199296    12.000000000000
         C            0.028616952950     1.327051678012    -0.134103799296    12.000000000000
         C            0.028612952950    -1.332494321988     0.145127200704    12.000000000000
         H            1.422475952950     0.668442678012     1.379585200704     1.007825032230
         H            2.204127952950     1.299982678012    -0.080014799296     1.007825032230
         H            1.422448952950    -0.673896321988    -1.368586799296     1.007825032230
         H            2.204123952950    -1.305439321988     0.091002200704     1.007825032230
         H           -0.260037047050     2.164578678012     0.505183200704     1.007825032230
         H            0.075094952950     1.680082678012    -1.168024799296     1.007825032230
         H           -0.260049047050    -2.170035321988    -0.494140799296     1.007825032230
         H            0.075100952950    -1.685504321988     1.179054200704     1.007825032230

  Basis Set: AUG-CC-PVTZ
    Blend: AUG-CC-PVTZ
  Basis Set: (AUG-CC-PVTZ AUX)
    Blend: AUG-CC-PVTZ-JKFIT
	 Reference Energy          =    -553.7211618957412611 [Eh]
	 Singles Energy            =      -0.0000000000000000 [Eh]
	 Same-Spin Energy          =      -0.2269525335555999 [Eh]
	 Opposite-Spin Energy      =      -0.7722107703372888 [Eh]
	 Correlation Energy        =      -0.9991633038928887 [Eh]
	 Total Energy              =    -554.7203251996342033 [Eh]

	 ================> DF-SCS-MP2 Energies <==================
	-----------------------------------------------------------
	 SCS Same-Spin Scale       =       0.3333333333333333 [-]
	 SCS Opposite-Spin Scale   =       1.2000000000000000 [-]
	 SCS Same-Spin Energy      =      -0.0756508445185333 [Eh]
	 SCS Opposite-Spin Energy  =      -0.9266529244047466 [Eh]
	 SCS Correlation Energy    =      -1.0023037689232799 [Eh]
	 SCS Total Energy          =    -554.7234656646645590 [Eh]
	-----------------------------------------------------------

  Dipole Moment: [D]
     X:     2.0830      Y:     0.0045      Z:    -0.0320     Total:     2.0833

*** Psi4 exiting successfully. Buy a developer a beer!
