                               Psi4 1.3.2 release

  ==> Input File <==

--------------------------------------------------------------------------
#psi4
#
memory 32 gb

molecule  {
0 1
  S       -1.3055980     0.0000010    -0.0000040
  C        1.2766570     0.7093650     0.2807600
  C        1.2766495    -0.8023539    -0.3175697
  C       -0.0542300     1.3297750    -0.1396080
  C       -0.0542340    -1.3297710     0.1396230
  H        1.3396290     0.6711660     1.3740810
  H        2.1212810     1.3027060    -0.0855190
  H        1.3396020    -0.6711730    -1.3740910
  H        2.1212770    -1.3027160     0.0854980
  H       -0.3428840     2.1673020     0.4996790
  H       -0.0077520     1.6828060    -1.1735290
  H       -0.3428960    -2.1673120    -0.4996450
  H       -0.0077460    -1.6827810     1.1735500
units angstrom
no_reorient  #important for SAPT in psi4, default
symmetry c1  #important for SAPT in psi4, default
}

set PROPERTIES_ORIGIN ["COM"]
properties('MP2/aug-cc-pvtz', properties = ['dipole'])
--------------------------------------------------------------------------

    Molecular point group: c1
  Charge       = 0
  Multiplicity = 1
  Basis Set: AUG-CC-PVTZ
    Blend: AUG-CC-PVTZ
  Basis Set: (AUG-CC-PVTZ AUX)
    Blend: AUG-CC-PVTZ-JKFIT

    Orbital Energies [Eh]
    ---------------------

    Doubly Occupied:

       1A    -91.936699     2A    -11.252443     3A    -11.251373
       4A    -11.236022     5A    -11.231355     6A     -8.937290
       7A     -6.618478     8A     -6.617646     9A     -6.616664
      10A     -1.119458    11A     -0.988400    12A     -0.956719
      13A     -0.797805    14A     -0.777883    15A     -0.656703
      16A     -0.632567    17A     -0.598622    18A     -0.547947
      19A     -0.511065    20A     -0.495782    21A     -0.480029
      22A     -0.455685    23A     -0.420686    24A     -0.330905

  @DF-RHF Final Energy:  -553.72565544747647

   => Energetics <=

    Nuclear Repulsion Energy =            234.6146275079133545
    One-Electron Energy =               -1225.7441180277505737
    Two-Electron Energy =                 437.4038350723607778
    Total Energy =                       -553.7256554474763561
  Basis Set: (AUG-CC-PVTZ AUX)
    Blend: AUG-CC-PVTZ-RI
    Molecular point group: c1

    Geometry (in Angstrom), charge = 0, multiplicity = 1:

       Center              X                  Y                   Z               Mass
    ------------   -----------------  -----------------  -----------------  -----------------
         S           -1.235905282548     0.012675425035     0.005012660973    31.972071174400
         C            1.346349717452     0.722039425035     0.285776660973    12.000000000000
         C            1.346342217452    -0.789679474965    -0.312553039027    12.000000000000
         C            0.015462717452     1.342449425035    -0.134591339027    12.000000000000
         C            0.015458717452    -1.317096574965     0.144639660973    12.000000000000
         H            1.409321717452     0.683840425035     1.379097660973     1.007825032230
         H            2.190973717452     1.315380425035    -0.080502339027     1.007825032230
         H            1.409294717452    -0.658498574965    -1.369074339027     1.007825032230
         H            2.190969717452    -1.290041574965     0.090514660973     1.007825032230
         H           -0.273191282548     2.179976425035     0.504695660973     1.007825032230
         H            0.061940717452     1.695480425035    -1.168512339027     1.007825032230
         H           -0.273203282548    -2.154637574965    -0.494628339027     1.007825032230
         H            0.061946717452    -1.670106574965     1.178566660973     1.007825032230

  Basis Set: AUG-CC-PVTZ
    Blend: AUG-CC-PVTZ
  Basis Set: (AUG-CC-PVTZ AUX)
    Blend: AUG-CC-PVTZ-JKFIT
	 Reference Energy          =    -553.7256554474764698 [Eh]
	 Singles Energy            =      -0.0000000000000000 [Eh]
	 Same-Spin Energy          =      -0.2260568879290954 [Eh]
	 Opposite-Spin Energy      =      -0.7715842507034899 [Eh]
	 Correlation Energy        =      -0.9976411386325853 [Eh]
	 Total Energy              =    -554.7232965861090861 [Eh]

	 ================> DF-SCS-MP2 Energies <==================
	-----------------------------------------------------------
	 SCS Same-Spin Scale       =       0.3333333333333333 [-]
	 SCS Opposite-Spin Scale   =       1.2000000000000000 [-]
	 SCS Same-Spin Energy      =      -0.0753522959763651 [Eh]
	 SCS Opposite-Spin Energy  =      -0.9259011008441879 [Eh]
	 SCS Correlation Energy    =      -1.0012533968205530 [Eh]
	 SCS Total Energy          =    -554.7269088442969860 [Eh]
	-----------------------------------------------------------

  Dipole Moment: [D]
     X:     2.0972      Y:     0.0098      Z:    -0.0020     Total:     2.0972

*** Psi4 exiting successfully. Buy a developer a beer!
