                               Psi4 1.3.2 release

  ==> Input File <==

--------------------------------------------------------------------------
#psi4
#
memory 32 gb

molecule  {
0 1
  S       -1.2120266    -0.0778036     0.0391083
  C        1.2766570     0.7093650     0.2807600
  C        1.2766500    -0.7093720    -0.2807680
  C       -0.0542300     1.3297750    -0.1396080
  C       -0.0542340    -1.3297710     0.1396230
  H        1.3396290     0.6711660     1.3740810
  H        2.1212810     1.3027060    -0.0855190
  H        1.3396020    -0.6711730    -1.3740910
  H        2.1212770    -1.3027160     0.0854980
  H       -0.3428840     2.1673020     0.4996790
  H       -0.0077520     1.6828060    -1.1735290
  H       -0.3428960    -2.1673120    -0.4996450
  H       -0.0077460    -1.6827810     1.1735500
units angstrom
no_reorient  #important for SAPT in psi4, default
symmetry c1  #important for SAPT in psi4, default
}

set PROPERTIES_ORIGIN ["COM"]
properties('MP2/aug-cc-pvtz', properties = ['dipole'])
--------------------------------------------------------------------------

    Molecular point group: c1
  Charge       = 0
  Multiplicity = 1
  Basis Set: AUG-CC-PVTZ
    Blend: AUG-CC-PVTZ
  Basis Set: (AUG-CC-PVTZ AUX)
    Blend: AUG-CC-PVTZ-JKFIT

    Orbital Energies [Eh]
    ---------------------

    Doubly Occupied:

       1A    -91.928241     2A    -11.253208     3A    -11.242706
       4A    -11.233143     5A    -11.232320     6A     -8.931820
       7A     -6.613227     8A     -6.612342     9A     -6.611236
      10A     -1.140289    11A     -0.993945    12A     -0.967820
      13A     -0.796453    14A     -0.775057    15A     -0.659179
      16A     -0.640166    17A     -0.598242    18A     -0.549302
      19A     -0.513582    20A     -0.492082    21A     -0.486617
      22A     -0.481251    23A     -0.413978    24A     -0.324933

  @DF-RHF Final Energy:  -553.72555604003571

   => Energetics <=

    Nuclear Repulsion Energy =            239.3670968884945296
    One-Electron Energy =               -1235.2030270154782556
    Two-Electron Energy =                 442.1103740869480134
    Total Energy =                       -553.7255560400357126
  Basis Set: (AUG-CC-PVTZ AUX)
    Blend: AUG-CC-PVTZ-RI
    Molecular point group: c1

    Geometry (in Angstrom), charge = 0, multiplicity = 1:

       Center              X                  Y                   Z               Mass
    ------------   -----------------  -----------------  -----------------  -----------------
         S           -1.176316828267    -0.049546775592     0.024903878963    31.972071174400
         C            1.312366771733     0.737621824408     0.266555578963    12.000000000000
         C            1.312359771733    -0.681115175592    -0.294972421037    12.000000000000
         C           -0.018520228267     1.358031824408    -0.153812421037    12.000000000000
         C           -0.018524228267    -1.301514175592     0.125418578963    12.000000000000
         H            1.375338771733     0.699422824408     1.359876578963     1.007825032230
         H            2.156990771733     1.330962824408    -0.099723421037     1.007825032230
         H            1.375311771733    -0.642916175592    -1.388295421037     1.007825032230
         H            2.156986771733    -1.274459175592     0.071293578963     1.007825032230
         H           -0.307174228267     2.195558824408     0.485474578963     1.007825032230
         H            0.027957771733     1.711062824408    -1.187733421037     1.007825032230
         H           -0.307186228267    -2.139055175592    -0.513849421037     1.007825032230
         H            0.027963771733    -1.654524175592     1.159345578963     1.007825032230

  Basis Set: AUG-CC-PVTZ
    Blend: AUG-CC-PVTZ
  Basis Set: (AUG-CC-PVTZ AUX)
    Blend: AUG-CC-PVTZ-JKFIT
	 Reference Energy          =    -553.7255560400357126 [Eh]
	 Singles Energy            =      -0.0000000000000000 [Eh]
	 Same-Spin Energy          =      -0.2271726919573130 [Eh]
	 Opposite-Spin Energy      =      -0.7711736649621634 [Eh]
	 Correlation Energy        =      -0.9983463569194764 [Eh]
	 Total Energy              =    -554.7239023969551681 [Eh]

	 ================> DF-SCS-MP2 Energies <==================
	-----------------------------------------------------------
	 SCS Same-Spin Scale       =       0.3333333333333333 [-]
	 SCS Opposite-Spin Scale   =       1.2000000000000000 [-]
	 SCS Same-Spin Energy      =      -0.0757242306524377 [Eh]
	 SCS Opposite-Spin Energy  =      -0.9254083979545961 [Eh]
	 SCS Correlation Energy    =      -1.0011326286070337 [Eh]
	 SCS Total Energy          =    -554.7266886686427370 [Eh]
	-----------------------------------------------------------

  Dipole Moment: [D]
     X:     2.0825      Y:     0.0576      Z:    -0.0415     Total:     2.0837

*** Psi4 exiting successfully. Buy a developer a beer!
