                               Psi4 1.3.2 release

  ==> Input File <==

--------------------------------------------------------------------------
#psi4
#
memory 32 gb

molecule  {
0 1
  S       -1.3055980     0.0000010    -0.0000040
  C        1.2766570     0.7093650     0.2807600
  C        1.2734026    -0.6889472    -0.3298470
  C       -0.0542300     1.3297750    -0.1396080
  C       -0.0542340    -1.3297710     0.1396230
  H        1.3396290     0.6711660     1.3740810
  H        2.1212810     1.3027060    -0.0855190
  H        1.3396020    -0.6711730    -1.3740910
  H        2.1212770    -1.3027160     0.0854980
  H       -0.3428840     2.1673020     0.4996790
  H       -0.0077520     1.6828060    -1.1735290
  H       -0.3428960    -2.1673120    -0.4996450
  H       -0.0077460    -1.6827810     1.1735500
units angstrom
no_reorient  #important for SAPT in psi4, default
symmetry c1  #important for SAPT in psi4, default
}

set PROPERTIES_ORIGIN ["COM"]
properties('MP2/aug-cc-pvtz', properties = ['dipole'])
--------------------------------------------------------------------------

    Molecular point group: c1
  Charge       = 0
  Multiplicity = 1
  Basis Set: AUG-CC-PVTZ
    Blend: AUG-CC-PVTZ
  Basis Set: (AUG-CC-PVTZ AUX)
    Blend: AUG-CC-PVTZ-JKFIT

    Orbital Energies [Eh]
    ---------------------

    Doubly Occupied:

       1A    -91.934765     2A    -11.253426     3A    -11.251811
       4A    -11.233460     5A    -11.232780     6A     -8.935483
       7A     -6.616650     8A     -6.615891     9A     -6.614886
      10A     -1.125791    11A     -0.981074    12A     -0.964925
      13A     -0.796980    14A     -0.778329    15A     -0.654905
      16A     -0.634106    17A     -0.598439    18A     -0.550657
      19A     -0.499144    20A     -0.492082    21A     -0.484153
      22A     -0.473051    23A     -0.418641    24A     -0.329588

  @DF-RHF Final Energy:  -553.73026344478421

   => Energetics <=

    Nuclear Repulsion Energy =            235.5166517672705311
    One-Electron Energy =               -1227.5517951686117613
    Two-Electron Energy =                 438.3048799565570448
    Total Energy =                       -553.7302634447842138
  Basis Set: (AUG-CC-PVTZ AUX)
    Blend: AUG-CC-PVTZ-RI
    Molecular point group: c1

    Geometry (in Angstrom), charge = 0, multiplicity = 1:

       Center              X                  Y                   Z               Mass
    ------------   -----------------  -----------------  -----------------  -----------------
         S           -1.235462697833    -0.002783034431     0.006686178891    31.972071174400
         C            1.346792302167     0.706580965569     0.287450178891    12.000000000000
         C            1.343537902167    -0.691731234431    -0.323156821109    12.000000000000
         C            0.015905302167     1.326990965569    -0.132917821109    12.000000000000
         C            0.015901302167    -1.332555034431     0.146313178891    12.000000000000
         H            1.409764302167     0.668381965569     1.380771178891     1.007825032230
         H            2.191416302167     1.299921965569    -0.078828821109     1.007825032230
         H            1.409737302167    -0.673957034431    -1.367400821109     1.007825032230
         H            2.191412302167    -1.305500034431     0.092188178891     1.007825032230
         H           -0.272748697833     2.164517965569     0.506369178891     1.007825032230
         H            0.062383302167     1.680021965569    -1.166838821109     1.007825032230
         H           -0.272760697833    -2.170096034431    -0.492954821109     1.007825032230
         H            0.062389302167    -1.685565034431     1.180240178891     1.007825032230

  Basis Set: AUG-CC-PVTZ
    Blend: AUG-CC-PVTZ
  Basis Set: (AUG-CC-PVTZ AUX)
    Blend: AUG-CC-PVTZ-JKFIT
	 Reference Energy          =    -553.7302634447842138 [Eh]
	 Singles Energy            =      -0.0000000000000000 [Eh]
	 Same-Spin Energy          =      -0.2260996428204108 [Eh]
	 Opposite-Spin Energy      =      -0.7712192790429380 [Eh]
	 Correlation Energy        =      -0.9973189218633487 [Eh]
	 Total Energy              =    -554.7275823666475389 [Eh]

	 ================> DF-SCS-MP2 Energies <==================
	-----------------------------------------------------------
	 SCS Same-Spin Scale       =       0.3333333333333333 [-]
	 SCS Opposite-Spin Scale   =       1.2000000000000000 [-]
	 SCS Same-Spin Energy      =      -0.0753665476068036 [Eh]
	 SCS Opposite-Spin Energy  =      -0.9254631348515255 [Eh]
	 SCS Correlation Energy    =      -1.0008296824583292 [Eh]
	 SCS Total Energy          =    -554.7310931272425023 [Eh]
	-----------------------------------------------------------

  Dipole Moment: [D]
     X:     2.1256      Y:    -0.0017      Z:    -0.0247     Total:     2.1258

*** Psi4 exiting successfully. Buy a developer a beer!
