                               Psi4 1.4a3.dev225

  ==> Input File <==

--------------------------------------------------------------------------
#psi4
#
memory 32 gb

molecule  {
0 1
  S       -1.3055980     0.0000010    -0.0000040
  C        1.2766570     0.7093650     0.2807600
  C        1.2766500    -0.7093720    -0.2807680
  C       -0.0542300     1.3297750    -0.1396080
  C       -0.0542340    -1.3297710     0.1396230
  H        1.3396290     0.6711660     1.3740810
  H        2.1212810     1.3027060    -0.0855190
  H        1.3396020    -0.6711730    -1.3740910
  H        2.1212770    -1.3027160     0.0854980
  H       -0.3296728     2.1289697     0.4704198
  H       -0.0077520     1.6828060    -1.1735290
  H       -0.3428960    -2.1673120    -0.4996450
  H       -0.0077460    -1.6827810     1.1735500
units angstrom
no_reorient  #important for SAPT in psi4, default
symmetry c1  #important for SAPT in psi4, default
}

set PROPERTIES_ORIGIN ["COM"]
properties('MP2/aug-cc-pvtz', properties = ['dipole'])
--------------------------------------------------------------------------

    Molecular point group: c1
  Charge       = 0
  Multiplicity = 1
  Basis Set: AUG-CC-PVTZ
    Blend: AUG-CC-PVTZ
  Basis Set: (AUG-CC-PVTZ AUX)
    Blend: AUG-CC-PVTZ-JKFIT

    Orbital Energies [Eh]
    ---------------------

    Doubly Occupied:

       1A    -91.935215     2A    -11.252217     3A    -11.246500
       4A    -11.233080     5A    -11.232456     6A     -8.935913
       7A     -6.617093     8A     -6.616315     9A     -6.615313
      10A     -1.126971    11A     -0.985847    12A     -0.965010
      13A     -0.793726    14A     -0.782581    15A     -0.657466
      16A     -0.638831    17A     -0.597924    18A     -0.546621
      19A     -0.504854    20A     -0.490617    21A     -0.481144
      22A     -0.476452    23A     -0.420713    24A     -0.330055

  @DF-RHF Final Energy:  -553.73262232456273

   => Energetics <=

    Nuclear Repulsion Energy =            235.8299024762367821
    One-Electron Energy =               -1228.1592247988778581
    Two-Electron Energy =                 438.5966999980782930
    Total Energy =                       -553.7326223245627261
  Basis Set: (AUG-CC-PVTZ AUX)
    Blend: AUG-CC-PVTZ-RI
    Molecular point group: c1

    Geometry (in Angstrom), charge = 0, multiplicity = 1:

       Center              X                  Y                   Z               Mass
    ------------   -----------------  -----------------  -----------------  -----------------
         S           -1.236056593138     0.000439898612     0.000331184470    31.972071174400
         C            1.346198406862     0.709803898612     0.281095184470    12.000000000000
         C            1.346191406862    -0.708933101388    -0.280432815530    12.000000000000
         C            0.015311406862     1.330213898612    -0.139272815530    12.000000000000
         C            0.015307406862    -1.329332101388     0.139958184470    12.000000000000
         H            1.409170406862     0.671604898612     1.374416184470     1.007825032230
         H            2.190822406862     1.303144898612    -0.085183815530     1.007825032230
         H            1.409143406862    -0.670734101388    -1.373755815530     1.007825032230
         H            2.190818406862    -1.302277101388     0.085833184470     1.007825032230
         H           -0.260131393138     2.129408598612     0.470754984470     1.007825032230
         H            0.061789406862     1.683244898612    -1.173193815530     1.007825032230
         H           -0.273354593138    -2.166873101388    -0.499309815530     1.007825032230
         H            0.061795406862    -1.682342101388     1.173885184470     1.007825032230

  Basis Set: AUG-CC-PVTZ
    Blend: AUG-CC-PVTZ
  Basis Set: (AUG-CC-PVTZ AUX)
    Blend: AUG-CC-PVTZ-JKFIT
	 Reference Energy          =    -553.7326223245627261 [Eh]
	 Singles Energy            =      -0.0000000000000000 [Eh]
	 Same-Spin Energy          =      -0.2260380939957758 [Eh]
	 Opposite-Spin Energy      =      -0.7708616559020063 [Eh]
	 Correlation Energy        =      -0.9968997498977821 [Eh]
	 Total Energy              =    -554.7295220744605331 [Eh]

	 ================> DF-SCS-MP2 Energies <==================
	-----------------------------------------------------------
	 SCS Same-Spin Scale       =       0.3333333333333333 [-]
	 SCS Opposite-Spin Scale   =       1.2000000000000000 [-]
	 SCS Same-Spin Energy      =      -0.0753460313319253 [Eh]
	 SCS Opposite-Spin Energy  =      -0.9250339870824075 [Eh]
	 SCS Correlation Energy    =      -1.0003800184143328 [Eh]
	 SCS Total Energy          =    -554.7330023429771018 [Eh]
	-----------------------------------------------------------

  Dipole Moment: [D]
     X:     2.1140      Y:     0.0232      Z:     0.0021     Total:     2.1142

*** Psi4 exiting successfully. Buy a developer a beer!
