                               Psi4 1.3.2 release

  ==> Input File <==

--------------------------------------------------------------------------
#psi4
#
memory 32 gb

molecule  {
0 1
  S       -1.3055980     0.0000010    -0.0000040
  C        1.2766570     0.7093650     0.2807600
  C        1.2766500    -0.7093720    -0.2807680
  C       -0.0083288     1.2855316    -0.1349624
  C       -0.0542340    -1.3297710     0.1396230
  H        1.3396290     0.6711660     1.3740810
  H        2.1212810     1.3027060    -0.0855190
  H        1.3396020    -0.6711730    -1.3740910
  H        2.1212770    -1.3027160     0.0854980
  H       -0.3428840     2.1673020     0.4996790
  H       -0.0077520     1.6828060    -1.1735290
  H       -0.3428960    -2.1673120    -0.4996450
  H       -0.0077460    -1.6827810     1.1735500
units angstrom
no_reorient  #important for SAPT in psi4, default
symmetry c1  #important for SAPT in psi4, default
}

set PROPERTIES_ORIGIN ["COM"]
properties('MP2/aug-cc-pvtz', properties = ['dipole'])
--------------------------------------------------------------------------

    Molecular point group: c1
  Charge       = 0
  Multiplicity = 1
  Basis Set: AUG-CC-PVTZ
    Blend: AUG-CC-PVTZ
  Basis Set: (AUG-CC-PVTZ AUX)
    Blend: AUG-CC-PVTZ-JKFIT

    Orbital Energies [Eh]
    ---------------------

    Doubly Occupied:

       1A    -91.936029     2A    -11.254494     3A    -11.252254
       4A    -11.233069     5A    -11.229803     6A     -8.936760
       7A     -6.617929     8A     -6.617103     9A     -6.616095
      10A     -1.133655    11A     -0.987056    12A     -0.964630
      13A     -0.792997    14A     -0.775244    15A     -0.656032
      16A     -0.643868    17A     -0.594104    18A     -0.542241
      19A     -0.507983    20A     -0.492497    21A     -0.475054
      22A     -0.471691    23A     -0.425614    24A     -0.329062

  @DF-RHF Final Energy:  -553.72830953904497

   => Energetics <=

    Nuclear Repulsion Energy =            236.3632246072716327
    One-Electron Energy =               -1229.2125389704917779
    Two-Electron Energy =                 439.1210048241752588
    Total Energy =                       -553.7283095390448580
  Basis Set: (AUG-CC-PVTZ AUX)
    Blend: AUG-CC-PVTZ-RI
    Molecular point group: c1

    Geometry (in Angstrom), charge = 0, multiplicity = 1:

       Center              X                  Y                   Z               Mass
    ------------   -----------------  -----------------  -----------------  -----------------
         S           -1.242162140114     0.006031883457    -0.000637017635    31.972071174400
         C            1.340092859886     0.715395883457     0.280126982365    12.000000000000
         C            1.340085859886    -0.703341116543    -0.281401017635    12.000000000000
         C            0.055107059886     1.291562483457    -0.135595417635    12.000000000000
         C            0.009201859886    -1.323740116543     0.138989982365    12.000000000000
         H            1.403064859886     0.677196883457     1.373447982365     1.007825032230
         H            2.184716859886     1.308736883457    -0.086152017635     1.007825032230
         H            1.403037859886    -0.665142116543    -1.374724017635     1.007825032230
         H            2.184712859886    -1.296685116543     0.084864982365     1.007825032230
         H           -0.279448140114     2.173332883457     0.499045982365     1.007825032230
         H            0.055683859886     1.688836883457    -1.174162017635     1.007825032230
         H           -0.279460140114    -2.161281116543    -0.500278017635     1.007825032230
         H            0.055689859886    -1.676750116543     1.172916982365     1.007825032230

  Basis Set: AUG-CC-PVTZ
    Blend: AUG-CC-PVTZ
  Basis Set: (AUG-CC-PVTZ AUX)
    Blend: AUG-CC-PVTZ-JKFIT
	 Reference Energy          =    -553.7283095390449716 [Eh]
	 Singles Energy            =      -0.0000000000000000 [Eh]
	 Same-Spin Energy          =      -0.2267567087859421 [Eh]
	 Opposite-Spin Energy      =      -0.7719668678716500 [Eh]
	 Correlation Energy        =      -0.9987235766575921 [Eh]
	 Total Energy              =    -554.7270331157025112 [Eh]

	 ================> DF-SCS-MP2 Energies <==================
	-----------------------------------------------------------
	 SCS Same-Spin Scale       =       0.3333333333333333 [-]
	 SCS Opposite-Spin Scale   =       1.2000000000000000 [-]
	 SCS Same-Spin Energy      =      -0.0755855695953140 [Eh]
	 SCS Opposite-Spin Energy  =      -0.9263602414459799 [Eh]
	 SCS Correlation Energy    =      -1.0019458110412940 [Eh]
	 SCS Total Energy          =    -554.7302553500862814 [Eh]
	-----------------------------------------------------------

  Dipole Moment: [D]
     X:     2.1001      Y:    -0.0214      Z:    -0.0035     Total:     2.1002

*** Psi4 exiting successfully. Buy a developer a beer!
