                               Psi4 1.4a3.dev225

  ==> Input File <==

--------------------------------------------------------------------------
#psi4
#
memory 32 gb

molecule  {
0 1
  S       -1.3055980     0.0000010    -0.0000040
  C        1.2766570     0.7093650     0.2807600
  C        1.2766500    -0.7093720    -0.2807680
  C       -0.0200641     1.3660816    -0.1434196
  C       -0.0542340    -1.3297710     0.1396230
  H        1.3396290     0.6711660     1.3740810
  H        2.1212810     1.3027060    -0.0855190
  H        1.3396020    -0.6711730    -1.3740910
  H        2.1212770    -1.3027160     0.0854980
  H       -0.3428840     2.1673020     0.4996790
  H       -0.0077520     1.6828060    -1.1735290
  H       -0.3428960    -2.1673120    -0.4996450
  H       -0.0077460    -1.6827810     1.1735500
units angstrom
no_reorient  #important for SAPT in psi4, default
symmetry c1  #important for SAPT in psi4, default
}

set PROPERTIES_ORIGIN ["COM"]
properties('MP2/aug-cc-pvtz', properties = ['dipole'])
--------------------------------------------------------------------------

    Molecular point group: c1
  Charge       = 0
  Multiplicity = 1
  Basis Set: AUG-CC-PVTZ
    Blend: AUG-CC-PVTZ
  Basis Set: (AUG-CC-PVTZ AUX)
    Blend: AUG-CC-PVTZ-JKFIT

    Orbital Energies [Eh]
    ---------------------

    Doubly Occupied:

       1A    -91.934463     2A    -11.253318     3A    -11.251885
       4A    -11.233754     5A    -11.232956     6A     -8.934593
       7A     -6.615700     8A     -6.614946     9A     -6.613970
      10A     -1.124852    11A     -0.986231    12A     -0.960236
      13A     -0.793730    14A     -0.780919    15A     -0.657536
      16A     -0.637024    17A     -0.600902    18A     -0.547250
      19A     -0.507253    20A     -0.493574    21A     -0.481970
      22A     -0.468568    23A     -0.414451    24A     -0.329965

  @DF-RHF Final Energy:  -553.73245230081216

   => Energetics <=

    Nuclear Repulsion Energy =            234.8981441733876636
    One-Electron Energy =               -1226.3210963783728857
    Two-Electron Energy =                 437.6904999041730662
    Total Energy =                       -553.7324523008121560
  Basis Set: (AUG-CC-PVTZ AUX)
    Blend: AUG-CC-PVTZ-RI
    Molecular point group: c1

    Geometry (in Angstrom), charge = 0, multiplicity = 1:

       Center              X                  Y                   Z               Mass
    ------------   -----------------  -----------------  -----------------  -----------------
         S           -1.240562502179    -0.004947881496     0.000515782714    31.972071174400
         C            1.341692497821     0.704416118504     0.281279782714    12.000000000000
         C            1.341685497821    -0.714320881496    -0.280248217286    12.000000000000
         C            0.044971397821     1.361132718504    -0.142899817286    12.000000000000
         C            0.010801497821    -1.334719881496     0.140142782714    12.000000000000
         H            1.404664497821     0.666217118504     1.374600782714     1.007825032230
         H            2.186316497821     1.297757118504    -0.084999217286     1.007825032230
         H            1.404637497821    -0.676121881496    -1.373571217286     1.007825032230
         H            2.186312497821    -1.307664881496     0.086017782714     1.007825032230
         H           -0.277848502179     2.162353118504     0.500198782714     1.007825032230
         H            0.057283497821     1.677857118504    -1.173009217286     1.007825032230
         H           -0.277860502179    -2.172260881496    -0.499125217286     1.007825032230
         H            0.057289497821    -1.687729881496     1.174069782714     1.007825032230

  Basis Set: AUG-CC-PVTZ
    Blend: AUG-CC-PVTZ
  Basis Set: (AUG-CC-PVTZ AUX)
    Blend: AUG-CC-PVTZ-JKFIT
	 Reference Energy          =    -553.7324523008121560 [Eh]
	 Singles Energy            =      -0.0000000000000000 [Eh]
	 Same-Spin Energy          =      -0.2259395899238705 [Eh]
	 Opposite-Spin Energy      =      -0.7711416779111275 [Eh]
	 Correlation Energy        =      -0.9970812678349981 [Eh]
	 Total Energy              =    -554.7295335686471844 [Eh]

	 ================> DF-SCS-MP2 Energies <==================
	-----------------------------------------------------------
	 SCS Same-Spin Scale       =       0.3333333333333333 [-]
	 SCS Opposite-Spin Scale   =       1.2000000000000000 [-]
	 SCS Same-Spin Energy      =      -0.0753131966412902 [Eh]
	 SCS Opposite-Spin Energy  =      -0.9253700134933530 [Eh]
	 SCS Correlation Energy    =      -1.0006832101346432 [Eh]
	 SCS Total Energy          =    -554.7331355109467950 [Eh]
	-----------------------------------------------------------

  Dipole Moment: [D]
     X:     2.1627      Y:     0.0533      Z:    -0.0090     Total:     2.1634

*** Psi4 exiting successfully. Buy a developer a beer!
