                               Psi4 1.3.2 release

  ==> Input File <==

--------------------------------------------------------------------------
#psi4
#
memory 32 gb

molecule  {
0 1
  S       -1.3055980     0.0000010    -0.0000040
  C        1.2766570     0.7093650     0.2807600
  C        1.2766491    -0.8953358    -0.3543714
  C       -0.0542300     1.3297750    -0.1396080
  C       -0.0542340    -1.3297710     0.1396230
  H        1.3396290     0.6711660     1.3740810
  H        2.1212810     1.3027060    -0.0855190
  H        1.3396020    -0.6711730    -1.3740910
  H        2.1212770    -1.3027160     0.0854980
  H       -0.3428840     2.1673020     0.4996790
  H       -0.0077520     1.6828060    -1.1735290
  H       -0.3428960    -2.1673120    -0.4996450
  H       -0.0077460    -1.6827810     1.1735500
units angstrom
no_reorient  #important for SAPT in psi4, default
symmetry c1  #important for SAPT in psi4, default
}

set PROPERTIES_ORIGIN ["COM"]
properties('MP2/aug-cc-pvtz', properties = ['dipole'])
--------------------------------------------------------------------------

    Molecular point group: c1
  Charge       = 0
  Multiplicity = 1
  Basis Set: AUG-CC-PVTZ
    Blend: AUG-CC-PVTZ
  Basis Set: (AUG-CC-PVTZ AUX)
    Blend: AUG-CC-PVTZ-JKFIT

    Orbital Energies [Eh]
    ---------------------

    Doubly Occupied:

       1A    -91.937978     2A    -11.252781     3A    -11.251403
       4A    -11.238173     5A    -11.232576     6A     -8.938475
       7A     -6.619672     8A     -6.618786     9A     -6.617825
      10A     -1.114676    11A     -0.993445    12A     -0.950495
      13A     -0.802341    14A     -0.777093    15A     -0.660143
      16A     -0.627261    17A     -0.600902    18A     -0.552946
      19A     -0.517369    20A     -0.502235    21A     -0.481938
      22A     -0.435950    23A     -0.409845    24A     -0.331944

  @DF-RHF Final Energy:  -553.70485768952665

   => Energetics <=

    Nuclear Repulsion Energy =            233.6562973451854646
    One-Electron Energy =               -1223.7898072105219853
    Two-Electron Energy =                 436.4286521758098161
    Total Energy =                       -553.7048576895266478
  Basis Set: (AUG-CC-PVTZ AUX)
    Blend: AUG-CC-PVTZ-RI
    Molecular point group: c1

    Geometry (in Angstrom), charge = 0, multiplicity = 1:

       Center              X                  Y                   Z               Mass
    ------------   -----------------  -----------------  -----------------  -----------------
         S           -1.235905228024     0.025349781421     0.010029098166    31.972071174400
         C            1.346349771976     0.734713781421     0.290793098166    12.000000000000
         C            1.346341871976    -0.869987018579    -0.344338301834    12.000000000000
         C            0.015462771976     1.355123781421    -0.129574901834    12.000000000000
         C            0.015458771976    -1.304422218579     0.149656098166    12.000000000000
         H            1.409321771976     0.696514781421     1.384114098166     1.007825032230
         H            2.190973771976     1.328054781421    -0.075485901834     1.007825032230
         H            1.409294771976    -0.645824218579    -1.364057901834     1.007825032230
         H            2.190969771976    -1.277367218579     0.095531098166     1.007825032230
         H           -0.273191228024     2.192650781421     0.509712098166     1.007825032230
         H            0.061940771976     1.708154781421    -1.163495901834     1.007825032230
         H           -0.273203228024    -2.141963218579    -0.489611901834     1.007825032230
         H            0.061946771976    -1.657432218579     1.183583098166     1.007825032230

  Basis Set: AUG-CC-PVTZ
    Blend: AUG-CC-PVTZ
  Basis Set: (AUG-CC-PVTZ AUX)
    Blend: AUG-CC-PVTZ-JKFIT
	 Reference Energy          =    -553.7048576895266478 [Eh]
	 Singles Energy            =      -0.0000000000000000 [Eh]
	 Same-Spin Energy          =      -0.2267566763108341 [Eh]
	 Opposite-Spin Energy      =      -0.7733378307388592 [Eh]
	 Correlation Energy        =      -1.0000945070496934 [Eh]
	 Total Energy              =    -554.7049521965763006 [Eh]

	 ================> DF-SCS-MP2 Energies <==================
	-----------------------------------------------------------
	 SCS Same-Spin Scale       =       0.3333333333333333 [-]
	 SCS Opposite-Spin Scale   =       1.2000000000000000 [-]
	 SCS Same-Spin Energy      =      -0.0755855587702780 [Eh]
	 SCS Opposite-Spin Energy  =      -0.9280053968866310 [Eh]
	 SCS Correlation Energy    =      -1.0035909556569089 [Eh]
	 SCS Total Energy          =    -554.7084486451835801 [Eh]
	-----------------------------------------------------------

  Dipole Moment: [D]
     X:     2.0681      Y:     0.0382      Z:     0.0050     Total:     2.0685

*** Psi4 exiting successfully. Buy a developer a beer!
