                               Psi4 1.4a3.dev225

  ==> Input File <==

--------------------------------------------------------------------------
#psi4
#
memory 32 gb

molecule  {
0 1
  S       -1.3055980     0.0000010    -0.0000040
  C        1.2766570     0.7093650     0.2807600
  C        1.2766502    -0.6628810    -0.2623671
  C       -0.0542300     1.3297750    -0.1396080
  C       -0.0542340    -1.3297710     0.1396230
  H        1.3396290     0.6711660     1.3740810
  H        2.1212810     1.3027060    -0.0855190
  H        1.3396020    -0.6711730    -1.3740910
  H        2.1212770    -1.3027160     0.0854980
  H       -0.3428840     2.1673020     0.4996790
  H       -0.0077520     1.6828060    -1.1735290
  H       -0.3428960    -2.1673120    -0.4996450
  H       -0.0077460    -1.6827810     1.1735500
units angstrom
no_reorient  #important for SAPT in psi4, default
symmetry c1  #important for SAPT in psi4, default
}

set PROPERTIES_ORIGIN ["COM"]
properties('MP2/aug-cc-pvtz', properties = ['dipole'])
--------------------------------------------------------------------------

    Molecular point group: c1
  Charge       = 0
  Multiplicity = 1
  Basis Set: AUG-CC-PVTZ
    Blend: AUG-CC-PVTZ
  Basis Set: (AUG-CC-PVTZ AUX)
    Blend: AUG-CC-PVTZ-JKFIT

    Orbital Energies [Eh]
    ---------------------

    Doubly Occupied:

       1A    -91.935126     2A    -11.253329     3A    -11.252563
       4A    -11.234979     5A    -11.231198     6A     -8.935842
       7A     -6.617008     8A     -6.616258     9A     -6.615242
      10A     -1.131397    11A     -0.981260    12A     -0.969378
      13A     -0.789716    14A     -0.780768    15A     -0.656134
      16A     -0.640742    17A     -0.595393    18A     -0.545296
      19A     -0.503335    20A     -0.498965    21A     -0.475913
      22A     -0.473502    23A     -0.420226    24A     -0.329570

  @DF-RHF Final Energy:  -553.73065435980163

   => Energetics <=

    Nuclear Repulsion Energy =            236.0648151532434156
    One-Electron Energy =               -1228.6246596136261360
    Two-Electron Energy =                 438.8291901005810018
    Total Energy =                       -553.7306543598017470
  Basis Set: (AUG-CC-PVTZ AUX)
    Blend: AUG-CC-PVTZ-RI
    Molecular point group: c1

    Geometry (in Angstrom), charge = 0, multiplicity = 1:

       Center              X                  Y                   Z               Mass
    ------------   -----------------  -----------------  -----------------  -----------------
         S           -1.235905377965    -0.006336116358    -0.002512001631    31.972071174400
         C            1.346349622035     0.703027883642     0.278251998369    12.000000000000
         C            1.346342822035    -0.669218116358    -0.264875101631    12.000000000000
         C            0.015462622035     1.323437883642    -0.142116001631    12.000000000000
         C            0.015458622035    -1.336108116358     0.137114998369    12.000000000000
         H            1.409321622035     0.664828883642     1.371572998369     1.007825032230
         H            2.190973622035     1.296368883642    -0.088027001631     1.007825032230
         H            1.409294622035    -0.677510116358    -1.376599001631     1.007825032230
         H            2.190969622035    -1.309053116358     0.082989998369     1.007825032230
         H           -0.273191377965     2.160964883642     0.497170998369     1.007825032230
         H            0.061940622035     1.676468883642    -1.176037001631     1.007825032230
         H           -0.273203377965    -2.173649116358    -0.502153001631     1.007825032230
         H            0.061946622035    -1.689118116358     1.171041998369     1.007825032230

  Basis Set: AUG-CC-PVTZ
    Blend: AUG-CC-PVTZ
  Basis Set: (AUG-CC-PVTZ AUX)
    Blend: AUG-CC-PVTZ-JKFIT
	 Reference Energy          =    -553.7306543598016333 [Eh]
	 Singles Energy            =      -0.0000000000000000 [Eh]
	 Same-Spin Energy          =      -0.2263963294389578 [Eh]
	 Opposite-Spin Energy      =      -0.7714963567723756 [Eh]
	 Correlation Energy        =      -0.9978926862113333 [Eh]
	 Total Energy              =    -554.7285470460129773 [Eh]

	 ================> DF-SCS-MP2 Energies <==================
	-----------------------------------------------------------
	 SCS Same-Spin Scale       =       0.3333333333333333 [-]
	 SCS Opposite-Spin Scale   =       1.2000000000000000 [-]
	 SCS Same-Spin Energy      =      -0.0754654431463193 [Eh]
	 SCS Opposite-Spin Energy  =      -0.9257956281268507 [Eh]
	 SCS Correlation Energy    =      -1.0012610712731700 [Eh]
	 SCS Total Energy          =    -554.7319154310747535 [Eh]
	-----------------------------------------------------------

  Dipole Moment: [D]
     X:     2.1220      Y:     0.0015      Z:     0.0042     Total:     2.1220

*** Psi4 exiting successfully. Buy a developer a beer!
