                               Psi4 1.4a3.dev225

  ==> Input File <==

--------------------------------------------------------------------------
#psi4
#
memory 32 gb

molecule  {
0 1
  S       -1.3055980     0.0000010    -0.0000040
  C        1.2766570     0.7093650     0.2807600
  C        1.2766500    -0.7093720    -0.2807680
  C       -0.0678963     1.3152524    -0.1380834
  C       -0.0542340    -1.3297710     0.1396230
  H        1.3396290     0.6711660     1.3740810
  H        2.1212810     1.3027060    -0.0855190
  H        1.3396020    -0.6711730    -1.3740910
  H        2.1212770    -1.3027160     0.0854980
  H       -0.3428840     2.1673020     0.4996790
  H       -0.0077520     1.6828060    -1.1735290
  H       -0.3428960    -2.1673120    -0.4996450
  H       -0.0077460    -1.6827810     1.1735500
units angstrom
no_reorient  #important for SAPT in psi4, default
symmetry c1  #important for SAPT in psi4, default
}

set PROPERTIES_ORIGIN ["COM"]
properties('MP2/aug-cc-pvtz', properties = ['dipole'])
--------------------------------------------------------------------------

    Molecular point group: c1
  Charge       = 0
  Multiplicity = 1
  Basis Set: AUG-CC-PVTZ
    Blend: AUG-CC-PVTZ
  Basis Set: (AUG-CC-PVTZ AUX)
    Blend: AUG-CC-PVTZ-JKFIT

    Orbital Energies [Eh]
    ---------------------

    Doubly Occupied:

       1A    -91.935917     2A    -11.252626     3A    -11.252303
       4A    -11.233376     5A    -11.232686     6A     -8.936860
       7A     -6.618066     8A     -6.617273     9A     -6.616255
      10A     -1.127431    11A     -0.982385    12A     -0.966753
      13A     -0.792472    14A     -0.778691    15A     -0.654896
      16A     -0.638303    17A     -0.594489    18A     -0.544691
      19A     -0.502444    20A     -0.488220    21A     -0.479931
      22A     -0.479851    23A     -0.423182    24A     -0.329824

  @DF-RHF Final Energy:  -553.73291998244588

   => Energetics <=

    Nuclear Repulsion Energy =            235.8497100598071938
    One-Electron Energy =               -1228.2074103209245095
    Two-Electron Energy =                 438.6247802786714374
    Total Energy =                       -553.7329199824458783
  Basis Set: (AUG-CC-PVTZ AUX)
    Blend: AUG-CC-PVTZ-RI
    Molecular point group: c1

    Geometry (in Angstrom), charge = 0, multiplicity = 1:

       Center              X                  Y                   Z               Mass
    ------------   -----------------  -----------------  -----------------  -----------------
         S           -1.234042498291     0.001980643256    -0.000211594340    31.972071174400
         C            1.348212501709     0.711344643256     0.280552405660    12.000000000000
         C            1.348205501709    -0.707392356744    -0.280975594340    12.000000000000
         C            0.003659201709     1.317232043256    -0.138290994340    12.000000000000
         C            0.017321501709    -1.327791356744     0.139415405660    12.000000000000
         H            1.411184501709     0.673145643256     1.373873405660     1.007825032230
         H            2.192836501709     1.304685643256    -0.085726594340     1.007825032230
         H            1.411157501709    -0.669193356744    -1.374298594340     1.007825032230
         H            2.192832501709    -1.300736356744     0.085290405660     1.007825032230
         H           -0.271328498291     2.169281643256     0.499471405660     1.007825032230
         H            0.063803501709     1.684785643256    -1.173736594340     1.007825032230
         H           -0.271340498291    -2.165332356744    -0.499852594340     1.007825032230
         H            0.063809501709    -1.680801356744     1.173342405660     1.007825032230

  Basis Set: AUG-CC-PVTZ
    Blend: AUG-CC-PVTZ
  Basis Set: (AUG-CC-PVTZ AUX)
    Blend: AUG-CC-PVTZ-JKFIT
	 Reference Energy          =    -553.7329199824458783 [Eh]
	 Singles Energy            =      -0.0000000000000000 [Eh]
	 Same-Spin Energy          =      -0.2261808936648264 [Eh]
	 Opposite-Spin Energy      =      -0.7712511354781026 [Eh]
	 Correlation Energy        =      -0.9974320291429291 [Eh]
	 Total Energy              =    -554.7303520115888205 [Eh]

	 ================> DF-SCS-MP2 Energies <==================
	-----------------------------------------------------------
	 SCS Same-Spin Scale       =       0.3333333333333333 [-]
	 SCS Opposite-Spin Scale   =       1.2000000000000000 [-]
	 SCS Same-Spin Energy      =      -0.0753936312216088 [Eh]
	 SCS Opposite-Spin Energy  =      -0.9255013625737232 [Eh]
	 SCS Correlation Energy    =      -1.0008949937953320 [Eh]
	 SCS Total Energy          =    -554.7338149762412058 [Eh]
	-----------------------------------------------------------

  Dipole Moment: [D]
     X:     2.0991      Y:    -0.0221      Z:     0.0043     Total:     2.0993

*** Psi4 exiting successfully. Buy a developer a beer!
