                               Psi4 1.4a3.dev225

  ==> Input File <==

--------------------------------------------------------------------------
#psi4
#
memory 32 gb

molecule  {
0 1
  S       -1.3055980     0.0000010    -0.0000040
  C        1.2766570     0.7093650     0.2807600
  C        1.2766500    -0.7093720    -0.2807680
  C       -0.0542300     1.3297750    -0.1396080
  C       -0.0542340    -1.3297710     0.1396230
  H        1.3396290     0.6711660     1.3740810
  H        2.1212810     1.3027060    -0.0855190
  H        1.3396020    -0.6711730    -1.3740910
  H        2.1212770    -1.3027160     0.0854980
  H       -0.3481685     2.1826349     0.5113827
  H       -0.0077520     1.6828060    -1.1735290
  H       -0.3428960    -2.1673120    -0.4996450
  H       -0.0077460    -1.6827810     1.1735500
units angstrom
no_reorient  #important for SAPT in psi4, default
symmetry c1  #important for SAPT in psi4, default
}

set PROPERTIES_ORIGIN ["COM"]
properties('MP2/aug-cc-pvtz', properties = ['dipole'])
--------------------------------------------------------------------------

    Molecular point group: c1
  Charge       = 0
  Multiplicity = 1
  Basis Set: AUG-CC-PVTZ
    Blend: AUG-CC-PVTZ
  Basis Set: (AUG-CC-PVTZ AUX)
    Blend: AUG-CC-PVTZ-JKFIT

    Orbital Energies [Eh]
    ---------------------

    Doubly Occupied:

       1A    -91.935769     2A    -11.254748     3A    -11.252519
       4A    -11.233516     5A    -11.232893     6A     -8.936437
       7A     -6.617609     8A     -6.616832     9A     -6.615827
      10A     -1.126481    11A     -0.982501    12A     -0.964838
      13A     -0.792347    14A     -0.778391    15A     -0.654874
      16A     -0.637582    17A     -0.595623    18A     -0.544936
      19A     -0.502894    20A     -0.489850    21A     -0.480121
      22A     -0.476484    23A     -0.421226    24A     -0.329959

  @DF-RHF Final Energy:  -553.73290933414285

   => Energetics <=

    Nuclear Repulsion Energy =            235.4755251710388677
    One-Electron Energy =               -1227.4683524595250219
    Two-Electron Energy =                 438.2599179543433365
    Total Energy =                       -553.7329093341428461
  Basis Set: (AUG-CC-PVTZ AUX)
    Blend: AUG-CC-PVTZ-RI
    Molecular point group: c1

    Geometry (in Angstrom), charge = 0, multiplicity = 1:

       Center              X                  Y                   Z               Mass
    ------------   -----------------  -----------------  -----------------  -----------------
         S           -1.235844853500    -0.000174463106    -0.000137760724    31.972071174400
         C            1.346410146500     0.709189536894     0.280626239276    12.000000000000
         C            1.346403146500    -0.709547463106    -0.280901760724    12.000000000000
         C            0.015523146500     1.329599536894    -0.139741760724    12.000000000000
         C            0.015519146500    -1.329946463106     0.139489239276    12.000000000000
         H            1.409382146500     0.670990536894     1.373947239276     1.007825032230
         H            2.191034146500     1.302530536894    -0.085652760724     1.007825032230
         H            1.409355146500    -0.671348463106    -1.374224760724     1.007825032230
         H            2.191030146500    -1.302891463106     0.085364239276     1.007825032230
         H           -0.278415353500     2.182459436894     0.511248939276     1.007825032230
         H            0.062001146500     1.682630536894    -1.173662760724     1.007825032230
         H           -0.273142853500    -2.167487463106    -0.499778760724     1.007825032230
         H            0.062007146500    -1.682956463106     1.173416239276     1.007825032230

  Basis Set: AUG-CC-PVTZ
    Blend: AUG-CC-PVTZ
  Basis Set: (AUG-CC-PVTZ AUX)
    Blend: AUG-CC-PVTZ-JKFIT
	 Reference Energy          =    -553.7329093341428461 [Eh]
	 Singles Energy            =      -0.0000000000000000 [Eh]
	 Same-Spin Energy          =      -0.2260969168261113 [Eh]
	 Opposite-Spin Energy      =      -0.7713106447835515 [Eh]
	 Correlation Energy        =      -0.9974075616096628 [Eh]
	 Total Energy              =    -554.7303168957524804 [Eh]

	 ================> DF-SCS-MP2 Energies <==================
	-----------------------------------------------------------
	 SCS Same-Spin Scale       =       0.3333333333333333 [-]
	 SCS Opposite-Spin Scale   =       1.2000000000000000 [-]
	 SCS Same-Spin Energy      =      -0.0753656389420371 [Eh]
	 SCS Opposite-Spin Energy  =      -0.9255727737402617 [Eh]
	 SCS Correlation Energy    =      -1.0009384126822989 [Eh]
	 SCS Total Energy          =    -554.7338477468251767 [Eh]
	-----------------------------------------------------------

  Dipole Moment: [D]
     X:     2.1173      Y:    -0.0108      Z:    -0.0013     Total:     2.1173

*** Psi4 exiting successfully. Buy a developer a beer!
