                               Psi4 1.3.2 release

  ==> Input File <==

--------------------------------------------------------------------------
#psi4
#
memory 32 gb

molecule  {
0 1
  S       -1.3055980     0.0000010    -0.0000040
  C        1.2766570     0.7093650     0.2807600
  C        1.2283691    -0.7002410    -0.3013118
  C       -0.0542300     1.3297750    -0.1396080
  C       -0.0542340    -1.3297710     0.1396230
  H        1.3396290     0.6711660     1.3740810
  H        2.1212810     1.3027060    -0.0855190
  H        1.3396020    -0.6711730    -1.3740910
  H        2.1212770    -1.3027160     0.0854980
  H       -0.3428840     2.1673020     0.4996790
  H       -0.0077520     1.6828060    -1.1735290
  H       -0.3428960    -2.1673120    -0.4996450
  H       -0.0077460    -1.6827810     1.1735500
units angstrom
no_reorient  #important for SAPT in psi4, default
symmetry c1  #important for SAPT in psi4, default
}

set PROPERTIES_ORIGIN ["COM"]
properties('MP2/aug-cc-pvtz', properties = ['dipole'])
--------------------------------------------------------------------------

    Molecular point group: c1
  Charge       = 0
  Multiplicity = 1
  Basis Set: AUG-CC-PVTZ
    Blend: AUG-CC-PVTZ
  Basis Set: (AUG-CC-PVTZ AUX)
    Blend: AUG-CC-PVTZ-JKFIT

    Orbital Energies [Eh]
    ---------------------

    Doubly Occupied:

       1A    -91.935113     2A    -11.251967     3A    -11.251764
       4A    -11.234377     5A    -11.233128     6A     -8.935916
       7A     -6.617067     8A     -6.616323     9A     -6.615301
      10A     -1.130952    11A     -0.986849    12A     -0.962959
      13A     -0.792315    14A     -0.780155    15A     -0.655828
      16A     -0.636905    17A     -0.598599    18A     -0.547519
      19A     -0.509630    20A     -0.486630    21A     -0.483118
      22A     -0.470912    23A     -0.418922    24A     -0.330286

  @DF-RHF Final Energy:  -553.73009790898391

   => Energetics <=

    Nuclear Repulsion Energy =            236.2311693442781291
    One-Electron Energy =               -1228.9574608148809602
    Two-Electron Energy =                 438.9961935616188953
    Total Energy =                       -553.7300979089839075
  Basis Set: (AUG-CC-PVTZ AUX)
    Blend: AUG-CC-PVTZ-RI
    Molecular point group: c1

    Geometry (in Angstrom), charge = 0, multiplicity = 1:

       Center              X                  Y                   Z               Mass
    ------------   -----------------  -----------------  -----------------  -----------------
         S           -1.229324184549    -0.001243577331     0.002796547744    31.972071174400
         C            1.352930815451     0.708120422669     0.283560547744    12.000000000000
         C            1.304642915451    -0.701485577331    -0.298511252256    12.000000000000
         C            0.022043815451     1.328530422669    -0.136807452256    12.000000000000
         C            0.022039815451    -1.331015577331     0.142423547744    12.000000000000
         H            1.415902815451     0.669921422669     1.376881547744     1.007825032230
         H            2.197554815451     1.301461422669    -0.082718452256     1.007825032230
         H            1.415875815451    -0.672417577331    -1.371290452256     1.007825032230
         H            2.197550815451    -1.303960577331     0.088298547744     1.007825032230
         H           -0.266610184549     2.166057422669     0.502479547744     1.007825032230
         H            0.068521815451     1.681561422669    -1.170728452256     1.007825032230
         H           -0.266622184549    -2.168556577331    -0.496844452256     1.007825032230
         H            0.068527815451    -1.684025577331     1.176350547744     1.007825032230

  Basis Set: AUG-CC-PVTZ
    Blend: AUG-CC-PVTZ
  Basis Set: (AUG-CC-PVTZ AUX)
    Blend: AUG-CC-PVTZ-JKFIT
	 Reference Energy          =    -553.7300979089839075 [Eh]
	 Singles Energy            =      -0.0000000000000000 [Eh]
	 Same-Spin Energy          =      -0.2264338177902025 [Eh]
	 Opposite-Spin Energy      =      -0.7715164784561730 [Eh]
	 Correlation Energy        =      -0.9979502962463755 [Eh]
	 Total Energy              =    -554.7280482052302659 [Eh]

	 ================> DF-SCS-MP2 Energies <==================
	-----------------------------------------------------------
	 SCS Same-Spin Scale       =       0.3333333333333333 [-]
	 SCS Opposite-Spin Scale   =       1.2000000000000000 [-]
	 SCS Same-Spin Energy      =      -0.0754779392634008 [Eh]
	 SCS Opposite-Spin Energy  =      -0.9258197741474076 [Eh]
	 SCS Correlation Energy    =      -1.0012977134108083 [Eh]
	 SCS Total Energy          =    -554.7313956223947571 [Eh]
	-----------------------------------------------------------

  Dipole Moment: [D]
     X:     2.1059      Y:    -0.0012      Z:    -0.0165     Total:     2.1060

*** Psi4 exiting successfully. Buy a developer a beer!
