                               Psi4 1.3.2 release

  ==> Input File <==

--------------------------------------------------------------------------
#psi4
#
memory 32 gb

molecule  {
0 1
  S       -1.3055980     0.0000010    -0.0000040
  C        1.2766570     0.7093650     0.2807600
  C        1.2798974    -0.7280683    -0.2310049
  C       -0.0542300     1.3297750    -0.1396080
  C       -0.0542340    -1.3297710     0.1396230
  H        1.3396290     0.6711660     1.3740810
  H        2.1212810     1.3027060    -0.0855190
  H        1.3396020    -0.6711730    -1.3740910
  H        2.1212770    -1.3027160     0.0854980
  H       -0.3428840     2.1673020     0.4996790
  H       -0.0077520     1.6828060    -1.1735290
  H       -0.3428960    -2.1673120    -0.4996450
  H       -0.0077460    -1.6827810     1.1735500
units angstrom
no_reorient  #important for SAPT in psi4, default
symmetry c1  #important for SAPT in psi4, default
}

set PROPERTIES_ORIGIN ["COM"]
properties('MP2/aug-cc-pvtz', properties = ['dipole'])
--------------------------------------------------------------------------

    Molecular point group: c1
  Charge       = 0
  Multiplicity = 1
  Basis Set: AUG-CC-PVTZ
    Blend: AUG-CC-PVTZ
  Basis Set: (AUG-CC-PVTZ AUX)
    Blend: AUG-CC-PVTZ-JKFIT

    Orbital Energies [Eh]
    ---------------------

    Doubly Occupied:

       1A    -91.936563     2A    -11.253160     3A    -11.251831
       4A    -11.234130     5A    -11.233229     6A     -8.937194
       7A     -6.618375     8A     -6.617579     9A     -6.616576
      10A     -1.127631    11A     -0.985803    12A     -0.965252
      13A     -0.790223    14A     -0.780759    15A     -0.656044
      16A     -0.642494    17A     -0.594402    18A     -0.541087
      19A     -0.509054    20A     -0.495201    21A     -0.479010
      22A     -0.466904    23A     -0.423107    24A     -0.330437

  @DF-RHF Final Energy:  -553.73031709320423

   => Energetics <=

    Nuclear Repulsion Energy =            235.6234771817780427
    One-Electron Energy =               -1227.7354986954796914
    Two-Electron Energy =                 438.3817044204973286
    Total Energy =                       -553.7303170932043486
  Basis Set: (AUG-CC-PVTZ AUX)
    Blend: AUG-CC-PVTZ-RI
    Molecular point group: c1

    Geometry (in Angstrom), charge = 0, multiplicity = 1:

       Center              X                  Y                   Z               Mass
    ------------   -----------------  -----------------  -----------------  -----------------
         S           -1.236348003573     0.002549560015    -0.006786980953    31.972071174400
         C            1.345906996427     0.711913560015     0.273977019047    12.000000000000
         C            1.349147396427    -0.725519739985    -0.237787880953    12.000000000000
         C            0.015019996427     1.332323560015    -0.146390980953    12.000000000000
         C            0.015015996427    -1.327222439985     0.132840019047    12.000000000000
         H            1.408878996427     0.673714560015     1.367298019047     1.007825032230
         H            2.190530996427     1.305254560015    -0.092301980953     1.007825032230
         H            1.408851996427    -0.668624439985    -1.380873980953     1.007825032230
         H            2.190526996427    -1.300167439985     0.078715019047     1.007825032230
         H           -0.273634003573     2.169850560015     0.492896019047     1.007825032230
         H            0.061497996427     1.685354560015    -1.180311980953     1.007825032230
         H           -0.273646003573    -2.164763439985    -0.506427980953     1.007825032230
         H            0.061503996427    -1.680232439985     1.166767019047     1.007825032230

  Basis Set: AUG-CC-PVTZ
    Blend: AUG-CC-PVTZ
  Basis Set: (AUG-CC-PVTZ AUX)
    Blend: AUG-CC-PVTZ-JKFIT
	 Reference Energy          =    -553.7303170932042349 [Eh]
	 Singles Energy            =      -0.0000000000000000 [Eh]
	 Same-Spin Energy          =      -0.2261636236324550 [Eh]
	 Opposite-Spin Energy      =      -0.7714336355189797 [Eh]
	 Correlation Energy        =      -0.9975972591514347 [Eh]
	 Total Energy              =    -554.7279143523556968 [Eh]

	 ================> DF-SCS-MP2 Energies <==================
	-----------------------------------------------------------
	 SCS Same-Spin Scale       =       0.3333333333333333 [-]
	 SCS Opposite-Spin Scale   =       1.2000000000000000 [-]
	 SCS Same-Spin Energy      =      -0.0753878745441517 [Eh]
	 SCS Opposite-Spin Energy  =      -0.9257203626227756 [Eh]
	 SCS Correlation Energy    =      -1.0011082371669273 [Eh]
	 SCS Total Energy          =    -554.7314253303711666 [Eh]
	-----------------------------------------------------------

  Dipole Moment: [D]
     X:     2.0991      Y:     0.0066      Z:     0.0345     Total:     2.0994

*** Psi4 exiting successfully. Buy a developer a beer!
