                               Psi4 1.3.2 release

  ==> Input File <==

--------------------------------------------------------------------------
#psi4
#
memory 32 gb

molecule  {
0 1
  S       -1.2360987    -0.0679704    -0.0830020
  C        1.2766570     0.7093650     0.2807600
  C        1.2766500    -0.7093720    -0.2807680
  C       -0.0542300     1.3297750    -0.1396080
  C       -0.0542340    -1.3297710     0.1396230
  H        1.3396290     0.6711660     1.3740810
  H        2.1212810     1.3027060    -0.0855190
  H        1.3396020    -0.6711730    -1.3740910
  H        2.1212770    -1.3027160     0.0854980
  H       -0.3428840     2.1673020     0.4996790
  H       -0.0077520     1.6828060    -1.1735290
  H       -0.3428960    -2.1673120    -0.4996450
  H       -0.0077460    -1.6827810     1.1735500
units angstrom
no_reorient  #important for SAPT in psi4, default
symmetry c1  #important for SAPT in psi4, default
}

set PROPERTIES_ORIGIN ["COM"]
properties('MP2/aug-cc-pvtz', properties = ['dipole'])
--------------------------------------------------------------------------

    Molecular point group: c1
  Charge       = 0
  Multiplicity = 1
  Basis Set: AUG-CC-PVTZ
    Blend: AUG-CC-PVTZ
  Basis Set: (AUG-CC-PVTZ AUX)
    Blend: AUG-CC-PVTZ-JKFIT

    Orbital Energies [Eh]
    ---------------------

    Doubly Occupied:

       1A    -91.930811     2A    -11.252493     3A    -11.245935
       4A    -11.233021     5A    -11.232196     6A     -8.933422
       7A     -6.614737     8A     -6.613923     9A     -6.612840
      10A     -1.135894    11A     -0.990120    12A     -0.967358
      13A     -0.794840    14A     -0.776994    15A     -0.657981
      16A     -0.639318    17A     -0.597593    18A     -0.547897
      19A     -0.509653    20A     -0.491116    21A     -0.486228
      22A     -0.478919    23A     -0.416715    24A     -0.326927

  @DF-RHF Final Energy:  -553.72938040663405

   => Energetics <=

    Nuclear Repulsion Energy =            238.2807594492961982
    One-Electron Energy =               -1233.0464171976809666
    Two-Electron Energy =                 441.0362773417507469
    Total Energy =                       -553.7293804066340499
  Basis Set: (AUG-CC-PVTZ AUX)
    Blend: AUG-CC-PVTZ-RI
    Molecular point group: c1

    Geometry (in Angstrom), charge = 0, multiplicity = 1:

       Center              X                  Y                   Z               Mass
    ------------   -----------------  -----------------  -----------------  -----------------
         S           -1.191646521645    -0.043284756868    -0.052858902733    31.972071174400
         C            1.321109178355     0.734050643132     0.310903097267    12.000000000000
         C            1.321102178355    -0.684686356868    -0.250624902733    12.000000000000
         C           -0.009777821645     1.354460643132    -0.109464902733    12.000000000000
         C           -0.009781821645    -1.305085356868     0.169766097267    12.000000000000
         H            1.384081178355     0.695851643132     1.404224097267     1.007825032230
         H            2.165733178355     1.327391643132    -0.055375902733     1.007825032230
         H            1.384054178355    -0.646487356868    -1.343947902733     1.007825032230
         H            2.165729178355    -1.278030356868     0.115641097267     1.007825032230
         H           -0.298431821645     2.191987643132     0.529822097267     1.007825032230
         H            0.036700178355     1.707491643132    -1.143385902733     1.007825032230
         H           -0.298443821645    -2.142626356868    -0.469501902733     1.007825032230
         H            0.036706178355    -1.658095356868     1.203693097267     1.007825032230

  Basis Set: AUG-CC-PVTZ
    Blend: AUG-CC-PVTZ
  Basis Set: (AUG-CC-PVTZ AUX)
    Blend: AUG-CC-PVTZ-JKFIT
	 Reference Energy          =    -553.7293804066340499 [Eh]
	 Singles Energy            =      -0.0000000000000000 [Eh]
	 Same-Spin Energy          =      -0.2268466990926422 [Eh]
	 Opposite-Spin Energy      =      -0.7711242104406010 [Eh]
	 Correlation Energy        =      -0.9979709095332432 [Eh]
	 Total Energy              =    -554.7273513161673009 [Eh]

	 ================> DF-SCS-MP2 Energies <==================
	-----------------------------------------------------------
	 SCS Same-Spin Scale       =       0.3333333333333333 [-]
	 SCS Opposite-Spin Scale   =       1.2000000000000000 [-]
	 SCS Same-Spin Energy      =      -0.0756155663642141 [Eh]
	 SCS Opposite-Spin Energy  =      -0.9253490525287211 [Eh]
	 SCS Correlation Energy    =      -1.0009646188929353 [Eh]
	 SCS Total Energy          =    -554.7303450255269581 [Eh]
	-----------------------------------------------------------

  Dipole Moment: [D]
     X:     2.0777      Y:     0.0566      Z:     0.0827     Total:     2.0801

*** Psi4 exiting successfully. Buy a developer a beer!
