                               Psi4 1.4a3.dev225

  ==> Input File <==

--------------------------------------------------------------------------
#psi4
#
memory 32 gb

molecule  {
0 1
  S       -1.3055980     0.0000010    -0.0000040
  C        1.2766570     0.7093650     0.2807600
  C        1.2766500    -0.7093720    -0.2807680
  C       -0.0883959     1.2934684    -0.1357964
  C       -0.0542340    -1.3297710     0.1396230
  H        1.3396290     0.6711660     1.3740810
  H        2.1212810     1.3027060    -0.0855190
  H        1.3396020    -0.6711730    -1.3740910
  H        2.1212770    -1.3027160     0.0854980
  H       -0.3428840     2.1673020     0.4996790
  H       -0.0077520     1.6828060    -1.1735290
  H       -0.3428960    -2.1673120    -0.4996450
  H       -0.0077460    -1.6827810     1.1735500
units angstrom
no_reorient  #important for SAPT in psi4, default
symmetry c1  #important for SAPT in psi4, default
}

set PROPERTIES_ORIGIN ["COM"]
properties('MP2/aug-cc-pvtz', properties = ['dipole'])
--------------------------------------------------------------------------

    Molecular point group: c1
  Charge       = 0
  Multiplicity = 1
  Basis Set: AUG-CC-PVTZ
    Blend: AUG-CC-PVTZ
  Basis Set: (AUG-CC-PVTZ AUX)
    Blend: AUG-CC-PVTZ-JKFIT

    Orbital Energies [Eh]
    ---------------------

    Doubly Occupied:

       1A    -91.936261     2A    -11.252923     3A    -11.252367
       4A    -11.233583     5A    -11.232533     6A     -8.937658
       7A     -6.618916     8A     -6.618089     9A     -6.617052
      10A     -1.128897    11A     -0.981504    12A     -0.969264
      13A     -0.792630    14A     -0.776975    15A     -0.654162
      16A     -0.638808    17A     -0.591891    18A     -0.543662
      19A     -0.501488    20A     -0.486454    21A     -0.483904
      22A     -0.478895    23A     -0.425768    24A     -0.329399

  @DF-RHF Final Energy:  -553.73092548032412

   => Energetics <=

    Nuclear Repulsion Energy =            236.2705866452497787
    One-Electron Energy =               -1229.0368575271209011
    Two-Electron Energy =                 439.0353454015470334
    Total Energy =                       -553.7309254803241174
  Basis Set: (AUG-CC-PVTZ AUX)
    Blend: AUG-CC-PVTZ-RI
    Molecular point group: c1

    Geometry (in Angstrom), charge = 0, multiplicity = 1:

       Center              X                  Y                   Z               Mass
    ------------   -----------------  -----------------  -----------------  -----------------
         S           -1.231248199227     0.004950018796    -0.000523335153    31.972071174400
         C            1.351006800773     0.714314018796     0.280240664847    12.000000000000
         C            1.350999800773    -0.704422981204    -0.281287335153    12.000000000000
         C           -0.014046099227     1.298417418796    -0.136315735153    12.000000000000
         C            0.020115800773    -1.324821981204     0.139103664847    12.000000000000
         H            1.413978800773     0.676115018796     1.373561664847     1.007825032230
         H            2.195630800773     1.307655018796    -0.086038335153     1.007825032230
         H            1.413951800773    -0.666223981204    -1.374610335153     1.007825032230
         H            2.195626800773    -1.297766981204     0.084978664847     1.007825032230
         H           -0.268534199227     2.172251018796     0.499159664847     1.007825032230
         H            0.066597800773     1.687755018796    -1.174048335153     1.007825032230
         H           -0.268546199227    -2.162362981204    -0.500164335153     1.007825032230
         H            0.066603800773    -1.677831981204     1.173030664847     1.007825032230

  Basis Set: AUG-CC-PVTZ
    Blend: AUG-CC-PVTZ
  Basis Set: (AUG-CC-PVTZ AUX)
    Blend: AUG-CC-PVTZ-JKFIT
	 Reference Energy          =    -553.7309254803241174 [Eh]
	 Singles Energy            =      -0.0000000000000000 [Eh]
	 Same-Spin Energy          =      -0.2263894297409569 [Eh]
	 Opposite-Spin Energy      =      -0.7714582642685834 [Eh]
	 Correlation Energy        =      -0.9978476940095403 [Eh]
	 Total Energy              =    -554.7287731743336963 [Eh]

	 ================> DF-SCS-MP2 Energies <==================
	-----------------------------------------------------------
	 SCS Same-Spin Scale       =       0.3333333333333333 [-]
	 SCS Opposite-Spin Scale   =       1.2000000000000000 [-]
	 SCS Same-Spin Energy      =      -0.0754631432469856 [Eh]
	 SCS Opposite-Spin Energy  =      -0.9257499171223000 [Eh]
	 SCS Correlation Energy    =      -1.0012130603692857 [Eh]
	 SCS Total Energy          =    -554.7321385406934269 [Eh]
	-----------------------------------------------------------

  Dipole Moment: [D]
     X:     2.0752      Y:    -0.0560      Z:     0.0114     Total:     2.0760

*** Psi4 exiting successfully. Buy a developer a beer!
