                               Psi4 1.3.2 release

  ==> Input File <==

--------------------------------------------------------------------------
#psi4
#
memory 32 gb

molecule  {
0 1
  S       -1.3055980     0.0000010    -0.0000040
  C        1.2766570     0.7093650     0.2807600
  C        1.2766500    -0.7093720    -0.2807680
  C       -0.0777559     1.3512924    -0.1418674
  C       -0.0542340    -1.3297710     0.1396230
  H        1.3396290     0.6711660     1.3740810
  H        2.1212810     1.3027060    -0.0855190
  H        1.3396020    -0.6711730    -1.3740910
  H        2.1212770    -1.3027160     0.0854980
  H       -0.3428840     2.1673020     0.4996790
  H       -0.0077520     1.6828060    -1.1735290
  H       -0.3428960    -2.1673120    -0.4996450
  H       -0.0077460    -1.6827810     1.1735500
units angstrom
no_reorient  #important for SAPT in psi4, default
symmetry c1  #important for SAPT in psi4, default
}

set PROPERTIES_ORIGIN ["COM"]
properties('MP2/aug-cc-pvtz', properties = ['dipole'])
--------------------------------------------------------------------------

    Molecular point group: c1
  Charge       = 0
  Multiplicity = 1
  Basis Set: AUG-CC-PVTZ
    Blend: AUG-CC-PVTZ
  Basis Set: (AUG-CC-PVTZ AUX)
    Blend: AUG-CC-PVTZ-JKFIT

    Orbital Energies [Eh]
    ---------------------

    Doubly Occupied:

       1A    -91.935507     2A    -11.252561     3A    -11.251654
       4A    -11.234695     5A    -11.233111     6A     -8.936142
       7A     -6.617318     8A     -6.616565     9A     -6.615561
      10A     -1.123602    11A     -0.982283    12A     -0.964577
      13A     -0.793148    14A     -0.781041    15A     -0.655599
      16A     -0.635522    17A     -0.597866    18A     -0.547685
      19A     -0.501461    20A     -0.489545    21A     -0.481856
      22A     -0.477411    23A     -0.418510    24A     -0.330333

  @DF-RHF Final Energy:  -553.73295113494885

   => Energetics <=

    Nuclear Repulsion Energy =            235.1950898374413441
    One-Electron Energy =               -1226.9089775564636966
    Two-Electron Energy =                 437.9809365840734472
    Total Energy =                       -553.7329511349488484
  Basis Set: (AUG-CC-PVTZ AUX)
    Blend: AUG-CC-PVTZ-RI
    Molecular point group: c1

    Geometry (in Angstrom), charge = 0, multiplicity = 1:

       Center              X                  Y                   Z               Mass
    ------------   -----------------  -----------------  -----------------  -----------------
         S           -1.232698536894    -0.002931966662     0.000304202439    31.972071174400
         C            1.349556463106     0.706432033338     0.281068202439    12.000000000000
         C            1.349549463106    -0.712304966662    -0.280459797561    12.000000000000
         C           -0.004856436894     1.348359433338    -0.141559197561    12.000000000000
         C            0.018665463106    -1.332703966662     0.139931202439    12.000000000000
         H            1.412528463106     0.668233033338     1.374389202439     1.007825032230
         H            2.194180463106     1.299773033338    -0.085210797561     1.007825032230
         H            1.412501463106    -0.674105966662    -1.373782797561     1.007825032230
         H            2.194176463106    -1.305648966662     0.085806202439     1.007825032230
         H           -0.269984536894     2.164369033338     0.499987202439     1.007825032230
         H            0.065147463106     1.679873033338    -1.173220797561     1.007825032230
         H           -0.269996536894    -2.170244966662    -0.499336797561     1.007825032230
         H            0.065153463106    -1.685713966662     1.173858202439     1.007825032230

  Basis Set: AUG-CC-PVTZ
    Blend: AUG-CC-PVTZ
  Basis Set: (AUG-CC-PVTZ AUX)
    Blend: AUG-CC-PVTZ-JKFIT
	 Reference Energy          =    -553.7329511349488484 [Eh]
	 Singles Energy            =      -0.0000000000000000 [Eh]
	 Same-Spin Energy          =      -0.2258533066743829 [Eh]
	 Opposite-Spin Energy      =      -0.7709825255379229 [Eh]
	 Correlation Energy        =      -0.9968358322123058 [Eh]
	 Total Energy              =    -554.7297869671612034 [Eh]

	 ================> DF-SCS-MP2 Energies <==================
	-----------------------------------------------------------
	 SCS Same-Spin Scale       =       0.3333333333333333 [-]
	 SCS Opposite-Spin Scale   =       1.2000000000000000 [-]
	 SCS Same-Spin Energy      =      -0.0752844355581276 [Eh]
	 SCS Opposite-Spin Energy  =      -0.9251790306455074 [Eh]
	 SCS Correlation Energy    =      -1.0004634662036351 [Eh]
	 SCS Total Energy          =    -554.7334146011525036 [Eh]
	-----------------------------------------------------------

  Dipole Moment: [D]
     X:     2.1274      Y:     0.0055      Z:     0.0016     Total:     2.1274

*** Psi4 exiting successfully. Buy a developer a beer!
