                               Psi4 1.3.2 release

  ==> Input File <==

--------------------------------------------------------------------------
#psi4
#
memory 32 gb

molecule  {
0 1
  S       -1.2715899    -0.0348160    -0.0414432
  C        1.2766570     0.7093650     0.2807600
  C        1.2766500    -0.7093720    -0.2807680
  C       -0.0542300     1.3297750    -0.1396080
  C       -0.0542340    -1.3297710     0.1396230
  H        1.3396290     0.6711660     1.3740810
  H        2.1212810     1.3027060    -0.0855190
  H        1.3396020    -0.6711730    -1.3740910
  H        2.1212770    -1.3027160     0.0854980
  H       -0.3428840     2.1673020     0.4996790
  H       -0.0077520     1.6828060    -1.1735290
  H       -0.3428960    -2.1673120    -0.4996450
  H       -0.0077460    -1.6827810     1.1735500
units angstrom
no_reorient  #important for SAPT in psi4, default
symmetry c1  #important for SAPT in psi4, default
}

set PROPERTIES_ORIGIN ["COM"]
properties('MP2/aug-cc-pvtz', properties = ['dipole'])
--------------------------------------------------------------------------

    Molecular point group: c1
  Charge       = 0
  Multiplicity = 1
  Basis Set: AUG-CC-PVTZ
    Blend: AUG-CC-PVTZ
  Basis Set: (AUG-CC-PVTZ AUX)
    Blend: AUG-CC-PVTZ-JKFIT

    Orbital Energies [Eh]
    ---------------------

    Doubly Occupied:

       1A    -91.933262     2A    -11.252494     3A    -11.249108
       4A    -11.233159     5A    -11.232465     6A     -8.934854
       7A     -6.616091     8A     -6.615315     9A     -6.614270
      10A     -1.130897    11A     -0.985928    12A     -0.966810
      13A     -0.793667    14A     -0.778283    15A     -0.656625
      16A     -0.638639    17A     -0.596779    18A     -0.546607
      19A     -0.505868    20A     -0.490358    21A     -0.482724
      22A     -0.479197    23A     -0.419224    24A     -0.328546

  @DF-RHF Final Energy:  -553.73259851538569

   => Energetics <=

    Nuclear Repulsion Energy =            236.9089573913453250
    One-Electron Energy =               -1230.3207715807341174
    Two-Electron Energy =                 439.6792156740031601
    Total Energy =                       -553.7325985153856891
  Basis Set: (AUG-CC-PVTZ AUX)
    Blend: AUG-CC-PVTZ-RI
    Molecular point group: c1

    Geometry (in Angstrom), charge = 0, multiplicity = 1:

       Center              X                  Y                   Z               Mass
    ------------   -----------------  -----------------  -----------------  -----------------
         S           -1.214248173084    -0.022171235982    -0.026393257395    31.972071174400
         C            1.333998726916     0.722009764018     0.295809942605    12.000000000000
         C            1.333991726916    -0.696727235982    -0.265718057395    12.000000000000
         C            0.003111726916     1.342419764018    -0.124558057395    12.000000000000
         C            0.003107726916    -1.317126235982     0.154672942605    12.000000000000
         H            1.396970726916     0.683810764018     1.389130942605     1.007825032230
         H            2.178622726916     1.315350764018    -0.070469057395     1.007825032230
         H            1.396943726916    -0.658528235982    -1.359041057395     1.007825032230
         H            2.178618726916    -1.290071235982     0.100547942605     1.007825032230
         H           -0.285542273084     2.179946764018     0.514728942605     1.007825032230
         H            0.049589726916     1.695450764018    -1.158479057395     1.007825032230
         H           -0.285554273084    -2.154667235982    -0.484595057395     1.007825032230
         H            0.049595726916    -1.670136235982     1.188599942605     1.007825032230

  Basis Set: AUG-CC-PVTZ
    Blend: AUG-CC-PVTZ
  Basis Set: (AUG-CC-PVTZ AUX)
    Blend: AUG-CC-PVTZ-JKFIT
	 Reference Energy          =    -553.7325985153856891 [Eh]
	 Singles Energy            =      -0.0000000000000000 [Eh]
	 Same-Spin Energy          =      -0.2264140567092432 [Eh]
	 Opposite-Spin Energy      =      -0.7710670845855578 [Eh]
	 Correlation Energy        =      -0.9974811412948010 [Eh]
	 Total Energy              =    -554.7300796566804593 [Eh]

	 ================> DF-SCS-MP2 Energies <==================
	-----------------------------------------------------------
	 SCS Same-Spin Scale       =       0.3333333333333333 [-]
	 SCS Opposite-Spin Scale   =       1.2000000000000000 [-]
	 SCS Same-Spin Energy      =      -0.0754713522364144 [Eh]
	 SCS Opposite-Spin Energy  =      -0.9252805015026694 [Eh]
	 SCS Correlation Energy    =      -1.0007518537390838 [Eh]
	 SCS Total Energy          =    -554.7333503691247643 [Eh]
	-----------------------------------------------------------

  Dipole Moment: [D]
     X:     2.0967      Y:     0.0304      Z:     0.0409     Total:     2.0974

*** Psi4 exiting successfully. Buy a developer a beer!
