                               Psi4 1.3.2 release

  ==> Input File <==

--------------------------------------------------------------------------
#psi4
#
memory 32 gb

molecule  {
0 1
  S       -1.3055980     0.0000010    -0.0000040
  C        1.2766570     0.7093650     0.2807600
  C        1.2766500    -0.7093720    -0.2807680
  C       -0.2285010     1.4110137    -0.1946525
  C       -0.0542340    -1.3297710     0.1396230
  H        1.3396290     0.6711660     1.3740810
  H        2.1212810     1.3027060    -0.0855190
  H        1.3396020    -0.6711730    -1.3740910
  H        2.1212770    -1.3027160     0.0854980
  H       -0.3428840     2.1673020     0.4996790
  H       -0.0077520     1.6828060    -1.1735290
  H       -0.3428960    -2.1673120    -0.4996450
  H       -0.0077460    -1.6827810     1.1735500
units angstrom
no_reorient  #important for SAPT in psi4, default
symmetry c1  #important for SAPT in psi4, default
}

set PROPERTIES_ORIGIN ["COM"]
properties('MP2/aug-cc-pvtz', properties = ['dipole'])
--------------------------------------------------------------------------

    Molecular point group: c1
  Charge       = 0
  Multiplicity = 1
  Basis Set: AUG-CC-PVTZ
    Blend: AUG-CC-PVTZ
  Basis Set: (AUG-CC-PVTZ AUX)
    Blend: AUG-CC-PVTZ-JKFIT

    Orbital Energies [Eh]
    ---------------------

    Doubly Occupied:

       1A    -91.936492     2A    -11.253619     3A    -11.250555
       4A    -11.242413     5A    -11.233742     6A     -8.937403
       7A     -6.618673     8A     -6.617962     9A     -6.616951
      10A     -1.115120    11A     -0.984422    12A     -0.960081
      13A     -0.799510    14A     -0.782175    15A     -0.655995
      16A     -0.627503    17A     -0.605214    18A     -0.557719
      19A     -0.505821    20A     -0.492567    21A     -0.487889
      22A     -0.457797    23A     -0.403260    24A     -0.331389

  @DF-RHF Final Energy:  -553.70767594394761

   => Energetics <=

    Nuclear Repulsion Energy =            234.0628514575363397
    One-Electron Energy =               -1224.5925128946025779
    Two-Electron Energy =                 436.8219854931186319
    Total Energy =                       -553.7076759439476064
  Basis Set: (AUG-CC-PVTZ AUX)
    Blend: AUG-CC-PVTZ-RI
    Molecular point group: c1

    Geometry (in Angstrom), charge = 0, multiplicity = 1:

       Center              X                  Y                   Z               Mass
    ------------   -----------------  -----------------  -----------------  -----------------
         S           -1.212150482695    -0.011072572952     0.007499335785    31.972071174400
         C            1.370104517305     0.698291427048     0.288263335785    12.000000000000
         C            1.370097517305    -0.720445572952    -0.273264664215    12.000000000000
         C           -0.135053482695     1.399940127048    -0.187149164215    12.000000000000
         C            0.039213517305    -1.340844572952     0.147126335785    12.000000000000
         H            1.433076517305     0.660092427048     1.381584335785     1.007825032230
         H            2.214728517305     1.291632427048    -0.078015664215     1.007825032230
         H            1.433049517305    -0.682246572952    -1.366587664215     1.007825032230
         H            2.214724517305    -1.313789572952     0.093001335785     1.007825032230
         H           -0.249436482695     2.156228427048     0.507182335785     1.007825032230
         H            0.085695517305     1.671732427048    -1.166025664215     1.007825032230
         H           -0.249448482695    -2.178385572952    -0.492141664215     1.007825032230
         H            0.085701517305    -1.693854572952     1.181053335785     1.007825032230

  Basis Set: AUG-CC-PVTZ
    Blend: AUG-CC-PVTZ
  Basis Set: (AUG-CC-PVTZ AUX)
    Blend: AUG-CC-PVTZ-JKFIT
	 Reference Energy          =    -553.7076759439476064 [Eh]
	 Singles Energy            =      -0.0000000000000000 [Eh]
	 Same-Spin Energy          =      -0.2262467700500342 [Eh]
	 Opposite-Spin Energy      =      -0.7724565900174691 [Eh]
	 Correlation Energy        =      -0.9987033600675034 [Eh]
	 Total Energy              =    -554.7063793040150586 [Eh]

	 ================> DF-SCS-MP2 Energies <==================
	-----------------------------------------------------------
	 SCS Same-Spin Scale       =       0.3333333333333333 [-]
	 SCS Opposite-Spin Scale   =       1.2000000000000000 [-]
	 SCS Same-Spin Energy      =      -0.0754155900166781 [Eh]
	 SCS Opposite-Spin Energy  =      -0.9269479080209629 [Eh]
	 SCS Correlation Energy    =      -1.0023634980376410 [Eh]
	 SCS Total Energy          =    -554.7100394419852591 [Eh]
	-----------------------------------------------------------

  Dipole Moment: [D]
     X:     2.2051      Y:    -0.0459      Z:     0.0129     Total:     2.2056

*** Psi4 exiting successfully. Buy a developer a beer!
