                               Psi4 1.3.2 release

  ==> Input File <==

--------------------------------------------------------------------------
#psi4
#
memory 32 gb

molecule  {
0 1
  S       -1.1630960    -0.1141567     0.0583497
  C        1.2766570     0.7093650     0.2807600
  C        1.2766500    -0.7093720    -0.2807680
  C       -0.0542300     1.3297750    -0.1396080
  C       -0.0542340    -1.3297710     0.1396230
  H        1.3396290     0.6711660     1.3740810
  H        2.1212810     1.3027060    -0.0855190
  H        1.3396020    -0.6711730    -1.3740910
  H        2.1212770    -1.3027160     0.0854980
  H       -0.3428840     2.1673020     0.4996790
  H       -0.0077520     1.6828060    -1.1735290
  H       -0.3428960    -2.1673120    -0.4996450
  H       -0.0077460    -1.6827810     1.1735500
units angstrom
no_reorient  #important for SAPT in psi4, default
symmetry c1  #important for SAPT in psi4, default
}

set PROPERTIES_ORIGIN ["COM"]
properties('MP2/aug-cc-pvtz', properties = ['dipole'])
--------------------------------------------------------------------------

    Molecular point group: c1
  Charge       = 0
  Multiplicity = 1
  Basis Set: AUG-CC-PVTZ
    Blend: AUG-CC-PVTZ
  Basis Set: (AUG-CC-PVTZ AUX)
    Blend: AUG-CC-PVTZ-JKFIT

    Orbital Energies [Eh]
    ---------------------

    Doubly Occupied:

       1A    -91.923662     2A    -11.253440     3A    -11.238017
       4A    -11.233612     5A    -11.232253     6A     -8.929180
       7A     -6.610796     8A     -6.609665     9A     -6.608537
      10A     -1.149675    11A     -1.002277    12A     -0.967195
      13A     -0.798745    14A     -0.772559    15A     -0.661840
      16A     -0.641529    17A     -0.600170    18A     -0.551766
      19A     -0.522087    20A     -0.494221    21A     -0.488034
      22A     -0.482028    23A     -0.408351    24A     -0.321302

  @DF-RHF Final Energy:  -553.71354692249906

   => Energetics <=

    Nuclear Repulsion Energy =            241.4284421156119151
    One-Electron Energy =               -1239.2820957235410333
    Two-Electron Energy =                 444.1401066854301121
    Total Energy =                       -553.7135469224990629
  Basis Set: (AUG-CC-PVTZ AUX)
    Blend: AUG-CC-PVTZ-RI
    Molecular point group: c1

    Geometry (in Angstrom), charge = 0, multiplicity = 1:

       Center              X                  Y                   Z               Mass
    ------------   -----------------  -----------------  -----------------  -----------------
         S           -1.145156643041    -0.072697305722     0.037157266168    31.972071174400
         C            1.294596356959     0.750824394278     0.259567566168    12.000000000000
         C            1.294589356959    -0.667912605722    -0.301960433832    12.000000000000
         C           -0.036290643041     1.371234394278    -0.160800433832    12.000000000000
         C           -0.036294643041    -1.288311605722     0.118430566168    12.000000000000
         H            1.357568356959     0.712625394278     1.352888566168     1.007825032230
         H            2.139220356959     1.344165394278    -0.106711433832     1.007825032230
         H            1.357541356959    -0.629713605722    -1.395283433832     1.007825032230
         H            2.139216356959    -1.261256605722     0.064305566168     1.007825032230
         H           -0.324944643041     2.208761394278     0.478486566168     1.007825032230
         H            0.010187356959     1.724265394278    -1.194721433832     1.007825032230
         H           -0.324956643041    -2.125852605722    -0.520837433832     1.007825032230
         H            0.010193356959    -1.641321605722     1.152357566168     1.007825032230

  Basis Set: AUG-CC-PVTZ
    Blend: AUG-CC-PVTZ
  Basis Set: (AUG-CC-PVTZ AUX)
    Blend: AUG-CC-PVTZ-JKFIT
	 Reference Energy          =    -553.7135469224990629 [Eh]
	 Singles Energy            =      -0.0000000000000000 [Eh]
	 Same-Spin Energy          =      -0.2279851993975516 [Eh]
	 Opposite-Spin Energy      =      -0.7715929293338932 [Eh]
	 Correlation Energy        =      -0.9995781287314449 [Eh]
	 Total Energy              =    -554.7131250512304632 [Eh]

	 ================> DF-SCS-MP2 Energies <==================
	-----------------------------------------------------------
	 SCS Same-Spin Scale       =       0.3333333333333333 [-]
	 SCS Opposite-Spin Scale   =       1.2000000000000000 [-]
	 SCS Same-Spin Energy      =      -0.0759950664658505 [Eh]
	 SCS Opposite-Spin Energy  =      -0.9259115152006718 [Eh]
	 SCS Correlation Energy    =      -1.0019065816665225 [Eh]
	 SCS Total Energy          =    -554.7154535041655663 [Eh]
	-----------------------------------------------------------

  Dipole Moment: [D]
     X:     2.0812      Y:     0.0759      Z:    -0.0651     Total:     2.0836

*** Psi4 exiting successfully. Buy a developer a beer!
