                               Psi4 1.3.2 release

  ==> Input File <==

--------------------------------------------------------------------------
#psi4
#
memory 32 gb

molecule  {
0 1
  S       -1.3055980     0.0000010    -0.0000040
  C        1.2766570     0.7093650     0.2807600
  C        1.2766500    -0.7093720    -0.2807680
  C        0.1200410     1.2485363    -0.0845635
  C       -0.0542340    -1.3297710     0.1396230
  H        1.3396290     0.6711660     1.3740810
  H        2.1212810     1.3027060    -0.0855190
  H        1.3396020    -0.6711730    -1.3740910
  H        2.1212770    -1.3027160     0.0854980
  H       -0.3428840     2.1673020     0.4996790
  H       -0.0077520     1.6828060    -1.1735290
  H       -0.3428960    -2.1673120    -0.4996450
  H       -0.0077460    -1.6827810     1.1735500
units angstrom
no_reorient  #important for SAPT in psi4, default
symmetry c1  #important for SAPT in psi4, default
}

set PROPERTIES_ORIGIN ["COM"]
properties('MP2/aug-cc-pvtz', properties = ['dipole'])
--------------------------------------------------------------------------

    Molecular point group: c1
  Charge       = 0
  Multiplicity = 1
  Basis Set: AUG-CC-PVTZ
    Blend: AUG-CC-PVTZ
  Basis Set: (AUG-CC-PVTZ AUX)
    Blend: AUG-CC-PVTZ-JKFIT

    Orbital Energies [Eh]
    ---------------------

    Doubly Occupied:

       1A    -91.935467     2A    -11.261621     3A    -11.251991
       4A    -11.235344     5A    -11.222262     6A     -8.935563
       7A     -6.616637     8A     -6.615753     9A     -6.614766
      10A     -1.153059    11A     -1.005387    12A     -0.954748
      13A     -0.796273    14A     -0.765948    15A     -0.662875
      16A     -0.658752    17A     -0.597305    18A     -0.548086
      19A     -0.518593    20A     -0.500612    21A     -0.458733
      22A     -0.453911    23A     -0.417693    24A     -0.325776

  @DF-RHF Final Energy:  -553.68615557893361

   => Energetics <=

    Nuclear Repulsion Energy =            237.2169530774945372
    One-Electron Energy =               -1230.7919087902287174
    Two-Electron Energy =                 439.8888001338006006
    Total Energy =                       -553.6861555789336080
  Basis Set: (AUG-CC-PVTZ AUX)
    Blend: AUG-CC-PVTZ-RI
    Molecular point group: c1

    Geometry (in Angstrom), charge = 0, multiplicity = 1:

       Center              X                  Y                   Z               Mass
    ------------   -----------------  -----------------  -----------------  -----------------
         S           -1.259660218711     0.011074710252    -0.007506888223    31.972071174400
         C            1.322594781289     0.720438710252     0.273257111777    12.000000000000
         C            1.322587781289    -0.698298289748    -0.288270888223    12.000000000000
         C            0.165978781289     1.259610010252    -0.092066388223    12.000000000000
         C           -0.008296218711    -1.318697289748     0.132120111777    12.000000000000
         H            1.385566781289     0.682239710252     1.366578111777     1.007825032230
         H            2.167218781289     1.313779710252    -0.093021888223     1.007825032230
         H            1.385539781289    -0.660099289748    -1.381593888223     1.007825032230
         H            2.167214781289    -1.291642289748     0.077995111777     1.007825032230
         H           -0.296946218711     2.178375710252     0.492176111777     1.007825032230
         H            0.038185781289     1.693879710252    -1.181031888223     1.007825032230
         H           -0.296958218711    -2.156238289748    -0.507147888223     1.007825032230
         H            0.038191781289    -1.671707289748     1.166047111777     1.007825032230

  Basis Set: AUG-CC-PVTZ
    Blend: AUG-CC-PVTZ
  Basis Set: (AUG-CC-PVTZ AUX)
    Blend: AUG-CC-PVTZ-JKFIT
	 Reference Energy          =    -553.6861555789336080 [Eh]
	 Singles Energy            =      -0.0000000000000000 [Eh]
	 Same-Spin Energy          =      -0.2291902524425056 [Eh]
	 Opposite-Spin Energy      =      -0.7754906973312621 [Eh]
	 Correlation Energy        =      -1.0046809497737677 [Eh]
	 Total Energy              =    -554.6908365287073366 [Eh]

	 ================> DF-SCS-MP2 Energies <==================
	-----------------------------------------------------------
	 SCS Same-Spin Scale       =       0.3333333333333333 [-]
	 SCS Opposite-Spin Scale   =       1.2000000000000000 [-]
	 SCS Same-Spin Energy      =      -0.0763967508141685 [Eh]
	 SCS Opposite-Spin Energy  =      -0.9305888367975145 [Eh]
	 SCS Correlation Energy    =      -1.0069855876116831 [Eh]
	 SCS Total Energy          =    -554.6931411665452742 [Eh]
	-----------------------------------------------------------

  Dipole Moment: [D]
     X:     2.1910      Y:    -0.0269      Z:     0.0137     Total:     2.1912

*** Psi4 exiting successfully. Buy a developer a beer!
