                               Psi4 1.4a3.dev225

  ==> Input File <==

--------------------------------------------------------------------------
#psi4
#
memory 32 gb

molecule  {
0 1
  S       -1.3055980     0.0000010    -0.0000040
  C        1.2766570     0.7093650     0.2807600
  C        1.2766500    -0.7093720    -0.2807680
  C       -0.0542300     1.3297750    -0.1396080
  C       -0.0542340    -1.3297710     0.1396230
  H        1.3396290     0.6711660     1.3740810
  H        2.1212810     1.3027060    -0.0855190
  H        1.3396020    -0.6711730    -1.3740910
  H        2.1212770    -1.3027160     0.0854980
  H       -0.3375995     2.1519691     0.4879753
  H       -0.0077520     1.6828060    -1.1735290
  H       -0.3428960    -2.1673120    -0.4996450
  H       -0.0077460    -1.6827810     1.1735500
units angstrom
no_reorient  #important for SAPT in psi4, default
symmetry c1  #important for SAPT in psi4, default
}

set PROPERTIES_ORIGIN ["COM"]
properties('MP2/aug-cc-pvtz', properties = ['dipole'])
--------------------------------------------------------------------------

    Molecular point group: c1
  Charge       = 0
  Multiplicity = 1
  Basis Set: AUG-CC-PVTZ
    Blend: AUG-CC-PVTZ
  Basis Set: (AUG-CC-PVTZ AUX)
    Blend: AUG-CC-PVTZ-JKFIT

    Orbital Energies [Eh]
    ---------------------

    Doubly Occupied:

       1A    -91.935433     2A    -11.252334     3A    -11.250070
       4A    -11.233253     5A    -11.232630     6A     -8.936119
       7A     -6.617295     8A     -6.616518     9A     -6.615514
      10A     -1.126713    11A     -0.984264    12A     -0.964933
      13A     -0.792926    14A     -0.780812    15A     -0.656237
      16A     -0.638317    17A     -0.596945    18A     -0.545887
      19A     -0.503988    20A     -0.490301    21A     -0.480778
      22A     -0.476486    23A     -0.420916    24A     -0.330005

  @DF-RHF Final Energy:  -553.73355822866142

   => Energetics <=

    Nuclear Repulsion Energy =            235.6744669972515851
    One-Electron Energy =               -1227.8587028818676572
    Two-Electron Energy =                 438.4506776559546211
    Total Energy =                       -553.7335582286614226
  Basis Set: (AUG-CC-PVTZ AUX)
    Blend: AUG-CC-PVTZ-RI
    Molecular point group: c1

    Geometry (in Angstrom), charge = 0, multiplicity = 1:

       Center              X                  Y                   Z               Mass
    ------------   -----------------  -----------------  -----------------  -----------------
         S           -1.235965847906     0.000176600406     0.000130208285    31.972071174400
         C            1.346289152094     0.709540600406     0.280894208285    12.000000000000
         C            1.346282152094    -0.709196399594    -0.280633791715    12.000000000000
         C            0.015402152094     1.329950600406    -0.139473791715    12.000000000000
         C            0.015398152094    -1.329595399594     0.139757208285    12.000000000000
         H            1.409261152094     0.671341600406     1.374215208285     1.007825032230
         H            2.190913152094     1.302881600406    -0.085384791715     1.007825032230
         H            1.409234152094    -0.670997399594    -1.373956791715     1.007825032230
         H            2.190909152094    -1.302540399594     0.085632208285     1.007825032230
         H           -0.267967347906     2.152144700406     0.488109508285     1.007825032230
         H            0.061880152094     1.682981600406    -1.173394791715     1.007825032230
         H           -0.273263847906    -2.167136399594    -0.499510791715     1.007825032230
         H            0.061886152094    -1.682605399594     1.173684208285     1.007825032230

  Basis Set: AUG-CC-PVTZ
    Blend: AUG-CC-PVTZ
  Basis Set: (AUG-CC-PVTZ AUX)
    Blend: AUG-CC-PVTZ-JKFIT
	 Reference Energy          =    -553.7335582286614226 [Eh]
	 Singles Energy            =      -0.0000000000000000 [Eh]
	 Same-Spin Energy          =      -0.2260610328776541 [Eh]
	 Opposite-Spin Energy      =      -0.7710365575298476 [Eh]
	 Correlation Energy        =      -0.9970975904075017 [Eh]
	 Total Energy              =    -554.7306558190689429 [Eh]

	 ================> DF-SCS-MP2 Energies <==================
	-----------------------------------------------------------
	 SCS Same-Spin Scale       =       0.3333333333333333 [-]
	 SCS Opposite-Spin Scale   =       1.2000000000000000 [-]
	 SCS Same-Spin Energy      =      -0.0753536776258847 [Eh]
	 SCS Opposite-Spin Energy  =      -0.9252438690358170 [Eh]
	 SCS Correlation Energy    =      -1.0005975466617016 [Eh]
	 SCS Total Energy          =    -554.7341557753230745 [Eh]
	-----------------------------------------------------------

  Dipole Moment: [D]
     X:     2.1153      Y:     0.0099      Z:     0.0011     Total:     2.1153

*** Psi4 exiting successfully. Buy a developer a beer!
