                               Psi4 1.3.2 release

  ==> Input File <==

--------------------------------------------------------------------------
#psi4
#
memory 32 gb

molecule  {
0 1
  S       -1.3055980     0.0000010    -0.0000040
  C        1.2766570     0.7093650     0.2807600
  C        1.2766500    -0.7093720    -0.2807680
  C       -0.0542300     1.3297750    -0.1396080
  C       -0.0542340    -1.3297710     0.1396230
  H        1.3453757     0.6676801     1.4738549
  H        2.1212810     1.3027060    -0.0855190
  H        1.3396020    -0.6711730    -1.3740910
  H        2.1212770    -1.3027160     0.0854980
  H       -0.3428840     2.1673020     0.4996790
  H       -0.0077520     1.6828060    -1.1735290
  H       -0.3428960    -2.1673120    -0.4996450
  H       -0.0077460    -1.6827810     1.1735500
units angstrom
no_reorient  #important for SAPT in psi4, default
symmetry c1  #important for SAPT in psi4, default
}

set PROPERTIES_ORIGIN ["COM"]
properties('MP2/aug-cc-pvtz', properties = ['dipole'])
--------------------------------------------------------------------------

    Molecular point group: c1
  Charge       = 0
  Multiplicity = 1
  Basis Set: AUG-CC-PVTZ
    Blend: AUG-CC-PVTZ
  Basis Set: (AUG-CC-PVTZ AUX)
    Blend: AUG-CC-PVTZ-JKFIT

    Orbital Energies [Eh]
    ---------------------

    Doubly Occupied:

       1A    -91.935958     2A    -11.253559     3A    -11.252714
       4A    -11.245102     5A    -11.234284     6A     -8.936631
       7A     -6.617805     8A     -6.617026     9A     -6.616019
      10A     -1.125711    11A     -0.983011    12A     -0.963187
      13A     -0.786280    14A     -0.779200    15A     -0.653038
      16A     -0.638637    17A     -0.594200    18A     -0.541028
      19A     -0.504389    20A     -0.491021    21A     -0.477167
      22A     -0.471481    23A     -0.421652    24A     -0.330282

  @DF-RHF Final Energy:  -553.72705772026393

   => Energetics <=

    Nuclear Repulsion Energy =            235.1341899574657361
    One-Electron Energy =               -1226.7837275061733635
    Two-Electron Energy =                 437.9224798284436702
    Total Energy =                       -553.7270577202639288
  Basis Set: (AUG-CC-PVTZ AUX)
    Blend: AUG-CC-PVTZ-RI
    Molecular point group: c1

    Geometry (in Angstrom), charge = 0, multiplicity = 1:

       Center              X                  Y                   Z               Mass
    ------------   -----------------  -----------------  -----------------  -----------------
         S           -1.235971139193     0.000040975396    -0.001145992488    31.972071174400
         C            1.346283860807     0.709404975396     0.279618007512    12.000000000000
         C            1.346276860807    -0.709332024604    -0.281909992488    12.000000000000
         C            0.015396860807     1.329814975396    -0.140749992488    12.000000000000
         C            0.015392860807    -1.329731024604     0.138481007512    12.000000000000
         H            1.415002560807     0.667720075396     1.472712907512     1.007825032230
         H            2.190907860807     1.302745975396    -0.086660992488     1.007825032230
         H            1.409228860807    -0.671133024604    -1.375232992488     1.007825032230
         H            2.190903860807    -1.302676024604     0.084356007512     1.007825032230
         H           -0.273257139193     2.167341975396     0.498537007512     1.007825032230
         H            0.061874860807     1.682845975396    -1.174670992488     1.007825032230
         H           -0.273269139193    -2.167272024604    -0.500786992488     1.007825032230
         H            0.061880860807    -1.682741024604     1.172408007512     1.007825032230

  Basis Set: AUG-CC-PVTZ
    Blend: AUG-CC-PVTZ
  Basis Set: (AUG-CC-PVTZ AUX)
    Blend: AUG-CC-PVTZ-JKFIT
	 Reference Energy          =    -553.7270577202639288 [Eh]
	 Singles Energy            =      -0.0000000000000000 [Eh]
	 Same-Spin Energy          =      -0.2261098812176647 [Eh]
	 Opposite-Spin Energy      =      -0.7718939046534374 [Eh]
	 Correlation Energy        =      -0.9980037858711022 [Eh]
	 Total Energy              =    -554.7250615061350345 [Eh]

	 ================> DF-SCS-MP2 Energies <==================
	-----------------------------------------------------------
	 SCS Same-Spin Scale       =       0.3333333333333333 [-]
	 SCS Opposite-Spin Scale   =       1.2000000000000000 [-]
	 SCS Same-Spin Energy      =      -0.0753699604058882 [Eh]
	 SCS Opposite-Spin Energy  =      -0.9262726855841249 [Eh]
	 SCS Correlation Energy    =      -1.0016426459900132 [Eh]
	 SCS Total Energy          =    -554.7287003662539746 [Eh]
	-----------------------------------------------------------

  Dipole Moment: [D]
     X:     2.0958      Y:    -0.0073      Z:    -0.0663     Total:     2.0968

*** Psi4 exiting successfully. Buy a developer a beer!
