                               Psi4 1.3.2 release

  ==> Input File <==

--------------------------------------------------------------------------
#psi4
#
memory 32 gb

molecule  {
0 1
  S       -1.2887820    -0.0176127    -0.0207055
  C        1.2766570     0.7093650     0.2807600
  C        1.2766500    -0.7093720    -0.2807680
  C       -0.0542300     1.3297750    -0.1396080
  C       -0.0542340    -1.3297710     0.1396230
  H        1.3396290     0.6711660     1.3740810
  H        2.1212810     1.3027060    -0.0855190
  H        1.3396020    -0.6711730    -1.3740910
  H        2.1212770    -1.3027160     0.0854980
  H       -0.3428840     2.1673020     0.4996790
  H       -0.0077520     1.6828060    -1.1735290
  H       -0.3428960    -2.1673120    -0.4996450
  H       -0.0077460    -1.6827810     1.1735500
units angstrom
no_reorient  #important for SAPT in psi4, default
symmetry c1  #important for SAPT in psi4, default
}

set PROPERTIES_ORIGIN ["COM"]
properties('MP2/aug-cc-pvtz', properties = ['dipole'])
--------------------------------------------------------------------------

    Molecular point group: c1
  Charge       = 0
  Multiplicity = 1
  Basis Set: AUG-CC-PVTZ
    Blend: AUG-CC-PVTZ
  Basis Set: (AUG-CC-PVTZ AUX)
    Blend: AUG-CC-PVTZ-JKFIT

    Orbital Energies [Eh]
    ---------------------

    Doubly Occupied:

       1A    -91.934445     2A    -11.252466     3A    -11.250749
       4A    -11.233255     5A    -11.232611     6A     -8.935567
       7A     -6.616771     8A     -6.615998     9A     -6.614973
      10A     -1.128658    11A     -0.984408    12A     -0.966036
      13A     -0.793108    14A     -0.778944    15A     -0.656043
      16A     -0.638293    17A     -0.596494    18A     -0.545995
      19A     -0.504487    20A     -0.490174    21A     -0.480950
      22A     -0.478672    23A     -0.420239    24A     -0.329286

  @DF-RHF Final Energy:  -553.73331770966251

   => Energetics <=

    Nuclear Repulsion Energy =            236.2366291823165625
    One-Electron Energy =               -1228.9826526146548531
    Two-Electron Energy =                 439.0127057226757756
    Total Energy =                       -553.7333177096625150
  Basis Set: (AUG-CC-PVTZ AUX)
    Blend: AUG-CC-PVTZ-RI
    Molecular point group: c1

    Geometry (in Angstrom), charge = 0, multiplicity = 1:

       Center              X                  Y                   Z               Mass
    ------------   -----------------  -----------------  -----------------  -----------------
         S           -1.225196516665    -0.011215759971    -0.013186990291    31.972071174400
         C            1.340242483335     0.715761940029     0.288278509709    12.000000000000
         C            1.340235483335    -0.702975059971    -0.273249490291    12.000000000000
         C            0.009355483335     1.336171940029    -0.132089490291    12.000000000000
         C            0.009351483335    -1.323374059971     0.147141509709    12.000000000000
         H            1.403214483335     0.677562940029     1.381599509709     1.007825032230
         H            2.184866483335     1.309102940029    -0.078000490291     1.007825032230
         H            1.403187483335    -0.664776059971    -1.366572490291     1.007825032230
         H            2.184862483335    -1.296319059971     0.093016509709     1.007825032230
         H           -0.279298516665     2.173698940029     0.507197509709     1.007825032230
         H            0.055833483335     1.689202940029    -1.166010490291     1.007825032230
         H           -0.279310516665    -2.160915059971    -0.492126490291     1.007825032230
         H            0.055839483335    -1.676384059971     1.181068509709     1.007825032230

  Basis Set: AUG-CC-PVTZ
    Blend: AUG-CC-PVTZ
  Basis Set: (AUG-CC-PVTZ AUX)
    Blend: AUG-CC-PVTZ-JKFIT
	 Reference Energy          =    -553.7333177096625150 [Eh]
	 Singles Energy            =      -0.0000000000000000 [Eh]
	 Same-Spin Energy          =      -0.2262342661633178 [Eh]
	 Opposite-Spin Energy      =      -0.7710980377145897 [Eh]
	 Correlation Energy        =      -0.9973323038779076 [Eh]
	 Total Energy              =    -554.7306500135404121 [Eh]

	 ================> DF-SCS-MP2 Energies <==================
	-----------------------------------------------------------
	 SCS Same-Spin Scale       =       0.3333333333333333 [-]
	 SCS Opposite-Spin Scale   =       1.2000000000000000 [-]
	 SCS Same-Spin Energy      =      -0.0754114220544393 [Eh]
	 SCS Opposite-Spin Energy  =      -0.9253176452575076 [Eh]
	 SCS Correlation Energy    =      -1.0007290673119469 [Eh]
	 SCS Total Energy          =    -554.7340467769744237 [Eh]
	-----------------------------------------------------------

  Dipole Moment: [D]
     X:     2.1064      Y:     0.0157      Z:     0.0204     Total:     2.1065

*** Psi4 exiting successfully. Buy a developer a beer!
