                               Psi4 1.3.2 release

  ==> Input File <==

--------------------------------------------------------------------------
#psi4
#
memory 32 gb

molecule  {
0 1
  S       -1.3055980     0.0000010    -0.0000040
  C        1.2766570     0.7093650     0.2807600
  C        1.3731530    -0.7224394    -0.2376539
  C       -0.0542300     1.3297750    -0.1396080
  C       -0.0542340    -1.3297710     0.1396230
  H        1.3396290     0.6711660     1.3740810
  H        2.1212810     1.3027060    -0.0855190
  H        1.3396020    -0.6711730    -1.3740910
  H        2.1212770    -1.3027160     0.0854980
  H       -0.3428840     2.1673020     0.4996790
  H       -0.0077520     1.6828060    -1.1735290
  H       -0.3428960    -2.1673120    -0.4996450
  H       -0.0077460    -1.6827810     1.1735500
units angstrom
no_reorient  #important for SAPT in psi4, default
symmetry c1  #important for SAPT in psi4, default
}

set PROPERTIES_ORIGIN ["COM"]
properties('MP2/aug-cc-pvtz', properties = ['dipole'])
--------------------------------------------------------------------------

    Molecular point group: c1
  Charge       = 0
  Multiplicity = 1
  Basis Set: AUG-CC-PVTZ
    Blend: AUG-CC-PVTZ
  Basis Set: (AUG-CC-PVTZ AUX)
    Blend: AUG-CC-PVTZ-JKFIT

    Orbital Energies [Eh]
    ---------------------

    Doubly Occupied:

       1A    -91.936907     2A    -11.254328     3A    -11.253963
       4A    -11.234089     5A    -11.233002     6A     -8.937366
       7A     -6.618571     8A     -6.617744     9A     -6.616762
      10A     -1.119651    11A     -0.978253    12A     -0.968943
      13A     -0.797176    14A     -0.778860    15A     -0.661177
      16A     -0.636978    17A     -0.591372    18A     -0.543827
      19A     -0.517436    20A     -0.483556    21A     -0.476446
      22A     -0.468141    23A     -0.422772    24A     -0.329684

  @DF-RHF Final Energy:  -553.72083334661215

   => Energetics <=

    Nuclear Repulsion Energy =            234.3177152947452839
    One-Electron Energy =               -1225.1230904583060237
    Two-Electron Energy =                 437.0845418169485015
    Total Energy =                       -553.7208333466121530
  Basis Set: (AUG-CC-PVTZ AUX)
    Blend: AUG-CC-PVTZ-RI
    Molecular point group: c1

    Geometry (in Angstrom), charge = 0, multiplicity = 1:

       Center              X                  Y                   Z               Mass
    ------------   -----------------  -----------------  -----------------  -----------------
         S           -1.249059667987     0.001782285044    -0.005880656221    31.972071174400
         C            1.333195332013     0.711146285044     0.274883343779    12.000000000000
         C            1.429691332013    -0.720658114956    -0.243530556221    12.000000000000
         C            0.002308332013     1.331556285044    -0.145484656221    12.000000000000
         C            0.002304332013    -1.327989714956     0.133746343779    12.000000000000
         H            1.396167332013     0.672947285044     1.368204343779     1.007825032230
         H            2.177819332013     1.304487285044    -0.091395656221     1.007825032230
         H            1.396140332013    -0.669391714956    -1.379967656221     1.007825032230
         H            2.177815332013    -1.300934714956     0.079621343779     1.007825032230
         H           -0.286345667987     2.169083285044     0.493802343779     1.007825032230
         H            0.048786332013     1.684587285044    -1.179405656221     1.007825032230
         H           -0.286357667987    -2.165530714956    -0.505521656221     1.007825032230
         H            0.048792332013    -1.680999714956     1.167673343779     1.007825032230

  Basis Set: AUG-CC-PVTZ
    Blend: AUG-CC-PVTZ
  Basis Set: (AUG-CC-PVTZ AUX)
    Blend: AUG-CC-PVTZ-JKFIT
	 Reference Energy          =    -553.7208333466121530 [Eh]
	 Singles Energy            =      -0.0000000000000000 [Eh]
	 Same-Spin Energy          =      -0.2258628335313760 [Eh]
	 Opposite-Spin Energy      =      -0.7715719955994803 [Eh]
	 Correlation Energy        =      -0.9974348291308563 [Eh]
	 Total Energy              =    -554.7182681757429918 [Eh]

	 ================> DF-SCS-MP2 Energies <==================
	-----------------------------------------------------------
	 SCS Same-Spin Scale       =       0.3333333333333333 [-]
	 SCS Opposite-Spin Scale   =       1.2000000000000000 [-]
	 SCS Same-Spin Energy      =      -0.0752876111771253 [Eh]
	 SCS Opposite-Spin Energy  =      -0.9258863947193763 [Eh]
	 SCS Correlation Energy    =      -1.0011740058965017 [Eh]
	 SCS Total Energy          =    -554.7220073525086264 [Eh]
	-----------------------------------------------------------

  Dipole Moment: [D]
     X:     2.1037      Y:     0.0224      Z:     0.0377     Total:     2.1041

*** Psi4 exiting successfully. Buy a developer a beer!
