                               Psi4 1.4a3.dev225

  ==> Input File <==

--------------------------------------------------------------------------
#psi4
#
memory 32 gb

molecule  {
0 1
  S       -1.3055980     0.0000010    -0.0000040
  C        1.2766570     0.7093650     0.2807600
  C        1.2766500    -0.7093720    -0.2807680
  C       -0.0716571     1.3378989    -0.1451124
  C       -0.0542340    -1.3297710     0.1396230
  H        1.3396290     0.6711660     1.3740810
  H        2.1212810     1.3027060    -0.0855190
  H        1.3396020    -0.6711730    -1.3740910
  H        2.1212770    -1.3027160     0.0854980
  H       -0.3428840     2.1673020     0.4996790
  H       -0.0077520     1.6828060    -1.1735290
  H       -0.3428960    -2.1673120    -0.4996450
  H       -0.0077460    -1.6827810     1.1735500
units angstrom
no_reorient  #important for SAPT in psi4, default
symmetry c1  #important for SAPT in psi4, default
}

set PROPERTIES_ORIGIN ["COM"]
properties('MP2/aug-cc-pvtz', properties = ['dipole'])
--------------------------------------------------------------------------

    Molecular point group: c1
  Charge       = 0
  Multiplicity = 1
  Basis Set: AUG-CC-PVTZ
    Blend: AUG-CC-PVTZ
  Basis Set: (AUG-CC-PVTZ AUX)
    Blend: AUG-CC-PVTZ-JKFIT

    Orbital Energies [Eh]
    ---------------------

    Doubly Occupied:

       1A    -91.935621     2A    -11.252517     3A    -11.251857
       4A    -11.234150     5A    -11.232945     6A     -8.936343
       7A     -6.617527     8A     -6.616759     9A     -6.615753
      10A     -1.124966    11A     -0.982311    12A     -0.965191
      13A     -0.792840    14A     -0.780316    15A     -0.655264
      16A     -0.636382    17A     -0.596914    18A     -0.546814
      19A     -0.501600    20A     -0.488951    21A     -0.481479
      22A     -0.478038    23A     -0.420144    24A     -0.330247

  @DF-RHF Final Energy:  -553.73332827137415

   => Energetics <=

    Nuclear Repulsion Energy =            235.4223161310175669
    One-Electron Energy =               -1227.3614311933204135
    Two-Electron Energy =                 438.2057867909285847
    Total Energy =                       -553.7333282713741482
  Basis Set: (AUG-CC-PVTZ AUX)
    Blend: AUG-CC-PVTZ-RI
    Molecular point group: c1

    Geometry (in Angstrom), charge = 0, multiplicity = 1:

       Center              X                  Y                   Z               Mass
    ------------   -----------------  -----------------  -----------------  -----------------
         S           -1.233529863902    -0.001106299600     0.000746528166    31.972071174400
         C            1.348725136098     0.708257700400     0.281510528166    12.000000000000
         C            1.348718136098    -0.710479299600    -0.280017471834    12.000000000000
         C            0.000411036098     1.336791600400    -0.144361871834    12.000000000000
         C            0.017834136098    -1.330878299600     0.140373528166    12.000000000000
         H            1.411697136098     0.670058700400     1.374831528166     1.007825032230
         H            2.193349136098     1.301598700400    -0.084768471834     1.007825032230
         H            1.411670136098    -0.672280299600    -1.373340471834     1.007825032230
         H            2.193345136098    -1.303823299600     0.086248528166     1.007825032230
         H           -0.270815863902     2.166194700400     0.500429528166     1.007825032230
         H            0.064316136098     1.681698700400    -1.172778471834     1.007825032230
         H           -0.270827863902    -2.168419299600    -0.498894471834     1.007825032230
         H            0.064322136098    -1.683888299600     1.174300528166     1.007825032230

  Basis Set: AUG-CC-PVTZ
    Blend: AUG-CC-PVTZ
  Basis Set: (AUG-CC-PVTZ AUX)
    Blend: AUG-CC-PVTZ-JKFIT
	 Reference Energy          =    -553.7333282713741482 [Eh]
	 Singles Energy            =      -0.0000000000000000 [Eh]
	 Same-Spin Energy          =      -0.2259652339583881 [Eh]
	 Opposite-Spin Energy      =      -0.7710642055520922 [Eh]
	 Correlation Energy        =      -0.9970294395104803 [Eh]
	 Total Energy              =    -554.7303577108846184 [Eh]

	 ================> DF-SCS-MP2 Energies <==================
	-----------------------------------------------------------
	 SCS Same-Spin Scale       =       0.3333333333333333 [-]
	 SCS Opposite-Spin Scale   =       1.2000000000000000 [-]
	 SCS Same-Spin Energy      =      -0.0753217446527960 [Eh]
	 SCS Opposite-Spin Energy  =      -0.9252770466625106 [Eh]
	 SCS Correlation Energy    =      -1.0005987913153067 [Eh]
	 SCS Total Energy          =    -554.7339270626894177 [Eh]
	-----------------------------------------------------------

  Dipole Moment: [D]
     X:     2.1187      Y:    -0.0015      Z:     0.0002     Total:     2.1187

*** Psi4 exiting successfully. Buy a developer a beer!
