                               Psi4 1.3.2 release

  ==> Input File <==

--------------------------------------------------------------------------
#psi4
#
memory 32 gb

molecule  {
0 1
  S       -1.3055980     0.0000010    -0.0000040
  C        1.2766570     0.7093650     0.2807600
  C        1.1320426    -0.6768401    -0.3402477
  C       -0.0542300     1.3297750    -0.1396080
  C       -0.0542340    -1.3297710     0.1396230
  H        1.3396290     0.6711660     1.3740810
  H        2.1212810     1.3027060    -0.0855190
  H        1.3396020    -0.6711730    -1.3740910
  H        2.1212770    -1.3027160     0.0854980
  H       -0.3428840     2.1673020     0.4996790
  H       -0.0077520     1.6828060    -1.1735290
  H       -0.3428960    -2.1673120    -0.4996450
  H       -0.0077460    -1.6827810     1.1735500
units angstrom
no_reorient  #important for SAPT in psi4, default
symmetry c1  #important for SAPT in psi4, default
}

set PROPERTIES_ORIGIN ["COM"]
properties('MP2/aug-cc-pvtz', properties = ['dipole'])
--------------------------------------------------------------------------

    Molecular point group: c1
  Charge       = 0
  Multiplicity = 1
  Basis Set: AUG-CC-PVTZ
    Blend: AUG-CC-PVTZ
  Basis Set: (AUG-CC-PVTZ AUX)
    Blend: AUG-CC-PVTZ-JKFIT

    Orbital Energies [Eh]
    ---------------------

    Doubly Occupied:

       1A    -91.934692     2A    -11.251895     3A    -11.251148
       4A    -11.239382     5A    -11.234559     6A     -8.935778
       7A     -6.616867     8A     -6.616204     9A     -6.615134
      10A     -1.141581    11A     -0.994939    12A     -0.959848
      13A     -0.793985    14A     -0.781791    15A     -0.662289
      16A     -0.633708    17A     -0.603761    18A     -0.555556
      19A     -0.522691    20A     -0.487906    21A     -0.482870
      22A     -0.452680    23A     -0.409033    24A     -0.331342

  @DF-RHF Final Energy:  -553.70737749151067

   => Energetics <=

    Nuclear Repulsion Energy =            237.5885211365688292
    One-Electron Energy =               -1231.5725220189403899
    Two-Electron Energy =                 440.2766233908608910
    Total Energy =                       -553.7073774915106696
  Basis Set: (AUG-CC-PVTZ AUX)
    Blend: AUG-CC-PVTZ-RI
    Molecular point group: c1

    Geometry (in Angstrom), charge = 0, multiplicity = 1:

       Center              X                  Y                   Z               Mass
    ------------   -----------------  -----------------  -----------------  -----------------
         S           -1.216193925968    -0.004433352399     0.008103897592    31.972071174400
         C            1.366061074032     0.704930647601     0.288867897592    12.000000000000
         C            1.221446674032    -0.681274452399    -0.332139802408    12.000000000000
         C            0.035174074032     1.325340647601    -0.131500102408    12.000000000000
         C            0.035170074032    -1.334205352399     0.147730897592    12.000000000000
         H            1.429033074032     0.666731647601     1.382188897592     1.007825032230
         H            2.210685074032     1.298271647601    -0.077411102408     1.007825032230
         H            1.429006074032    -0.675607352399    -1.365983102408     1.007825032230
         H            2.210681074032    -1.307150352399     0.093605897592     1.007825032230
         H           -0.253479925968     2.162867647601     0.507786897592     1.007825032230
         H            0.081652074032     1.678371647601    -1.165421102408     1.007825032230
         H           -0.253491925968    -2.171746352399    -0.491537102408     1.007825032230
         H            0.081658074032    -1.687215352399     1.181657897592     1.007825032230

  Basis Set: AUG-CC-PVTZ
    Blend: AUG-CC-PVTZ
  Basis Set: (AUG-CC-PVTZ AUX)
    Blend: AUG-CC-PVTZ-JKFIT
	 Reference Energy          =    -553.7073774915106696 [Eh]
	 Singles Energy            =      -0.0000000000000000 [Eh]
	 Same-Spin Energy          =      -0.2276329790085364 [Eh]
	 Opposite-Spin Energy      =      -0.7732404087044521 [Eh]
	 Correlation Energy        =      -1.0008733877129885 [Eh]
	 Total Energy              =    -554.7082508792236695 [Eh]

	 ================> DF-SCS-MP2 Energies <==================
	-----------------------------------------------------------
	 SCS Same-Spin Scale       =       0.3333333333333333 [-]
	 SCS Opposite-Spin Scale   =       1.2000000000000000 [-]
	 SCS Same-Spin Energy      =      -0.0758776596695121 [Eh]
	 SCS Opposite-Spin Energy  =      -0.9278884904453425 [Eh]
	 SCS Correlation Energy    =      -1.0037661501148547 [Eh]
	 SCS Total Energy          =    -554.7111436416255401 [Eh]
	-----------------------------------------------------------

  Dipole Moment: [D]
     X:     2.0460      Y:     0.0173      Z:    -0.0467     Total:     2.0466

*** Psi4 exiting successfully. Buy a developer a beer!
