                               Psi4 1.3.2 release

  ==> Input File <==

--------------------------------------------------------------------------
#psi4
#
memory 32 gb

molecule  {
0 1
  S       -1.3055980     0.0000010    -0.0000040
  C        1.2766570     0.7093650     0.2807600
  C        1.3007941    -0.7132899    -0.2702380
  C       -0.0542300     1.3297750    -0.1396080
  C       -0.0542340    -1.3297710     0.1396230
  H        1.3396290     0.6711660     1.3740810
  H        2.1212810     1.3027060    -0.0855190
  H        1.3396020    -0.6711730    -1.3740910
  H        2.1212770    -1.3027160     0.0854980
  H       -0.3428840     2.1673020     0.4996790
  H       -0.0077520     1.6828060    -1.1735290
  H       -0.3428960    -2.1673120    -0.4996450
  H       -0.0077460    -1.6827810     1.1735500
units angstrom
no_reorient  #important for SAPT in psi4, default
symmetry c1  #important for SAPT in psi4, default
}

set PROPERTIES_ORIGIN ["COM"]
properties('MP2/aug-cc-pvtz', properties = ['dipole'])
--------------------------------------------------------------------------

    Molecular point group: c1
  Charge       = 0
  Multiplicity = 1
  Basis Set: AUG-CC-PVTZ
    Blend: AUG-CC-PVTZ
  Basis Set: (AUG-CC-PVTZ AUX)
    Blend: AUG-CC-PVTZ-JKFIT

    Orbital Energies [Eh]
    ---------------------

    Doubly Occupied:

       1A    -91.935884     2A    -11.252828     3A    -11.252736
       4A    -11.233320     5A    -11.232594     6A     -8.936503
       7A     -6.617687     8A     -6.616895     9A     -6.615898
      10A     -1.124627    11A     -0.981761    12A     -0.965918
      13A     -0.793147    14A     -0.779373    15A     -0.656305
      16A     -0.638031    17A     -0.595102    18A     -0.544729
      19A     -0.504013    20A     -0.489777    21A     -0.478958
      22A     -0.477147    23A     -0.421764    24A     -0.329871

  @DF-RHF Final Energy:  -553.73286989428573

   => Energetics <=

    Nuclear Repulsion Energy =            235.2519876949912714
    One-Electron Energy =               -1227.0199756208178314
    Two-Electron Energy =                 438.0351180315408328
    Total Energy =                       -553.7328698942857272
  Basis Set: (AUG-CC-PVTZ AUX)
    Blend: AUG-CC-PVTZ-RI
    Molecular point group: c1

    Geometry (in Angstrom), charge = 0, multiplicity = 1:

       Center              X                  Y                   Z               Mass
    ------------   -----------------  -----------------  -----------------  -----------------
         S           -1.239196431311     0.000535117329    -0.001439119794    31.972071174400
         C            1.343058568689     0.709899117329     0.279324880206    12.000000000000
         C            1.367195668689    -0.712755782671    -0.271673119794    12.000000000000
         C            0.012171568689     1.330309117329    -0.141043119794    12.000000000000
         C            0.012167568689    -1.329236882671     0.138187880206    12.000000000000
         H            1.406030568689     0.671700117329     1.372645880206     1.007825032230
         H            2.187682568689     1.303240117329    -0.086954119794     1.007825032230
         H            1.406003568689    -0.670638882671    -1.375526119794     1.007825032230
         H            2.187678568689    -1.302181882671     0.084062880206     1.007825032230
         H           -0.276482431311     2.167836117329     0.498243880206     1.007825032230
         H            0.058649568689     1.683340117329    -1.174964119794     1.007825032230
         H           -0.276494431311    -2.166777882671    -0.501080119794     1.007825032230
         H            0.058655568689    -1.682246882671     1.172114880206     1.007825032230

  Basis Set: AUG-CC-PVTZ
    Blend: AUG-CC-PVTZ
  Basis Set: (AUG-CC-PVTZ AUX)
    Blend: AUG-CC-PVTZ-JKFIT
	 Reference Energy          =    -553.7328698942857272 [Eh]
	 Singles Energy            =      -0.0000000000000000 [Eh]
	 Same-Spin Energy          =      -0.2259623043756196 [Eh]
	 Opposite-Spin Energy      =      -0.7711280516168759 [Eh]
	 Correlation Energy        =      -0.9970903559924955 [Eh]
	 Total Energy              =    -554.7299602502781681 [Eh]

	 ================> DF-SCS-MP2 Energies <==================
	-----------------------------------------------------------
	 SCS Same-Spin Scale       =       0.3333333333333333 [-]
	 SCS Opposite-Spin Scale   =       1.2000000000000000 [-]
	 SCS Same-Spin Energy      =      -0.0753207681252065 [Eh]
	 SCS Opposite-Spin Energy  =      -0.9253536619402510 [Eh]
	 SCS Correlation Energy    =      -1.0006744300654575 [Eh]
	 SCS Total Energy          =    -554.7335443243512145 [Eh]
	-----------------------------------------------------------

  Dipole Moment: [D]
     X:     2.1170      Y:     0.0031      Z:     0.0088     Total:     2.1170

*** Psi4 exiting successfully. Buy a developer a beer!
