                               Psi4 1.3.2 release

  ==> Input File <==

--------------------------------------------------------------------------
#psi4
#
memory 32 gb

molecule  {
0 1
  S       -1.3055980     0.0000010    -0.0000040
  C        1.2766570     0.7093650     0.2807600
  C        1.2766500    -0.7093720    -0.2807680
  C       -0.0542300     1.3297750    -0.1396080
  C       -0.0542340    -1.3297710     0.1396230
  H        1.3396290     0.6711660     1.3740810
  H        2.1212810     1.3027060    -0.0855190
  H        1.3396020    -0.6711730    -1.3740910
  H        2.1212770    -1.3027160     0.0854980
  H       -0.3957290     2.3206312     0.6167156
  H       -0.0077520     1.6828060    -1.1735290
  H       -0.3428960    -2.1673120    -0.4996450
  H       -0.0077460    -1.6827810     1.1735500
units angstrom
no_reorient  #important for SAPT in psi4, default
symmetry c1  #important for SAPT in psi4, default
}

set PROPERTIES_ORIGIN ["COM"]
properties('MP2/aug-cc-pvtz', properties = ['dipole'])
--------------------------------------------------------------------------

    Molecular point group: c1
  Charge       = 0
  Multiplicity = 1
  Basis Set: AUG-CC-PVTZ
    Blend: AUG-CC-PVTZ
  Basis Set: (AUG-CC-PVTZ AUX)
    Blend: AUG-CC-PVTZ-JKFIT

    Orbital Energies [Eh]
    ---------------------

    Doubly Occupied:

       1A    -91.937968     2A    -11.274294     3A    -11.253793
       4A    -11.235171     5A    -11.234530     6A     -8.938521
       7A     -6.619667     8A     -6.618897     9A     -6.617884
      10A     -1.126737    11A     -0.978446    12A     -0.964737
      13A     -0.792465    14A     -0.770204    15A     -0.652173
      16A     -0.634588    17A     -0.590219    18A     -0.541650
      19A     -0.499997    20A     -0.488680    21A     -0.478905
      22A     -0.469014    23A     -0.423165    24A     -0.330002

  @DF-RHF Final Energy:  -553.71294504829825

   => Energetics <=

    Nuclear Repulsion Energy =            234.6784499707683551
    One-Electron Energy =               -1225.8393719290831996
    Two-Electron Energy =                 437.4479769100165640
    Total Energy =                       -553.7129450482982520
  Basis Set: (AUG-CC-PVTZ AUX)
    Blend: AUG-CC-PVTZ-RI
    Molecular point group: c1

    Geometry (in Angstrom), charge = 0, multiplicity = 1:

       Center              X                  Y                   Z               Mass
    ------------   -----------------  -----------------  -----------------  -----------------
         S           -1.235300378674    -0.001754251196    -0.001343616685    31.972071174400
         C            1.346954621326     0.707609748804     0.279420383315    12.000000000000
         C            1.346947621326    -0.711127251196    -0.282107616685    12.000000000000
         C            0.016067621326     1.328019748804    -0.140947616685    12.000000000000
         C            0.016063621326    -1.331526251196     0.138283383315    12.000000000000
         H            1.409926621326     0.669410748804     1.372741383315     1.007825032230
         H            2.191578621326     1.300950748804    -0.086858616685     1.007825032230
         H            1.409899621326    -0.672928251196    -1.375430616685     1.007825032230
         H            2.191574621326    -1.304471251196     0.084158383315     1.007825032230
         H           -0.325431378674     2.318875948804     0.615375983315     1.007825032230
         H            0.062545621326     1.681050748804    -1.174868616685     1.007825032230
         H           -0.272598378674    -2.169067251196    -0.500984616685     1.007825032230
         H            0.062551621326    -1.684536251196     1.172210383315     1.007825032230

  Basis Set: AUG-CC-PVTZ
    Blend: AUG-CC-PVTZ
  Basis Set: (AUG-CC-PVTZ AUX)
    Blend: AUG-CC-PVTZ-JKFIT
	 Reference Energy          =    -553.7129450482982520 [Eh]
	 Singles Energy            =      -0.0000000000000000 [Eh]
	 Same-Spin Energy          =      -0.2262831619487015 [Eh]
	 Opposite-Spin Energy      =      -0.7729532489230286 [Eh]
	 Correlation Energy        =      -0.9992364108717301 [Eh]
	 Total Energy              =    -554.7121814591699831 [Eh]

	 ================> DF-SCS-MP2 Energies <==================
	-----------------------------------------------------------
	 SCS Same-Spin Scale       =       0.3333333333333333 [-]
	 SCS Opposite-Spin Scale   =       1.2000000000000000 [-]
	 SCS Same-Spin Energy      =      -0.0754277206495672 [Eh]
	 SCS Opposite-Spin Energy  =      -0.9275438987076343 [Eh]
	 SCS Correlation Energy    =      -1.0029716193572016 [Eh]
	 SCS Total Energy          =    -554.7159166676555060 [Eh]
	-----------------------------------------------------------

  Dipole Moment: [D]
     X:     2.1311      Y:    -0.1465      Z:    -0.0278     Total:     2.1363

*** Psi4 exiting successfully. Buy a developer a beer!
