                               Psi4 1.3.2 release

  ==> Input File <==

--------------------------------------------------------------------------
#psi4
#
memory 32 gb

molecule  {
0 1
  S       -1.3280554     0.0204799    -0.0098959
  C        1.2766570     0.7093650     0.2807600
  C        1.2766500    -0.7093720    -0.2807680
  C       -0.0542300     1.3297750    -0.1396080
  C       -0.0542340    -1.3297710     0.1396230
  H        1.3396290     0.6711660     1.3740810
  H        2.1212810     1.3027060    -0.0855190
  H        1.3396020    -0.6711730    -1.3740910
  H        2.1212770    -1.3027160     0.0854980
  H       -0.3428840     2.1673020     0.4996790
  H       -0.0077520     1.6828060    -1.1735290
  H       -0.3428960    -2.1673120    -0.4996450
  H       -0.0077460    -1.6827810     1.1735500
units angstrom
no_reorient  #important for SAPT in psi4, default
symmetry c1  #important for SAPT in psi4, default
}

set PROPERTIES_ORIGIN ["COM"]
properties('MP2/aug-cc-pvtz', properties = ['dipole'])
--------------------------------------------------------------------------

    Molecular point group: c1
  Charge       = 0
  Multiplicity = 1
  Basis Set: AUG-CC-PVTZ
    Blend: AUG-CC-PVTZ
  Basis Set: (AUG-CC-PVTZ AUX)
    Blend: AUG-CC-PVTZ-JKFIT

    Orbital Energies [Eh]
    ---------------------

    Doubly Occupied:

       1A    -91.937062     2A    -11.254890     3A    -11.252180
       4A    -11.233600     5A    -11.232977     6A     -8.937183
       7A     -6.618320     8A     -6.617529     9A     -6.616550
      10A     -1.124011    11A     -0.982520    12A     -0.962838
      13A     -0.792027    14A     -0.780343    15A     -0.654882
      16A     -0.637528    17A     -0.596105    18A     -0.544671
      19A     -0.502425    20A     -0.490069    21A     -0.480448
      22A     -0.472624    23A     -0.421825    24A     -0.330812

  @DF-RHF Final Energy:  -553.73289919517845

   => Energetics <=

    Nuclear Repulsion Energy =            234.6900799404227485
    One-Electron Energy =               -1225.8991216917052043
    Two-Electron Energy =                 437.4761425561040369
    Total Energy =                       -553.7328991951784474
  Basis Set: (AUG-CC-PVTZ AUX)
    Blend: AUG-CC-PVTZ-RI
    Molecular point group: c1

    Geometry (in Angstrom), charge = 0, multiplicity = 1:

       Center              X                  Y                   Z               Mass
    ------------   -----------------  -----------------  -----------------  -----------------
         S           -1.250206764209     0.013042525678    -0.006303176517    31.972071174400
         C            1.354505635791     0.701927625678     0.284352723483    12.000000000000
         C            1.354498635791    -0.716809374322    -0.277175276517    12.000000000000
         C            0.023618635791     1.322337625678    -0.136015276517    12.000000000000
         C            0.023614635791    -1.337208374322     0.143215723483    12.000000000000
         H            1.417477635791     0.663728625678     1.377673723483     1.007825032230
         H            2.199129635791     1.295268625678    -0.081926276517     1.007825032230
         H            1.417450635791    -0.678610374322    -1.370498276517     1.007825032230
         H            2.199125635791    -1.310153374322     0.089090723483     1.007825032230
         H           -0.265035364209     2.159864625678     0.503271723483     1.007825032230
         H            0.070096635791     1.675368625678    -1.169936276517     1.007825032230
         H           -0.265047364209    -2.174749374322    -0.496052276517     1.007825032230
         H            0.070102635791    -1.690218374322     1.177142723483     1.007825032230

  Basis Set: AUG-CC-PVTZ
    Blend: AUG-CC-PVTZ
  Basis Set: (AUG-CC-PVTZ AUX)
    Blend: AUG-CC-PVTZ-JKFIT
	 Reference Energy          =    -553.7328991951784474 [Eh]
	 Singles Energy            =      -0.0000000000000000 [Eh]
	 Same-Spin Energy          =      -0.2258990762636587 [Eh]
	 Opposite-Spin Energy      =      -0.7713180063178899 [Eh]
	 Correlation Energy        =      -0.9972170825815486 [Eh]
	 Total Energy              =    -554.7301162777599757 [Eh]

	 ================> DF-SCS-MP2 Energies <==================
	-----------------------------------------------------------
	 SCS Same-Spin Scale       =       0.3333333333333333 [-]
	 SCS Opposite-Spin Scale   =       1.2000000000000000 [-]
	 SCS Same-Spin Energy      =      -0.0752996920878862 [Eh]
	 SCS Opposite-Spin Energy  =      -0.9255816075814679 [Eh]
	 SCS Correlation Energy    =      -1.0008812996693541 [Eh]
	 SCS Total Energy          =    -554.7337804948477924 [Eh]
	-----------------------------------------------------------

  Dipole Moment: [D]
     X:     2.1311      Y:    -0.0182      Z:     0.0095     Total:     2.1312

*** Psi4 exiting successfully. Buy a developer a beer!
