                               Psi4 1.3.2 release

  ==> Input File <==

--------------------------------------------------------------------------
#psi4
#
memory 32 gb

molecule  {
0 1
  S       -1.3930729     0.0842841    -0.0397964
  C        1.2766570     0.7093650     0.2807600
  C        1.2766500    -0.7093720    -0.2807680
  C       -0.0542300     1.3297750    -0.1396080
  C       -0.0542340    -1.3297710     0.1396230
  H        1.3396290     0.6711660     1.3740810
  H        2.1212810     1.3027060    -0.0855190
  H        1.3396020    -0.6711730    -1.3740910
  H        2.1212770    -1.3027160     0.0854980
  H       -0.3428840     2.1673020     0.4996790
  H       -0.0077520     1.6828060    -1.1735290
  H       -0.3428960    -2.1673120    -0.4996450
  H       -0.0077460    -1.6827810     1.1735500
units angstrom
no_reorient  #important for SAPT in psi4, default
symmetry c1  #important for SAPT in psi4, default
}

set PROPERTIES_ORIGIN ["COM"]
properties('MP2/aug-cc-pvtz', properties = ['dipole'])
--------------------------------------------------------------------------

    Molecular point group: c1
  Charge       = 0
  Multiplicity = 1
  Basis Set: AUG-CC-PVTZ
    Blend: AUG-CC-PVTZ
  Basis Set: (AUG-CC-PVTZ AUX)
    Blend: AUG-CC-PVTZ-JKFIT

    Orbital Energies [Eh]
    ---------------------

    Doubly Occupied:

       1A    -91.940626     2A    -11.262344     3A    -11.251387
       4A    -11.234578     5A    -11.233886     6A     -8.939399
       7A     -6.620443     8A     -6.619588     9A     -6.618663
      10A     -1.117885    11A     -0.982791    12A     -0.955417
      13A     -0.792447    14A     -0.780535    15A     -0.653519
      16A     -0.636596    17A     -0.596118    18A     -0.543041
      19A     -0.501360    20A     -0.490720    21A     -0.480754
      22A     -0.461135    23A     -0.420929    24A     -0.332408

  @DF-RHF Final Energy:  -553.72671048861946

   => Energetics <=

    Nuclear Repulsion Energy =            232.1826000526531857
    One-Electron Energy =               -1220.8854859224325082
    Two-Electron Energy =                 434.9761753811598055
    Total Energy =                       -553.7267104886194602
  Basis Set: (AUG-CC-PVTZ AUX)
    Blend: AUG-CC-PVTZ-RI
    Molecular point group: c1

    Geometry (in Angstrom), charge = 0, multiplicity = 1:

       Center              X                  Y                   Z               Mass
    ------------   -----------------  -----------------  -----------------  -----------------
         S           -1.291611475023     0.053674577813    -0.025344535470    31.972071174400
         C            1.378118424977     0.678755477813     0.295211864530    12.000000000000
         C            1.378111424977    -0.739981522187    -0.266316135470    12.000000000000
         C            0.047231424977     1.299165477813    -0.125156135470    12.000000000000
         C            0.047227424977    -1.360380522187     0.154074864530    12.000000000000
         H            1.441090424977     0.640556477813     1.388532864530     1.007825032230
         H            2.222742424977     1.272096477813    -0.071067135470     1.007825032230
         H            1.441063424977    -0.701782522187    -1.359639135470     1.007825032230
         H            2.222738424977    -1.333325522187     0.099949864530     1.007825032230
         H           -0.241422575023     2.136692477813     0.514130864530     1.007825032230
         H            0.093709424977     1.652196477813    -1.159077135470     1.007825032230
         H           -0.241434575023    -2.197921522187    -0.485193135470     1.007825032230
         H            0.093715424977    -1.713390522187     1.188001864530     1.007825032230

  Basis Set: AUG-CC-PVTZ
    Blend: AUG-CC-PVTZ
  Basis Set: (AUG-CC-PVTZ AUX)
    Blend: AUG-CC-PVTZ-JKFIT
	 Reference Energy          =    -553.7267104886194602 [Eh]
	 Singles Energy            =      -0.0000000000000000 [Eh]
	 Same-Spin Energy          =      -0.2255471483711756 [Eh]
	 Opposite-Spin Energy      =      -0.7720735928904308 [Eh]
	 Correlation Energy        =      -0.9976207412616063 [Eh]
	 Total Energy              =    -554.7243312298810451 [Eh]

	 ================> DF-SCS-MP2 Energies <==================
	-----------------------------------------------------------
	 SCS Same-Spin Scale       =       0.3333333333333333 [-]
	 SCS Opposite-Spin Scale   =       1.2000000000000000 [-]
	 SCS Same-Spin Energy      =      -0.0751823827903919 [Eh]
	 SCS Opposite-Spin Energy  =      -0.9264883114685168 [Eh]
	 SCS Correlation Energy    =      -1.0016706942589086 [Eh]
	 SCS Total Energy          =    -554.7283811828783655 [Eh]
	-----------------------------------------------------------

  Dipole Moment: [D]
     X:     2.1897      Y:    -0.0802      Z:     0.0365     Total:     2.1915

*** Psi4 exiting successfully. Buy a developer a beer!
