                               Psi4 1.4a3.dev225

  ==> Input File <==

--------------------------------------------------------------------------
#psi4
#
memory 32 gb

molecule  {
0 1
  S       -1.3055980     0.0000010    -0.0000040
  C        1.2766570     0.7093650     0.2807600
  C        1.2766500    -0.7093720    -0.2807680
  C       -0.0542300     1.3297750    -0.1396080
  C       -0.0542340    -1.3297710     0.1396230
  H        1.3384797     0.6718632     1.3541262
  H        2.1212810     1.3027060    -0.0855190
  H        1.3396020    -0.6711730    -1.3740910
  H        2.1212770    -1.3027160     0.0854980
  H       -0.3428840     2.1673020     0.4996790
  H       -0.0077520     1.6828060    -1.1735290
  H       -0.3428960    -2.1673120    -0.4996450
  H       -0.0077460    -1.6827810     1.1735500
units angstrom
no_reorient  #important for SAPT in psi4, default
symmetry c1  #important for SAPT in psi4, default
}

set PROPERTIES_ORIGIN ["COM"]
properties('MP2/aug-cc-pvtz', properties = ['dipole'])
--------------------------------------------------------------------------

    Molecular point group: c1
  Charge       = 0
  Multiplicity = 1
  Basis Set: AUG-CC-PVTZ
    Blend: AUG-CC-PVTZ
  Basis Set: (AUG-CC-PVTZ AUX)
    Blend: AUG-CC-PVTZ-JKFIT

    Orbital Energies [Eh]
    ---------------------

    Doubly Occupied:

       1A    -91.935536     2A    -11.252377     3A    -11.252227
       4A    -11.232899     5A    -11.230539     6A     -8.936215
       7A     -6.617389     8A     -6.616612     9A     -6.615608
      10A     -1.126864    11A     -0.983521    12A     -0.965323
      13A     -0.794261    14A     -0.779595    15A     -0.656105
      16A     -0.637848    17A     -0.596789    18A     -0.546363
      19A     -0.503270    20A     -0.490055    21A     -0.481849
      22A     -0.476401    23A     -0.420967    24A     -0.329932

  @DF-RHF Final Energy:  -553.73351492067150

   => Energetics <=

    Nuclear Repulsion Energy =            235.6676477961525791
    One-Electron Energy =               -1227.8452313549048540
    Two-Electron Energy =                 438.4440686380808074
    Total Energy =                       -553.7335149206714959
  Basis Set: (AUG-CC-PVTZ AUX)
    Blend: AUG-CC-PVTZ-RI
    Molecular point group: c1

    Geometry (in Angstrom), charge = 0, multiplicity = 1:

       Center              X                  Y                   Z               Mass
    ------------   -----------------  -----------------  -----------------  -----------------
         S           -1.235892193463    -0.000006912928     0.000224667264    31.972071174400
         C            1.346362806537     0.709357087072     0.280988667264    12.000000000000
         C            1.346355806537    -0.709379912928    -0.280539332736    12.000000000000
         C            0.015475806537     1.329767087072    -0.139379332736    12.000000000000
         C            0.015471806537    -1.329778912928     0.139851667264    12.000000000000
         H            1.408185506537     0.671855287072     1.354354867264     1.007825032230
         H            2.190986806537     1.302698087072    -0.085290332736     1.007825032230
         H            1.409307806537    -0.671180912928    -1.373862332736     1.007825032230
         H            2.190982806537    -1.302723912928     0.085726667264     1.007825032230
         H           -0.273178193463     2.167294087072     0.499907667264     1.007825032230
         H            0.061953806537     1.682798087072    -1.173300332736     1.007825032230
         H           -0.273190193463    -2.167319912928    -0.499416332736     1.007825032230
         H            0.061959806537    -1.682788912928     1.173778667264     1.007825032230

  Basis Set: AUG-CC-PVTZ
    Blend: AUG-CC-PVTZ
  Basis Set: (AUG-CC-PVTZ AUX)
    Blend: AUG-CC-PVTZ-JKFIT
	 Reference Energy          =    -553.7335149206714959 [Eh]
	 Singles Energy            =      -0.0000000000000000 [Eh]
	 Same-Spin Energy          =      -0.2260735124838451 [Eh]
	 Opposite-Spin Energy      =      -0.7710479943954947 [Eh]
	 Correlation Energy        =      -0.9971215068793398 [Eh]
	 Total Energy              =    -554.7306364275508486 [Eh]

	 ================> DF-SCS-MP2 Energies <==================
	-----------------------------------------------------------
	 SCS Same-Spin Scale       =       0.3333333333333333 [-]
	 SCS Opposite-Spin Scale   =       1.2000000000000000 [-]
	 SCS Same-Spin Energy      =      -0.0753578374946150 [Eh]
	 SCS Opposite-Spin Energy  =      -0.9252575932745936 [Eh]
	 SCS Correlation Energy    =      -1.0006154307692086 [Eh]
	 SCS Total Energy          =    -554.7341303514407400 [Eh]
	-----------------------------------------------------------

  Dipole Moment: [D]
     X:     2.1197      Y:     0.0012      Z:     0.0112     Total:     2.1197

*** Psi4 exiting successfully. Buy a developer a beer!
