                               Psi4 1.3.2 release

  ==> Input File <==

--------------------------------------------------------------------------
#psi4
#
memory 32 gb

molecule  {
0 1
  S       -1.3055980     0.0000010    -0.0000040
  C        1.2766570     0.7093650     0.2807600
  C        1.2766500    -0.7093720    -0.2807680
  C       -0.0310853     1.3078525    -0.1373061
  C       -0.0542340    -1.3297710     0.1396230
  H        1.3396290     0.6711660     1.3740810
  H        2.1212810     1.3027060    -0.0855190
  H        1.3396020    -0.6711730    -1.3740910
  H        2.1212770    -1.3027160     0.0854980
  H       -0.3428840     2.1673020     0.4996790
  H       -0.0077520     1.6828060    -1.1735290
  H       -0.3428960    -2.1673120    -0.4996450
  H       -0.0077460    -1.6827810     1.1735500
units angstrom
no_reorient  #important for SAPT in psi4, default
symmetry c1  #important for SAPT in psi4, default
}

set PROPERTIES_ORIGIN ["COM"]
properties('MP2/aug-cc-pvtz', properties = ['dipole'])
--------------------------------------------------------------------------

    Molecular point group: c1
  Charge       = 0
  Multiplicity = 1
  Basis Set: AUG-CC-PVTZ
    Blend: AUG-CC-PVTZ
  Basis Set: (AUG-CC-PVTZ AUX)
    Blend: AUG-CC-PVTZ-JKFIT

    Orbital Energies [Eh]
    ---------------------

    Doubly Occupied:

       1A    -91.935768     2A    -11.253372     3A    -11.252318
       4A    -11.233080     5A    -11.231407     6A     -8.936478
       7A     -6.617650     8A     -6.616848     9A     -6.615842
      10A     -1.129921    11A     -0.984940    12A     -0.964888
      13A     -0.792571    14A     -0.777622    15A     -0.655662
      16A     -0.640752    17A     -0.595021    18A     -0.543499
      19A     -0.505712    20A     -0.491224    21A     -0.478137
      22A     -0.474465    23A     -0.423433    24A     -0.329558

  @DF-RHF Final Energy:  -553.73197422342730

   => Energetics <=

    Nuclear Repulsion Energy =            235.9630273339727466
    One-Electron Energy =               -1228.4296674101892677
    Two-Electron Energy =                 438.7346658527892487
    Total Energy =                       -553.7319742234273008
  Basis Set: (AUG-CC-PVTZ AUX)
    Blend: AUG-CC-PVTZ-RI
    Molecular point group: c1

    Geometry (in Angstrom), charge = 0, multiplicity = 1:

       Center              X                  Y                   Z               Mass
    ------------   -----------------  -----------------  -----------------  -----------------
         S           -1.239060203166     0.002989323115    -0.000317548050    31.972071174400
         C            1.343194796834     0.712353323115     0.280446451950    12.000000000000
         C            1.343187796834    -0.706383676885    -0.281081548050    12.000000000000
         C            0.035452496834     1.310840823115    -0.137619648050    12.000000000000
         C            0.012303796834    -1.326782676885     0.139309451950    12.000000000000
         H            1.406166796834     0.674154323115     1.373767451950     1.007825032230
         H            2.187818796834     1.305694323115    -0.085832548050     1.007825032230
         H            1.406139796834    -0.668184676885    -1.374404548050     1.007825032230
         H            2.187814796834    -1.299727676885     0.085184451950     1.007825032230
         H           -0.276346203166     2.170290323115     0.499365451950     1.007825032230
         H            0.058785796834     1.685794323115    -1.173842548050     1.007825032230
         H           -0.276358203166    -2.164323676885    -0.499958548050     1.007825032230
         H            0.058791796834    -1.679792676885     1.173236451950     1.007825032230

  Basis Set: AUG-CC-PVTZ
    Blend: AUG-CC-PVTZ
  Basis Set: (AUG-CC-PVTZ AUX)
    Blend: AUG-CC-PVTZ-JKFIT
	 Reference Energy          =    -553.7319742234273008 [Eh]
	 Singles Energy            =      -0.0000000000000000 [Eh]
	 Same-Spin Energy          =      -0.2263788327694717 [Eh]
	 Opposite-Spin Energy      =      -0.7714953794685258 [Eh]
	 Correlation Energy        =      -0.9978742122379974 [Eh]
	 Total Energy              =    -554.7298484356653034 [Eh]

	 ================> DF-SCS-MP2 Energies <==================
	-----------------------------------------------------------
	 SCS Same-Spin Scale       =       0.3333333333333333 [-]
	 SCS Opposite-Spin Scale   =       1.2000000000000000 [-]
	 SCS Same-Spin Energy      =      -0.0754596109231572 [Eh]
	 SCS Opposite-Spin Energy  =      -0.9257944553622308 [Eh]
	 SCS Correlation Energy    =      -1.0012540662853882 [Eh]
	 SCS Total Energy          =    -554.7332282897126561 [Eh]
	-----------------------------------------------------------

  Dipole Moment: [D]
     X:     2.1070      Y:    -0.0089      Z:    -0.0017     Total:     2.1071

*** Psi4 exiting successfully. Buy a developer a beer!
