                               Psi4 1.3.2 release

  ==> Input File <==

--------------------------------------------------------------------------
#psi4
#
memory 32 gb

molecule  {
0 1
  S       -1.3055980     0.0000010    -0.0000040
  C        1.2766570     0.7093650     0.2807600
  C        1.2782740    -0.7189377    -0.2559682
  C       -0.0542300     1.3297750    -0.1396080
  C       -0.0542340    -1.3297710     0.1396230
  H        1.3396290     0.6711660     1.3740810
  H        2.1212810     1.3027060    -0.0855190
  H        1.3396020    -0.6711730    -1.3740910
  H        2.1212770    -1.3027160     0.0854980
  H       -0.3428840     2.1673020     0.4996790
  H       -0.0077520     1.6828060    -1.1735290
  H       -0.3428960    -2.1673120    -0.4996450
  H       -0.0077460    -1.6827810     1.1735500
units angstrom
no_reorient  #important for SAPT in psi4, default
symmetry c1  #important for SAPT in psi4, default
}

set PROPERTIES_ORIGIN ["COM"]
properties('MP2/aug-cc-pvtz', properties = ['dipole'])
--------------------------------------------------------------------------

    Molecular point group: c1
  Charge       = 0
  Multiplicity = 1
  Basis Set: AUG-CC-PVTZ
    Blend: AUG-CC-PVTZ
  Basis Set: (AUG-CC-PVTZ AUX)
    Blend: AUG-CC-PVTZ-JKFIT

    Orbital Energies [Eh]
    ---------------------

    Doubly Occupied:

       1A    -91.936062     2A    -11.252776     3A    -11.252073
       4A    -11.233631     5A    -11.232950     6A     -8.936717
       7A     -6.617895     8A     -6.617108     9A     -6.616104
      10A     -1.127075    11A     -0.984547    12A     -0.965020
      13A     -0.791148    14A     -0.780197    15A     -0.655790
      16A     -0.640163    17A     -0.595304    18A     -0.543110
      19A     -0.506159    20A     -0.492674    21A     -0.477861
      22A     -0.473920    23A     -0.422132    24A     -0.330200

  @DF-RHF Final Energy:  -553.73264273422126

   => Energetics <=

    Nuclear Repulsion Energy =            235.5998559196581823
    One-Electron Energy =               -1227.7037683351829855
    Two-Electron Energy =                 438.3712696813034881
    Total Energy =                       -553.7326427342212583
  Basis Set: (AUG-CC-PVTZ AUX)
    Blend: AUG-CC-PVTZ-RI
    Molecular point group: c1

    Geometry (in Angstrom), charge = 0, multiplicity = 1:

       Center              X                  Y                   Z               Mass
    ------------   -----------------  -----------------  -----------------  -----------------
         S           -1.236126718031     0.001304968558    -0.003384235249    31.972071174400
         C            1.346128281969     0.710668968558     0.277379764751    12.000000000000
         C            1.347745281969    -0.717633731442    -0.259348435249    12.000000000000
         C            0.015241281969     1.331078968558    -0.142988235249    12.000000000000
         C            0.015237281969    -1.328467031442     0.136242764751    12.000000000000
         H            1.409100281969     0.672469968558     1.370700764751     1.007825032230
         H            2.190752281969     1.304009968558    -0.088899235249     1.007825032230
         H            1.409073281969    -0.669869031442    -1.377471235249     1.007825032230
         H            2.190748281969    -1.301412031442     0.082117764751     1.007825032230
         H           -0.273412718031     2.168605968558     0.496298764751     1.007825032230
         H            0.061719281969     1.684109968558    -1.176909235249     1.007825032230
         H           -0.273424718031    -2.166008031442    -0.503025235249     1.007825032230
         H            0.061725281969    -1.681477031442     1.170169764751     1.007825032230

  Basis Set: AUG-CC-PVTZ
    Blend: AUG-CC-PVTZ
  Basis Set: (AUG-CC-PVTZ AUX)
    Blend: AUG-CC-PVTZ-JKFIT
	 Reference Energy          =    -553.7326427342212583 [Eh]
	 Singles Energy            =      -0.0000000000000000 [Eh]
	 Same-Spin Energy          =      -0.2261080703325589 [Eh]
	 Opposite-Spin Energy      =      -0.7712634989858023 [Eh]
	 Correlation Energy        =      -0.9973715693183611 [Eh]
	 Total Energy              =    -554.7300143035396331 [Eh]

	 ================> DF-SCS-MP2 Energies <==================
	-----------------------------------------------------------
	 SCS Same-Spin Scale       =       0.3333333333333333 [-]
	 SCS Opposite-Spin Scale   =       1.2000000000000000 [-]
	 SCS Same-Spin Energy      =      -0.0753693567775196 [Eh]
	 SCS Opposite-Spin Energy  =      -0.9255161987829627 [Eh]
	 SCS Correlation Energy    =      -1.0008855555604823 [Eh]
	 SCS Total Energy          =    -554.7335282897817024 [Eh]
	-----------------------------------------------------------

  Dipole Moment: [D]
     X:     2.1086      Y:     0.0027      Z:     0.0160     Total:     2.1087

*** Psi4 exiting successfully. Buy a developer a beer!
