                               Psi4 1.3.2 release

  ==> Input File <==

--------------------------------------------------------------------------
#psi4
#
memory 32 gb

molecule  {
0 1
  S       -1.4343897     0.1287280    -0.0598872
  C        1.2766570     0.7093650     0.2807600
  C        1.2766500    -0.7093720    -0.2807680
  C       -0.0542300     1.3297750    -0.1396080
  C       -0.0542340    -1.3297710     0.1396230
  H        1.3396290     0.6711660     1.3740810
  H        2.1212810     1.3027060    -0.0855190
  H        1.3396020    -0.6711730    -1.3740910
  H        2.1212770    -1.3027160     0.0854980
  H       -0.3428840     2.1673020     0.4996790
  H       -0.0077520     1.6828060    -1.1735290
  H       -0.3428960    -2.1673120    -0.4996450
  H       -0.0077460    -1.6827810     1.1735500
units angstrom
no_reorient  #important for SAPT in psi4, default
symmetry c1  #important for SAPT in psi4, default
}

set PROPERTIES_ORIGIN ["COM"]
properties('MP2/aug-cc-pvtz', properties = ['dipole'])
--------------------------------------------------------------------------

    Molecular point group: c1
  Charge       = 0
  Multiplicity = 1
  Basis Set: AUG-CC-PVTZ
    Blend: AUG-CC-PVTZ
  Basis Set: (AUG-CC-PVTZ AUX)
    Blend: AUG-CC-PVTZ-JKFIT

    Orbital Energies [Eh]
    ---------------------

    Doubly Occupied:

       1A    -91.942345     2A    -11.267336     3A    -11.250819
       4A    -11.235536     5A    -11.234605     6A     -8.940450
       7A     -6.621437     8A     -6.620542     9A     -6.619630
      10A     -1.114892    11A     -0.984010    12A     -0.950628
      13A     -0.794270    14A     -0.779146    15A     -0.652996
      16A     -0.636277    17A     -0.596505    18A     -0.542413
      19A     -0.501580    20A     -0.491591    21A     -0.481260
      22A     -0.455131    23A     -0.417156    24A     -0.332809

  @DF-RHF Final Energy:  -553.71969795879795

   => Energetics <=

    Nuclear Repulsion Energy =            230.6242280000951155
    One-Electron Energy =               -1217.7611246143710559
    Two-Electron Energy =                 433.4171986554778755
    Total Energy =                       -553.7196979587979513
  Basis Set: (AUG-CC-PVTZ AUX)
    Blend: AUG-CC-PVTZ-RI
    Molecular point group: c1

    Geometry (in Angstrom), charge = 0, multiplicity = 1:

       Center              X                  Y                   Z               Mass
    ------------   -----------------  -----------------  -----------------  -----------------
         S           -1.317923008930     0.081977524358    -0.038138841065    31.972071174400
         C            1.393123691070     0.662614524358     0.302508358935    12.000000000000
         C            1.393116691070    -0.756122475642    -0.259019641065    12.000000000000
         C            0.062236691070     1.283024524358    -0.117859641065    12.000000000000
         C            0.062232691070    -1.376521475642     0.161371358935    12.000000000000
         H            1.456095691070     0.624415524358     1.395829358935     1.007825032230
         H            2.237747691070     1.255955524358    -0.063770641065     1.007825032230
         H            1.456068691070    -0.717923475642    -1.352342641065     1.007825032230
         H            2.237743691070    -1.349466475642     0.107246358935     1.007825032230
         H           -0.226417308930     2.120551524358     0.521427358935     1.007825032230
         H            0.108714691070     1.636055524358    -1.151780641065     1.007825032230
         H           -0.226429308930    -2.214062475642    -0.477896641065     1.007825032230
         H            0.108720691070    -1.729531475642     1.195298358935     1.007825032230

  Basis Set: AUG-CC-PVTZ
    Blend: AUG-CC-PVTZ
  Basis Set: (AUG-CC-PVTZ AUX)
    Blend: AUG-CC-PVTZ-JKFIT
	 Reference Energy          =    -553.7196979587979513 [Eh]
	 Singles Energy            =      -0.0000000000000000 [Eh]
	 Same-Spin Energy          =      -0.2254454909586463 [Eh]
	 Opposite-Spin Energy      =      -0.7728009506300930 [Eh]
	 Correlation Energy        =      -0.9982464415887393 [Eh]
	 Total Energy              =    -554.7179444003867275 [Eh]

	 ================> DF-SCS-MP2 Energies <==================
	-----------------------------------------------------------
	 SCS Same-Spin Scale       =       0.3333333333333333 [-]
	 SCS Opposite-Spin Scale   =       1.2000000000000000 [-]
	 SCS Same-Spin Energy      =      -0.0751484969862154 [Eh]
	 SCS Opposite-Spin Energy  =      -0.9273611407561115 [Eh]
	 SCS Correlation Energy    =      -1.0025096377423270 [Eh]
	 SCS Total Energy          =    -554.7222075965403292 [Eh]
	-----------------------------------------------------------

  Dipole Moment: [D]
     X:     2.2391      Y:    -0.1260      Z:     0.0537     Total:     2.2432

*** Psi4 exiting successfully. Buy a developer a beer!
