                               Psi4 1.4a3.dev225

  ==> Input File <==

--------------------------------------------------------------------------
#psi4
#
memory 32 gb

molecule  {
0 1
  S       -1.3055980     0.0000010    -0.0000040
  C        1.2766570     0.7093650     0.2807600
  C        1.2766498    -0.7558630    -0.2991689
  C       -0.0542300     1.3297750    -0.1396080
  C       -0.0542340    -1.3297710     0.1396230
  H        1.3396290     0.6711660     1.3740810
  H        2.1212810     1.3027060    -0.0855190
  H        1.3396020    -0.6711730    -1.3740910
  H        2.1212770    -1.3027160     0.0854980
  H       -0.3428840     2.1673020     0.4996790
  H       -0.0077520     1.6828060    -1.1735290
  H       -0.3428960    -2.1673120    -0.4996450
  H       -0.0077460    -1.6827810     1.1735500
units angstrom
no_reorient  #important for SAPT in psi4, default
symmetry c1  #important for SAPT in psi4, default
}

set PROPERTIES_ORIGIN ["COM"]
properties('MP2/aug-cc-pvtz', properties = ['dipole'])
--------------------------------------------------------------------------

    Molecular point group: c1
  Charge       = 0
  Multiplicity = 1
  Basis Set: AUG-CC-PVTZ
    Blend: AUG-CC-PVTZ
  Basis Set: (AUG-CC-PVTZ AUX)
    Blend: AUG-CC-PVTZ-JKFIT

    Orbital Energies [Eh]
    ---------------------

    Doubly Occupied:

       1A    -91.936121     2A    -11.252388     3A    -11.251764
       4A    -11.234680     5A    -11.231836     6A     -8.936757
       7A     -6.617938     8A     -6.617134     9A     -6.616141
      10A     -1.122659    11A     -0.985828    12A     -0.960566
      13A     -0.795282    14A     -0.778623    15A     -0.655741
      16A     -0.635243    17A     -0.597406    18A     -0.546307
      19A     -0.507285    20A     -0.491311    21A     -0.478599
      22A     -0.469991    23A     -0.421360    24A     -0.330425

  @DF-RHF Final Energy:  -553.73154967926712

   => Energetics <=

    Nuclear Repulsion Energy =            235.0920228759443376
    One-Electron Energy =               -1226.7043698297566152
    Two-Electron Energy =                 437.8807972745450456
    Total Energy =                       -553.7315496792671183
  Basis Set: (AUG-CC-PVTZ AUX)
    Blend: AUG-CC-PVTZ-RI
    Molecular point group: c1

    Geometry (in Angstrom), charge = 0, multiplicity = 1:

       Center              X                  Y                   Z               Mass
    ------------   -----------------  -----------------  -----------------  -----------------
         S           -1.235905323441     0.006338253658     0.002504449193    31.972071174400
         C            1.346349676559     0.715702253658     0.283268449193    12.000000000000
         C            1.346342476559    -0.749525746342    -0.296660450807    12.000000000000
         C            0.015462676559     1.336112253658    -0.137099550807    12.000000000000
         C            0.015458676559    -1.323433746342     0.142131449193    12.000000000000
         H            1.409321676559     0.677503253658     1.376589449193     1.007825032230
         H            2.190973676559     1.309043253658    -0.083010550807     1.007825032230
         H            1.409294676559    -0.664835746342    -1.371582550807     1.007825032230
         H            2.190969676559    -1.296378746342     0.088006449193     1.007825032230
         H           -0.273191323441     2.173639253658     0.502187449193     1.007825032230
         H            0.061940676559     1.689143253658    -1.171020550807     1.007825032230
         H           -0.273203323441    -2.160974746342    -0.497136550807     1.007825032230
         H            0.061946676559    -1.676443746342     1.176058449193     1.007825032230

  Basis Set: AUG-CC-PVTZ
    Blend: AUG-CC-PVTZ
  Basis Set: (AUG-CC-PVTZ AUX)
    Blend: AUG-CC-PVTZ-JKFIT
	 Reference Energy          =    -553.7315496792671183 [Eh]
	 Singles Energy            =      -0.0000000000000000 [Eh]
	 Same-Spin Energy          =      -0.2259703072991980 [Eh]
	 Opposite-Spin Energy      =      -0.7712023609554812 [Eh]
	 Correlation Energy        =      -0.9971726682546792 [Eh]
	 Total Energy              =    -554.7287223475218525 [Eh]

	 ================> DF-SCS-MP2 Energies <==================
	-----------------------------------------------------------
	 SCS Same-Spin Scale       =       0.3333333333333333 [-]
	 SCS Opposite-Spin Scale   =       1.2000000000000000 [-]
	 SCS Same-Spin Energy      =      -0.0753234357663993 [Eh]
	 SCS Opposite-Spin Energy  =      -0.9254428331465774 [Eh]
	 SCS Correlation Energy    =      -1.0007662689129766 [Eh]
	 SCS Total Energy          =    -554.7323159481801440 [Eh]
	-----------------------------------------------------------

  Dipole Moment: [D]
     X:     2.1079      Y:     0.0029      Z:    -0.0020     Total:     2.1079

*** Psi4 exiting successfully. Buy a developer a beer!
