                               Psi4 1.4a3.dev225

  ==> Input File <==

--------------------------------------------------------------------------
#psi4
#
memory 32 gb

molecule  {
0 1
  S       -1.3055980     0.0000010    -0.0000040
  C        1.2766570     0.7093650     0.2807600
  C        1.2766500    -0.7093720    -0.2807680
  C       -0.0977978     1.3500847    -0.1533691
  C       -0.0542340    -1.3297710     0.1396230
  H        1.3396290     0.6711660     1.3740810
  H        2.1212810     1.3027060    -0.0855190
  H        1.3396020    -0.6711730    -1.3740910
  H        2.1212770    -1.3027160     0.0854980
  H       -0.3428840     2.1673020     0.4996790
  H       -0.0077520     1.6828060    -1.1735290
  H       -0.3428960    -2.1673120    -0.4996450
  H       -0.0077460    -1.6827810     1.1735500
units angstrom
no_reorient  #important for SAPT in psi4, default
symmetry c1  #important for SAPT in psi4, default
}

set PROPERTIES_ORIGIN ["COM"]
properties('MP2/aug-cc-pvtz', properties = ['dipole'])
--------------------------------------------------------------------------

    Molecular point group: c1
  Charge       = 0
  Multiplicity = 1
  Basis Set: AUG-CC-PVTZ
    Blend: AUG-CC-PVTZ
  Basis Set: (AUG-CC-PVTZ AUX)
    Blend: AUG-CC-PVTZ-JKFIT

    Orbital Energies [Eh]
    ---------------------

    Doubly Occupied:

       1A    -91.935683     2A    -11.252674     3A    -11.251159
       4A    -11.235559     5A    -11.232986     6A     -8.936465
       7A     -6.617663     8A     -6.616909     9A     -6.615900
      10A     -1.122783    11A     -0.981402    12A     -0.965188
      13A     -0.793500    14A     -0.781117    15A     -0.655030
      16A     -0.634230    17A     -0.598061    18A     -0.548955
      19A     -0.499676    20A     -0.488491    21A     -0.482999
      22A     -0.477977    23A     -0.418411    24A     -0.330602

  @DF-RHF Final Energy:  -553.73187082508798

   => Energetics <=

    Nuclear Repulsion Energy =            235.1966214129474793
    One-Electron Energy =               -1226.9101425824010221
    Two-Electron Energy =                 437.9816503443656188
    Total Energy =                       -553.7318708250879808
  Basis Set: (AUG-CC-PVTZ AUX)
    Blend: AUG-CC-PVTZ-RI
    Molecular point group: c1

    Geometry (in Angstrom), charge = 0, multiplicity = 1:

       Center              X                  Y                   Z               Mass
    ------------   -----------------  -----------------  -----------------  -----------------
         S           -1.229966626886    -0.002767345158     0.001871998374    31.972071174400
         C            1.352288373114     0.706596654842     0.282635998374    12.000000000000
         C            1.352281373114    -0.712140345158    -0.278892001626    12.000000000000
         C           -0.022166426886     1.347316354842    -0.151493101626    12.000000000000
         C            0.021397373114    -1.332539345158     0.141498998374    12.000000000000
         H            1.415260373114     0.668397654842     1.375956998374     1.007825032230
         H            2.196912373114     1.299937654842    -0.083643001626     1.007825032230
         H            1.415233373114    -0.673941345158    -1.372215001626     1.007825032230
         H            2.196908373114    -1.305484345158     0.087373998374     1.007825032230
         H           -0.267252626886     2.164533654842     0.501554998374     1.007825032230
         H            0.067879373114     1.680037654842    -1.171653001626     1.007825032230
         H           -0.267264626886    -2.170080345158    -0.497769001626     1.007825032230
         H            0.067885373114    -1.685549345158     1.175425998374     1.007825032230

  Basis Set: AUG-CC-PVTZ
    Blend: AUG-CC-PVTZ
  Basis Set: (AUG-CC-PVTZ AUX)
    Blend: AUG-CC-PVTZ-JKFIT
	 Reference Energy          =    -553.7318708250879808 [Eh]
	 Singles Energy            =      -0.0000000000000000 [Eh]
	 Same-Spin Energy          =      -0.2258542777120051 [Eh]
	 Opposite-Spin Energy      =      -0.7710102353487915 [Eh]
	 Correlation Energy        =      -0.9968645130607966 [Eh]
	 Total Energy              =    -554.7287353381487947 [Eh]

	 ================> DF-SCS-MP2 Energies <==================
	-----------------------------------------------------------
	 SCS Same-Spin Scale       =       0.3333333333333333 [-]
	 SCS Opposite-Spin Scale   =       1.2000000000000000 [-]
	 SCS Same-Spin Energy      =      -0.0752847592373350 [Eh]
	 SCS Opposite-Spin Energy  =      -0.9252122824185498 [Eh]
	 SCS Correlation Energy    =      -1.0004970416558847 [Eh]
	 SCS Total Energy          =    -554.7323678667438571 [Eh]
	-----------------------------------------------------------

  Dipole Moment: [D]
     X:     2.1252      Y:    -0.0051      Z:     0.0008     Total:     2.1252

*** Psi4 exiting successfully. Buy a developer a beer!
