                               Psi4 1.3.2 release

  ==> Input File <==

--------------------------------------------------------------------------
#psi4
#
memory 32 gb

molecule  {
0 1
  S       -1.3055980     0.0000010    -0.0000040
  C        1.2766570     0.7093650     0.2807600
  C        1.2669236    -0.6430136    -0.4257143
  C       -0.0542300     1.3297750    -0.1396080
  C       -0.0542340    -1.3297710     0.1396230
  H        1.3396290     0.6711660     1.3740810
  H        2.1212810     1.3027060    -0.0855190
  H        1.3396020    -0.6711730    -1.3740910
  H        2.1212770    -1.3027160     0.0854980
  H       -0.3428840     2.1673020     0.4996790
  H       -0.0077520     1.6828060    -1.1735290
  H       -0.3428960    -2.1673120    -0.4996450
  H       -0.0077460    -1.6827810     1.1735500
units angstrom
no_reorient  #important for SAPT in psi4, default
symmetry c1  #important for SAPT in psi4, default
}

set PROPERTIES_ORIGIN ["COM"]
properties('MP2/aug-cc-pvtz', properties = ['dipole'])
--------------------------------------------------------------------------

    Molecular point group: c1
  Charge       = 0
  Multiplicity = 1
  Basis Set: AUG-CC-PVTZ
    Blend: AUG-CC-PVTZ
  Basis Set: (AUG-CC-PVTZ AUX)
    Blend: AUG-CC-PVTZ-JKFIT

    Orbital Energies [Eh]
    ---------------------

    Doubly Occupied:

       1A    -91.933561     2A    -11.256485     3A    -11.251001
       4A    -11.235518     5A    -11.234872     6A     -8.934338
       7A     -6.615487     8A     -6.614766     9A     -6.613757
      10A     -1.125042    11A     -0.977429    12A     -0.966472
      13A     -0.811398    14A     -0.775955    15A     -0.653690
      16A     -0.630529    17A     -0.602350    18A     -0.561893
      19A     -0.510850    20A     -0.492250    21A     -0.471465
      22A     -0.463650    23A     -0.412233    24A     -0.329002

  @DF-RHF Final Energy:  -553.70141198181693

   => Energetics <=

    Nuclear Repulsion Energy =            235.3937819362731432
    One-Electron Energy =               -1227.2423994626460626
    Two-Electron Energy =                 438.1472055445559590
    Total Energy =                       -553.7014119818169320
  Basis Set: (AUG-CC-PVTZ AUX)
    Blend: AUG-CC-PVTZ-RI
    Molecular point group: c1

    Geometry (in Angstrom), charge = 0, multiplicity = 1:

       Center              X                  Y                   Z               Mass
    ------------   -----------------  -----------------  -----------------  -----------------
         S           -1.234579545789    -0.009044240284     0.019753843952    31.972071174400
         C            1.347675454211     0.700319759716     0.300517843952    12.000000000000
         C            1.337942054211    -0.652058840284    -0.405956456048    12.000000000000
         C            0.016788454211     1.320729759716    -0.119850156048    12.000000000000
         C            0.016784454211    -1.338816240284     0.159380843952    12.000000000000
         H            1.410647454211     0.662120759716     1.393838843952     1.007825032230
         H            2.192299454211     1.293660759716    -0.065761156048     1.007825032230
         H            1.410620454211    -0.680218240284    -1.354333156048     1.007825032230
         H            2.192295454211    -1.311761240284     0.105255843952     1.007825032230
         H           -0.271865545789     2.158256759716     0.519436843952     1.007825032230
         H            0.063266454211     1.673760759716    -1.153771156048     1.007825032230
         H           -0.271877545789    -2.176357240284    -0.479887156048     1.007825032230
         H            0.063272454211    -1.691826240284     1.193307843952     1.007825032230

  Basis Set: AUG-CC-PVTZ
    Blend: AUG-CC-PVTZ
  Basis Set: (AUG-CC-PVTZ AUX)
    Blend: AUG-CC-PVTZ-JKFIT
	 Reference Energy          =    -553.7014119818169320 [Eh]
	 Singles Energy            =      -0.0000000000000000 [Eh]
	 Same-Spin Energy          =      -0.2264884817776016 [Eh]
	 Opposite-Spin Energy      =      -0.7724178973554017 [Eh]
	 Correlation Energy        =      -0.9989063791330033 [Eh]
	 Total Energy              =    -554.7003183609499501 [Eh]

	 ================> DF-SCS-MP2 Energies <==================
	-----------------------------------------------------------
	 SCS Same-Spin Scale       =       0.3333333333333333 [-]
	 SCS Opposite-Spin Scale   =       1.2000000000000000 [-]
	 SCS Same-Spin Energy      =      -0.0754961605925339 [Eh]
	 SCS Opposite-Spin Energy  =      -0.9269014768264819 [Eh]
	 SCS Correlation Energy    =      -1.0023976374190158 [Eh]
	 SCS Total Energy          =    -554.7038096192359262 [Eh]
	-----------------------------------------------------------

  Dipole Moment: [D]
     X:     2.1213      Y:     0.0125      Z:    -0.0467     Total:     2.1219

*** Psi4 exiting successfully. Buy a developer a beer!
