                               Psi4 1.3.2 release

  ==> Input File <==

--------------------------------------------------------------------------
#psi4
#
memory 32 gb

molecule  {
0 1
  S       -1.2827594    -0.0200729     0.0098453
  C        1.2766570     0.7093650     0.2807600
  C        1.2766500    -0.7093720    -0.2807680
  C       -0.0542300     1.3297750    -0.1396080
  C       -0.0542340    -1.3297710     0.1396230
  H        1.3396290     0.6711660     1.3740810
  H        2.1212810     1.3027060    -0.0855190
  H        1.3396020    -0.6711730    -1.3740910
  H        2.1212770    -1.3027160     0.0854980
  H       -0.3428840     2.1673020     0.4996790
  H       -0.0077520     1.6828060    -1.1735290
  H       -0.3428960    -2.1673120    -0.4996450
  H       -0.0077460    -1.6827810     1.1735500
units angstrom
no_reorient  #important for SAPT in psi4, default
symmetry c1  #important for SAPT in psi4, default
}

set PROPERTIES_ORIGIN ["COM"]
properties('MP2/aug-cc-pvtz', properties = ['dipole'])
--------------------------------------------------------------------------

    Molecular point group: c1
  Charge       = 0
  Multiplicity = 1
  Basis Set: AUG-CC-PVTZ
    Blend: AUG-CC-PVTZ
  Basis Set: (AUG-CC-PVTZ AUX)
    Blend: AUG-CC-PVTZ-JKFIT

    Orbital Energies [Eh]
    ---------------------

    Doubly Occupied:

       1A    -91.933980     2A    -11.252649     3A    -11.249966
       4A    -11.233212     5A    -11.232587     6A     -8.935277
       7A     -6.616493     8A     -6.615720     9A     -6.614688
      10A     -1.129462    11A     -0.984885    12A     -0.966422
      13A     -0.793369    14A     -0.778624    15A     -0.656252
      16A     -0.638435    17A     -0.596576    18A     -0.546239
      19A     -0.504953    20A     -0.490240    21A     -0.480569
      22A     -0.480030    23A     -0.419867    24A     -0.328982

  @DF-RHF Final Energy:  -553.73315554861085

   => Energetics <=

    Nuclear Repulsion Energy =            236.4827452879574707
    One-Electron Energy =               -1229.4728459473976727
    Two-Electron Energy =                 439.2569451108294061
    Total Energy =                       -553.7331555486108527
  Basis Set: (AUG-CC-PVTZ AUX)
    Blend: AUG-CC-PVTZ-RI
    Molecular point group: c1

    Geometry (in Angstrom), charge = 0, multiplicity = 1:

       Center              X                  Y                   Z               Mass
    ------------   -----------------  -----------------  -----------------  -----------------
         S           -1.221361179851    -0.012782474618     0.006268495373    31.972071174400
         C            1.338055220149     0.716655425382     0.277183195373    12.000000000000
         C            1.338048220149    -0.702081574618    -0.284344804627    12.000000000000
         C            0.007168220149     1.337065425382    -0.143184804627    12.000000000000
         C            0.007164220149    -1.322480574618     0.136046195373    12.000000000000
         H            1.401027220149     0.678456425382     1.370504195373     1.007825032230
         H            2.182679220149     1.309996425382    -0.089095804627     1.007825032230
         H            1.401000220149    -0.663882574618    -1.377667804627     1.007825032230
         H            2.182675220149    -1.295425574618     0.081921195373     1.007825032230
         H           -0.281485779851     2.174592425382     0.496102195373     1.007825032230
         H            0.053646220149     1.690096425382    -1.177105804627     1.007825032230
         H           -0.281497779851    -2.160021574618    -0.503221804627     1.007825032230
         H            0.053652220149    -1.675490574618     1.169973195373     1.007825032230

  Basis Set: AUG-CC-PVTZ
    Blend: AUG-CC-PVTZ
  Basis Set: (AUG-CC-PVTZ AUX)
    Blend: AUG-CC-PVTZ-JKFIT
	 Reference Energy          =    -553.7331555486108527 [Eh]
	 Singles Energy            =      -0.0000000000000000 [Eh]
	 Same-Spin Energy          =      -0.2262926491690506 [Eh]
	 Opposite-Spin Energy      =      -0.7710751095489130 [Eh]
	 Correlation Energy        =      -0.9973677587179636 [Eh]
	 Total Energy              =    -554.7305233073287809 [Eh]

	 ================> DF-SCS-MP2 Energies <==================
	-----------------------------------------------------------
	 SCS Same-Spin Scale       =       0.3333333333333333 [-]
	 SCS Opposite-Spin Scale   =       1.2000000000000000 [-]
	 SCS Same-Spin Energy      =      -0.0754308830563502 [Eh]
	 SCS Opposite-Spin Energy  =      -0.9252901314586955 [Eh]
	 SCS Correlation Energy    =      -1.0007210145150458 [Eh]
	 SCS Total Energy          =    -554.7338765631259321 [Eh]
	-----------------------------------------------------------

  Dipole Moment: [D]
     X:     2.1039      Y:     0.0168      Z:    -0.0098     Total:     2.1040

*** Psi4 exiting successfully. Buy a developer a beer!
