                               Psi4 1.3.2 release

  ==> Input File <==

--------------------------------------------------------------------------
#psi4
#
memory 32 gb

molecule  {
0 1
  S       -1.3055980     0.0000010    -0.0000040
  C        1.2766570     0.7093650     0.2807600
  C        1.2766500    -0.7093720    -0.2807680
  C        0.0359919     1.2397220    -0.1301523
  C       -0.0542340    -1.3297710     0.1396230
  H        1.3396290     0.6711660     1.3740810
  H        2.1212810     1.3027060    -0.0855190
  H        1.3396020    -0.6711730    -1.3740910
  H        2.1212770    -1.3027160     0.0854980
  H       -0.3428840     2.1673020     0.4996790
  H       -0.0077520     1.6828060    -1.1735290
  H       -0.3428960    -2.1673120    -0.4996450
  H       -0.0077460    -1.6827810     1.1735500
units angstrom
no_reorient  #important for SAPT in psi4, default
symmetry c1  #important for SAPT in psi4, default
}

set PROPERTIES_ORIGIN ["COM"]
properties('MP2/aug-cc-pvtz', properties = ['dipole'])
--------------------------------------------------------------------------

    Molecular point group: c1
  Charge       = 0
  Multiplicity = 1
  Basis Set: AUG-CC-PVTZ
    Blend: AUG-CC-PVTZ
  Basis Set: (AUG-CC-PVTZ AUX)
    Blend: AUG-CC-PVTZ-JKFIT

    Orbital Energies [Eh]
    ---------------------

    Doubly Occupied:

       1A    -91.936809     2A    -11.257210     3A    -11.252262
       4A    -11.233340     5A    -11.226490     6A     -8.937550
       7A     -6.618713     8A     -6.617838     9A     -6.616824
      10A     -1.142446    11A     -0.992544    12A     -0.963594
      13A     -0.794723    14A     -0.769772    15A     -0.657466
      16A     -0.650809    17A     -0.593302    18A     -0.542434
      19A     -0.511496    20A     -0.494947    21A     -0.468503
      22A     -0.463233    23A     -0.429364    24A     -0.327794

  @DF-RHF Final Energy:  -553.71401115282606

   => Energetics <=

    Nuclear Repulsion Energy =            237.1989207399507507
    One-Electron Energy =               -1230.8269385992441585
    Two-Electron Energy =                 439.9140067064674327
    Total Energy =                       -553.7140111528260604
  Basis Set: (AUG-CC-PVTZ AUX)
    Blend: AUG-CC-PVTZ-RI
    Molecular point group: c1

    Geometry (in Angstrom), charge = 0, multiplicity = 1:

       Center              X                  Y                   Z               Mass
    ------------   -----------------  -----------------  -----------------  -----------------
         S           -1.248203491679     0.012276186878    -0.001292682035    31.972071174400
         C            1.334051508321     0.721640186878     0.279471317965    12.000000000000
         C            1.334044508321    -0.697096813122    -0.282056682035    12.000000000000
         C            0.093386408321     1.251997186878    -0.131440982035    12.000000000000
         C            0.003160508321    -1.317495813122     0.138334317965    12.000000000000
         H            1.397023508321     0.683441186878     1.372792317965     1.007825032230
         H            2.178675508321     1.314981186878    -0.086807682035     1.007825032230
         H            1.396996508321    -0.658897813122    -1.375379682035     1.007825032230
         H            2.178671508321    -1.290440813122     0.084209317965     1.007825032230
         H           -0.285489491679     2.179577186878     0.498390317965     1.007825032230
         H            0.049642508321     1.695081186878    -1.174817682035     1.007825032230
         H           -0.285501491679    -2.155036813122    -0.500933682035     1.007825032230
         H            0.049648508321    -1.670505813122     1.172261317965     1.007825032230

  Basis Set: AUG-CC-PVTZ
    Blend: AUG-CC-PVTZ
  Basis Set: (AUG-CC-PVTZ AUX)
    Blend: AUG-CC-PVTZ-JKFIT
	 Reference Energy          =    -553.7140111528260604 [Eh]
	 Singles Energy            =      -0.0000000000000000 [Eh]
	 Same-Spin Energy          =      -0.2277520335396095 [Eh]
	 Opposite-Spin Energy      =      -0.7733535155979014 [Eh]
	 Correlation Energy        =      -1.0011055491375109 [Eh]
	 Total Energy              =    -554.7151167019635523 [Eh]

	 ================> DF-SCS-MP2 Energies <==================
	-----------------------------------------------------------
	 SCS Same-Spin Scale       =       0.3333333333333333 [-]
	 SCS Opposite-Spin Scale   =       1.2000000000000000 [-]
	 SCS Same-Spin Energy      =      -0.0759173445132032 [Eh]
	 SCS Opposite-Spin Energy  =      -0.9280242187174816 [Eh]
	 SCS Correlation Energy    =      -1.0039415632306847 [Eh]
	 SCS Total Energy          =    -554.7179527160567432 [Eh]
	-----------------------------------------------------------

  Dipole Moment: [D]
     X:     2.0937      Y:    -0.0588      Z:    -0.0080     Total:     2.0946

*** Psi4 exiting successfully. Buy a developer a beer!
