                               Psi4 1.3.2 release

  ==> Input File <==

--------------------------------------------------------------------------
#psi4
#
memory 32 gb

molecule  {
0 1
  S       -1.1991675    -0.0994219    -0.1246298
  C        1.2766570     0.7093650     0.2807600
  C        1.2766500    -0.7093720    -0.2807680
  C       -0.0542300     1.3297750    -0.1396080
  C       -0.0542340    -1.3297710     0.1396230
  H        1.3396290     0.6711660     1.3740810
  H        2.1212810     1.3027060    -0.0855190
  H        1.3396020    -0.6711730    -1.3740910
  H        2.1212770    -1.3027160     0.0854980
  H       -0.3428840     2.1673020     0.4996790
  H       -0.0077520     1.6828060    -1.1735290
  H       -0.3428960    -2.1673120    -0.4996450
  H       -0.0077460    -1.6827810     1.1735500
units angstrom
no_reorient  #important for SAPT in psi4, default
symmetry c1  #important for SAPT in psi4, default
}

set PROPERTIES_ORIGIN ["COM"]
properties('MP2/aug-cc-pvtz', properties = ['dipole'])
--------------------------------------------------------------------------

    Molecular point group: c1
  Charge       = 0
  Multiplicity = 1
  Basis Set: AUG-CC-PVTZ
    Blend: AUG-CC-PVTZ
  Basis Set: (AUG-CC-PVTZ AUX)
    Blend: AUG-CC-PVTZ-JKFIT

    Orbital Energies [Eh]
    ---------------------

    Doubly Occupied:

       1A    -91.928281     2A    -11.252400     3A    -11.242935
       4A    -11.232919     5A    -11.231978     6A     -8.932014
       7A     -6.613427     8A     -6.612521     9A     -6.611408
      10A     -1.141623    11A     -0.995308    12A     -0.966997
      13A     -0.796029    14A     -0.775824    15A     -0.659639
      16A     -0.639929    17A     -0.598752    18A     -0.549272
      19A     -0.514528    20A     -0.492537    21A     -0.488040
      22A     -0.478420    23A     -0.413687    24A     -0.325113

  @DF-RHF Final Energy:  -553.72362150534400

   => Energetics <=

    Nuclear Repulsion Energy =            239.6857240730115279
    One-Electron Energy =               -1235.8315261487002772
    Two-Electron Energy =                 442.4221805703447785
    Total Energy =                       -553.7236215053439992
  Basis Set: (AUG-CC-PVTZ AUX)
    Blend: AUG-CC-PVTZ-RI
    Molecular point group: c1

    Geometry (in Angstrom), charge = 0, multiplicity = 1:

       Center              X                  Y                   Z               Mass
    ------------   -----------------  -----------------  -----------------  -----------------
         S           -1.168127843504    -0.063313829997    -0.079368488934    31.972071174400
         C            1.307696656496     0.745473070003     0.326021311066    12.000000000000
         C            1.307689656496    -0.673263929997    -0.235506688934    12.000000000000
         C           -0.023190343504     1.365883070003    -0.094346688934    12.000000000000
         C           -0.023194343504    -1.293662929997     0.184884311066    12.000000000000
         H            1.370668656496     0.707274070003     1.419342311066     1.007825032230
         H            2.152320656496     1.338814070003    -0.040257688934     1.007825032230
         H            1.370641656496    -0.635064929997    -1.328829688934     1.007825032230
         H            2.152316656496    -1.266607929997     0.130759311066     1.007825032230
         H           -0.311844343504     2.203410070003     0.544940311066     1.007825032230
         H            0.023287656496     1.718914070003    -1.128267688934     1.007825032230
         H           -0.311856343504    -2.131203929997    -0.454383688934     1.007825032230
         H            0.023293656496    -1.646672929997     1.218811311066     1.007825032230

  Basis Set: AUG-CC-PVTZ
    Blend: AUG-CC-PVTZ
  Basis Set: (AUG-CC-PVTZ AUX)
    Blend: AUG-CC-PVTZ-JKFIT
	 Reference Energy          =    -553.7236215053439992 [Eh]
	 Singles Energy            =      -0.0000000000000000 [Eh]
	 Same-Spin Energy          =      -0.2273782506081096 [Eh]
	 Opposite-Spin Energy      =      -0.7713414098091085 [Eh]
	 Correlation Energy        =      -0.9987196604172182 [Eh]
	 Total Energy              =    -554.7223411657612360 [Eh]

	 ================> DF-SCS-MP2 Energies <==================
	-----------------------------------------------------------
	 SCS Same-Spin Scale       =       0.3333333333333333 [-]
	 SCS Opposite-Spin Scale   =       1.2000000000000000 [-]
	 SCS Same-Spin Energy      =      -0.0757927502027032 [Eh]
	 SCS Opposite-Spin Energy  =      -0.9256096917709301 [Eh]
	 SCS Correlation Energy    =      -1.0014024419736334 [Eh]
	 SCS Total Energy          =    -554.7250239473175952 [Eh]
	-----------------------------------------------------------

  Dipole Moment: [D]
     X:     2.0584      Y:     0.0778      Z:     0.1248     Total:     2.0636

*** Psi4 exiting successfully. Buy a developer a beer!
