                               Psi4 1.3.2 release

  ==> Input File <==

--------------------------------------------------------------------------
#psi4
#
memory 32 gb

molecule  {
0 1
  S       -1.3055980     0.0000010    -0.0000040
  C        1.2766570     0.7093650     0.2807600
  C        1.2766500    -0.7093720    -0.2807680
  C        0.0329055     1.2891557    -0.1120858
  C       -0.0542340    -1.3297710     0.1396230
  H        1.3396290     0.6711660     1.3740810
  H        2.1212810     1.3027060    -0.0855190
  H        1.3396020    -0.6711730    -1.3740910
  H        2.1212770    -1.3027160     0.0854980
  H       -0.3428840     2.1673020     0.4996790
  H       -0.0077520     1.6828060    -1.1735290
  H       -0.3428960    -2.1673120    -0.4996450
  H       -0.0077460    -1.6827810     1.1735500
units angstrom
no_reorient  #important for SAPT in psi4, default
symmetry c1  #important for SAPT in psi4, default
}

set PROPERTIES_ORIGIN ["COM"]
properties('MP2/aug-cc-pvtz', properties = ['dipole'])
--------------------------------------------------------------------------

    Molecular point group: c1
  Charge       = 0
  Multiplicity = 1
  Basis Set: AUG-CC-PVTZ
    Blend: AUG-CC-PVTZ
  Basis Set: (AUG-CC-PVTZ AUX)
    Blend: AUG-CC-PVTZ-JKFIT

    Orbital Energies [Eh]
    ---------------------

    Doubly Occupied:

       1A    -91.935571     2A    -11.256322     3A    -11.252074
       4A    -11.233720     5A    -11.227796     6A     -8.935977
       7A     -6.617103     8A     -6.616272     9A     -6.615278
      10A     -1.137076    11A     -0.992407    12A     -0.960761
      13A     -0.793323    14A     -0.773910    15A     -0.658026
      16A     -0.647320    17A     -0.595096    18A     -0.541179
      19A     -0.514687    20A     -0.495642    21A     -0.472556
      22A     -0.464581    23A     -0.422704    24A     -0.328261

  @DF-RHF Final Energy:  -553.72242925263811

   => Energetics <=

    Nuclear Repulsion Energy =            236.3571876498416771
    One-Electron Energy =               -1229.1839429317481063
    Two-Electron Energy =                 439.1043260292682930
    Total Energy =                       -553.7224292526382214
  Basis Set: (AUG-CC-PVTZ AUX)
    Blend: AUG-CC-PVTZ-RI
    Molecular point group: c1

    Geometry (in Angstrom), charge = 0, multiplicity = 1:

       Center              X                  Y                   Z               Mass
    ------------   -----------------  -----------------  -----------------  -----------------
         S           -1.247782784707     0.005537882636    -0.003755325406    31.972071174400
         C            1.334472215293     0.714901882636     0.277008674594    12.000000000000
         C            1.334465215293    -0.703835117364    -0.284519325406    12.000000000000
         C            0.090720715293     1.294692582636    -0.115837125406    12.000000000000
         C            0.003581215293    -1.324234117364     0.135871674594    12.000000000000
         H            1.397444215293     0.676702882636     1.370329674594     1.007825032230
         H            2.179096215293     1.308242882636    -0.089270325406     1.007825032230
         H            1.397417215293    -0.665636117364    -1.377842325406     1.007825032230
         H            2.179092215293    -1.297179117364     0.081746674594     1.007825032230
         H           -0.285068784707     2.172838882636     0.495927674594     1.007825032230
         H            0.050063215293     1.688342882636    -1.177280325406     1.007825032230
         H           -0.285080784707    -2.161775117364    -0.503396325406     1.007825032230
         H            0.050069215293    -1.677244117364     1.169798674594     1.007825032230

  Basis Set: AUG-CC-PVTZ
    Blend: AUG-CC-PVTZ
  Basis Set: (AUG-CC-PVTZ AUX)
    Blend: AUG-CC-PVTZ-JKFIT
	 Reference Energy          =    -553.7224292526381078 [Eh]
	 Singles Energy            =      -0.0000000000000000 [Eh]
	 Same-Spin Energy          =      -0.2271540050580202 [Eh]
	 Opposite-Spin Energy      =      -0.7725508140777608 [Eh]
	 Correlation Energy        =      -0.9997048191357810 [Eh]
	 Total Energy              =    -554.7221340717738940 [Eh]

	 ================> DF-SCS-MP2 Energies <==================
	-----------------------------------------------------------
	 SCS Same-Spin Scale       =       0.3333333333333333 [-]
	 SCS Opposite-Spin Scale   =       1.2000000000000000 [-]
	 SCS Same-Spin Energy      =      -0.0757180016860067 [Eh]
	 SCS Opposite-Spin Energy  =      -0.9270609768933129 [Eh]
	 SCS Correlation Energy    =      -1.0027789785793195 [Eh]
	 SCS Total Energy          =    -554.7252082312173798 [Eh]
	-----------------------------------------------------------

  Dipole Moment: [D]
     X:     2.1279      Y:    -0.0031      Z:     0.0030     Total:     2.1279

*** Psi4 exiting successfully. Buy a developer a beer!
