                               Psi4 1.4a3.dev225

  ==> Input File <==

--------------------------------------------------------------------------
#psi4
#
memory 32 gb

molecule  {
0 1
  S       -1.3055980     0.0000010    -0.0000040
  C        1.2766570     0.7093650     0.2807600
  C        1.2766500    -0.7093720    -0.2807680
  C       -0.0542300     1.3297750    -0.1396080
  C       -0.0542340    -1.3297710     0.1396230
  H        1.3425023     0.6694230     1.4239679
  H        2.1212810     1.3027060    -0.0855190
  H        1.3396020    -0.6711730    -1.3740910
  H        2.1212770    -1.3027160     0.0854980
  H       -0.3428840     2.1673020     0.4996790
  H       -0.0077520     1.6828060    -1.1735290
  H       -0.3428960    -2.1673120    -0.4996450
  H       -0.0077460    -1.6827810     1.1735500
units angstrom
no_reorient  #important for SAPT in psi4, default
symmetry c1  #important for SAPT in psi4, default
}

set PROPERTIES_ORIGIN ["COM"]
properties('MP2/aug-cc-pvtz', properties = ['dipole'])
--------------------------------------------------------------------------

    Molecular point group: c1
  Charge       = 0
  Multiplicity = 1
  Basis Set: AUG-CC-PVTZ
    Blend: AUG-CC-PVTZ
  Basis Set: (AUG-CC-PVTZ AUX)
    Blend: AUG-CC-PVTZ-JKFIT

    Orbital Energies [Eh]
    ---------------------

    Doubly Occupied:

       1A    -91.935760     2A    -11.252956     3A    -11.252554
       4A    -11.239191     5A    -11.233628     6A     -8.936435
       7A     -6.617610     8A     -6.616832     9A     -6.615826
      10A     -1.126040    11A     -0.983063    12A     -0.963928
      13A     -0.788969    14A     -0.779515    15A     -0.654175
      16A     -0.638265    17A     -0.595149    18A     -0.543115
      19A     -0.503874    20A     -0.490422    21A     -0.476987
      22A     -0.476180    23A     -0.421339    24A     -0.330117

  @DF-RHF Final Energy:  -553.73140019130085

   => Energetics <=

    Nuclear Repulsion Energy =            235.3482483834380048
    One-Electron Energy =               -1227.2154390092487120
    Two-Electron Energy =                 438.1357904345099428
    Total Energy =                       -553.7314001913007360
  Basis Set: (AUG-CC-PVTZ AUX)
    Blend: AUG-CC-PVTZ-RI
    Molecular point group: c1

    Geometry (in Angstrom), charge = 0, multiplicity = 1:

       Center              X                  Y                   Z               Mass
    ------------   -----------------  -----------------  -----------------  -----------------
         S           -1.235938244376     0.000021022595    -0.000574883781    31.972071174400
         C            1.346316755624     0.709385022595     0.280189116219    12.000000000000
         C            1.346309755624    -0.709351977405    -0.281338883781    12.000000000000
         C            0.015429755624     1.329795022595    -0.140178883781    12.000000000000
         C            0.015425755624    -1.329750977405     0.139052116219    12.000000000000
         H            1.412162055624     0.669443022595     1.423397016219     1.007825032230
         H            2.190940755624     1.302726022595    -0.086089883781     1.007825032230
         H            1.409261755624    -0.671152977405    -1.374661883781     1.007825032230
         H            2.190936755624    -1.302695977405     0.084927116219     1.007825032230
         H           -0.273224244376     2.167322022595     0.499108116219     1.007825032230
         H            0.061907755624     1.682826022595    -1.174099883781     1.007825032230
         H           -0.273236244376    -2.167291977405    -0.500215883781     1.007825032230
         H            0.061913755624    -1.682760977405     1.172979116219     1.007825032230

  Basis Set: AUG-CC-PVTZ
    Blend: AUG-CC-PVTZ
  Basis Set: (AUG-CC-PVTZ AUX)
    Blend: AUG-CC-PVTZ-JKFIT
	 Reference Energy          =    -553.7314001913008497 [Eh]
	 Singles Energy            =      -0.0000000000000000 [Eh]
	 Same-Spin Energy          =      -0.2260934714203007 [Eh]
	 Opposite-Spin Energy      =      -0.7715085080399833 [Eh]
	 Correlation Energy        =      -0.9976019794602839 [Eh]
	 Total Energy              =    -554.7290021707610777 [Eh]

	 ================> DF-SCS-MP2 Energies <==================
	-----------------------------------------------------------
	 SCS Same-Spin Scale       =       0.3333333333333333 [-]
	 SCS Opposite-Spin Scale   =       1.2000000000000000 [-]
	 SCS Same-Spin Energy      =      -0.0753644904734336 [Eh]
	 SCS Opposite-Spin Energy  =      -0.9258102096479799 [Eh]
	 SCS Correlation Energy    =      -1.0011747001214135 [Eh]
	 SCS Total Energy          =    -554.7325748914222459 [Eh]
	-----------------------------------------------------------

  Dipole Moment: [D]
     X:     2.1066      Y:    -0.0034      Z:    -0.0310     Total:     2.1069

*** Psi4 exiting successfully. Buy a developer a beer!
