                               Psi4 1.3.2 release

  ==> Input File <==

--------------------------------------------------------------------------
#psi4
#
memory 32 gb

molecule  {
0 1
  S       -1.3055980     0.0000010    -0.0000040
  C        1.2766570     0.7093650     0.2807600
  C        1.2766500    -0.7093720    -0.2807680
  C       -0.0542300     1.3297750    -0.1396080
  C       -0.0542340    -1.3297710     0.1396230
  H        1.3511223     0.6641941     1.5736287
  H        2.1212810     1.3027060    -0.0855190
  H        1.3396020    -0.6711730    -1.3740910
  H        2.1212770    -1.3027160     0.0854980
  H       -0.3428840     2.1673020     0.4996790
  H       -0.0077520     1.6828060    -1.1735290
  H       -0.3428960    -2.1673120    -0.4996450
  H       -0.0077460    -1.6827810     1.1735500
units angstrom
no_reorient  #important for SAPT in psi4, default
symmetry c1  #important for SAPT in psi4, default
}

set PROPERTIES_ORIGIN ["COM"]
properties('MP2/aug-cc-pvtz', properties = ['dipole'])
--------------------------------------------------------------------------

    Molecular point group: c1
  Charge       = 0
  Multiplicity = 1
  Basis Set: AUG-CC-PVTZ
    Blend: AUG-CC-PVTZ
  Basis Set: (AUG-CC-PVTZ AUX)
    Blend: AUG-CC-PVTZ-JKFIT

    Orbital Energies [Eh]
    ---------------------

    Doubly Occupied:

       1A    -91.936456     2A    -11.256424     3A    -11.254879
       4A    -11.253127     5A    -11.235794     6A     -8.937123
       7A     -6.618297     8A     -6.617517     9A     -6.616506
      10A     -1.125599    11A     -0.983391    12A     -0.962342
      13A     -0.783907    14A     -0.777453    15A     -0.651415
      16A     -0.639550    17A     -0.592873    18A     -0.537664
      19A     -0.505623    20A     -0.492670    21A     -0.477959
      22A     -0.459968    23A     -0.422394    24A     -0.330701

  @DF-RHF Final Energy:  -553.71379620927928

   => Energetics <=

    Nuclear Repulsion Energy =            234.7360524853429240
    One-Electron Energy =               -1225.9604299448624261
    Two-Electron Energy =                 437.5105812502401363
    Total Energy =                       -553.7137962092792804
  Basis Set: (AUG-CC-PVTZ AUX)
    Blend: AUG-CC-PVTZ-RI
    Molecular point group: c1

    Geometry (in Angstrom), charge = 0, multiplicity = 1:

       Center              X                  Y                   Z               Mass
    ------------   -----------------  -----------------  -----------------  -----------------
         S           -1.236036926539     0.000080883287    -0.002288207613    31.972071174400
         C            1.346218073461     0.709444883287     0.278475792387    12.000000000000
         C            1.346211073461    -0.709292116713    -0.283052207613    12.000000000000
         C            0.015331073461     1.329854883287    -0.141892207613    12.000000000000
         C            0.015327073461    -1.329691116713     0.137338792387    12.000000000000
         H            1.420683373461     0.664273983287     1.571344492387     1.007825032230
         H            2.190842073461     1.302785883287    -0.087803207613     1.007825032230
         H            1.409163073461    -0.671093116713    -1.376375207613     1.007825032230
         H            2.190838073461    -1.302636116713     0.083213792387     1.007825032230
         H           -0.273322926539     2.167381883287     0.497394792387     1.007825032230
         H            0.061809073461     1.682885883287    -1.175813207613     1.007825032230
         H           -0.273334926539    -2.167232116713    -0.501929207613     1.007825032230
         H            0.061815073461    -1.682701116713     1.171265792387     1.007825032230

  Basis Set: AUG-CC-PVTZ
    Blend: AUG-CC-PVTZ
  Basis Set: (AUG-CC-PVTZ AUX)
    Blend: AUG-CC-PVTZ-JKFIT
	 Reference Energy          =    -553.7137962092792804 [Eh]
	 Singles Energy            =      -0.0000000000000000 [Eh]
	 Same-Spin Energy          =      -0.2261367471742849 [Eh]
	 Opposite-Spin Energy      =      -0.7727622679272008 [Eh]
	 Correlation Energy        =      -0.9988990151014857 [Eh]
	 Total Energy              =    -554.7126952243808091 [Eh]

	 ================> DF-SCS-MP2 Energies <==================
	-----------------------------------------------------------
	 SCS Same-Spin Scale       =       0.3333333333333333 [-]
	 SCS Opposite-Spin Scale   =       1.2000000000000000 [-]
	 SCS Same-Spin Energy      =      -0.0753789157247616 [Eh]
	 SCS Opposite-Spin Energy  =      -0.9273147215126409 [Eh]
	 SCS Correlation Energy    =      -1.0026936372374027 [Eh]
	 SCS Total Energy          =    -554.7164898465166516 [Eh]
	-----------------------------------------------------------

  Dipole Moment: [D]
     X:     2.0705      Y:    -0.0163      Z:    -0.1490     Total:     2.0760

*** Psi4 exiting successfully. Buy a developer a beer!
