                               Psi4 1.3.2 release

  ==> Input File <==

--------------------------------------------------------------------------
#psi4
#
memory 32 gb

molecule  {
0 1
  S       -1.3983182     0.1139932     0.1230923
  C        1.2766570     0.7093650     0.2807600
  C        1.2766500    -0.7093720    -0.2807680
  C       -0.0542300     1.3297750    -0.1396080
  C       -0.0542340    -1.3297710     0.1396230
  H        1.3396290     0.6711660     1.3740810
  H        2.1212810     1.3027060    -0.0855190
  H        1.3396020    -0.6711730    -1.3740910
  H        2.1212770    -1.3027160     0.0854980
  H       -0.3428840     2.1673020     0.4996790
  H       -0.0077520     1.6828060    -1.1735290
  H       -0.3428960    -2.1673120    -0.4996450
  H       -0.0077460    -1.6827810     1.1735500
units angstrom
no_reorient  #important for SAPT in psi4, default
symmetry c1  #important for SAPT in psi4, default
}

set PROPERTIES_ORIGIN ["COM"]
properties('MP2/aug-cc-pvtz', properties = ['dipole'])
--------------------------------------------------------------------------

    Molecular point group: c1
  Charge       = 0
  Multiplicity = 1
  Basis Set: AUG-CC-PVTZ
    Blend: AUG-CC-PVTZ
  Basis Set: (AUG-CC-PVTZ AUX)
    Blend: AUG-CC-PVTZ-JKFIT

    Orbital Energies [Eh]
    ---------------------

    Doubly Occupied:

       1A    -91.941588     2A    -11.262950     3A    -11.251906
       4A    -11.234983     5A    -11.233488     6A     -8.940133
       7A     -6.621156     8A     -6.620283     9A     -6.619365
      10A     -1.117124    11A     -0.983497    12A     -0.953481
      13A     -0.791435    14A     -0.781938    15A     -0.653231
      16A     -0.636371    17A     -0.596405    18A     -0.542471
      19A     -0.501448    20A     -0.490839    21A     -0.481721
      22A     -0.457618    23A     -0.420167    24A     -0.333176

  @DF-RHF Final Energy:  -553.72432537863551

   => Energetics <=

    Nuclear Repulsion Energy =            231.8126487074986812
    One-Electron Energy =               -1220.1404012315949785
    Two-Electron Energy =                 434.6034271454607278
    Total Energy =                       -553.7243253786355126
  Basis Set: (AUG-CC-PVTZ AUX)
    Blend: AUG-CC-PVTZ-RI
    Molecular point group: c1

    Geometry (in Angstrom), charge = 0, multiplicity = 1:

       Center              X                  Y                   Z               Mass
    ------------   -----------------  -----------------  -----------------  -----------------
         S           -1.294951808466     0.072594048633     0.078386914038    31.972071174400
         C            1.380023391534     0.667965848633     0.236054614038    12.000000000000
         C            1.380016391534    -0.750771151367    -0.325473385962    12.000000000000
         C            0.049136391534     1.288375848633    -0.184313385962    12.000000000000
         C            0.049132391534    -1.371170151367     0.094917614038    12.000000000000
         H            1.442995391534     0.629766848633     1.329375614038     1.007825032230
         H            2.224647391534     1.261306848633    -0.130224385962     1.007825032230
         H            1.442968391534    -0.712572151367    -1.418796385962     1.007825032230
         H            2.224643391534    -1.344115151367     0.040792614038     1.007825032230
         H           -0.239517608466     2.125902848633     0.454973614038     1.007825032230
         H            0.095614391534     1.641406848633    -1.218234385962     1.007825032230
         H           -0.239529608466    -2.208711151367    -0.544350385962     1.007825032230
         H            0.095620391534    -1.724180151367     1.128844614038     1.007825032230

  Basis Set: AUG-CC-PVTZ
    Blend: AUG-CC-PVTZ
  Basis Set: (AUG-CC-PVTZ AUX)
    Blend: AUG-CC-PVTZ-JKFIT
	 Reference Energy          =    -553.7243253786355126 [Eh]
	 Singles Energy            =      -0.0000000000000000 [Eh]
	 Same-Spin Energy          =      -0.2256143275822146 [Eh]
	 Opposite-Spin Energy      =      -0.7723804752968931 [Eh]
	 Correlation Energy        =      -0.9979948028791077 [Eh]
	 Total Energy              =    -554.7223201815146467 [Eh]

	 ================> DF-SCS-MP2 Energies <==================
	-----------------------------------------------------------
	 SCS Same-Spin Scale       =       0.3333333333333333 [-]
	 SCS Opposite-Spin Scale   =       1.2000000000000000 [-]
	 SCS Same-Spin Energy      =      -0.0752047758607382 [Eh]
	 SCS Opposite-Spin Energy  =      -0.9268565703562717 [Eh]
	 SCS Correlation Energy    =      -1.0020613462170098 [Eh]
	 SCS Total Energy          =    -554.7263867248525457 [Eh]
	-----------------------------------------------------------

  Dipole Moment: [D]
     X:     2.1838      Y:    -0.1084      Z:    -0.1160     Total:     2.1896

*** Psi4 exiting successfully. Buy a developer a beer!
