                               Psi4 1.3.2 release

  ==> Input File <==

--------------------------------------------------------------------------
#psi4
#
memory 32 gb

molecule  {
0 1
  S       -1.3220328     0.0180198     0.0206550
  C        1.2766570     0.7093650     0.2807600
  C        1.2766500    -0.7093720    -0.2807680
  C       -0.0542300     1.3297750    -0.1396080
  C       -0.0542340    -1.3297710     0.1396230
  H        1.3396290     0.6711660     1.3740810
  H        2.1212810     1.3027060    -0.0855190
  H        1.3396020    -0.6711730    -1.3740910
  H        2.1212770    -1.3027160     0.0854980
  H       -0.3428840     2.1673020     0.4996790
  H       -0.0077520     1.6828060    -1.1735290
  H       -0.3428960    -2.1673120    -0.4996450
  H       -0.0077460    -1.6827810     1.1735500
units angstrom
no_reorient  #important for SAPT in psi4, default
symmetry c1  #important for SAPT in psi4, default
}

set PROPERTIES_ORIGIN ["COM"]
properties('MP2/aug-cc-pvtz', properties = ['dipole'])
--------------------------------------------------------------------------

    Molecular point group: c1
  Charge       = 0
  Multiplicity = 1
  Basis Set: AUG-CC-PVTZ
    Blend: AUG-CC-PVTZ
  Basis Set: (AUG-CC-PVTZ AUX)
    Blend: AUG-CC-PVTZ-JKFIT

    Orbital Energies [Eh]
    ---------------------

    Doubly Occupied:

       1A    -91.936705     2A    -11.254123     3A    -11.252363
       4A    -11.233544     5A    -11.232895     6A     -8.936965
       7A     -6.618112     8A     -6.617324     9A     -6.616339
      10A     -1.124661    11A     -0.982691    12A     -0.963387
      13A     -0.792108    14A     -0.780221    15A     -0.655037
      16A     -0.637629    17A     -0.596149    18A     -0.544843
      19A     -0.502650    20A     -0.490054    21A     -0.480558
      22A     -0.473513    23A     -0.421678    24A     -0.330627

  @DF-RHF Final Energy:  -553.73311245328989

   => Energetics <=

    Nuclear Repulsion Energy =            234.9209525027245888
    One-Electron Energy =               -1226.3597785615127123
    Two-Electron Energy =                 437.7057136054982038
    Total Energy =                       -553.7331124532898912
  Basis Set: (AUG-CC-PVTZ AUX)
    Blend: AUG-CC-PVTZ-RI
    Molecular point group: c1

    Geometry (in Angstrom), charge = 0, multiplicity = 1:

       Center              X                  Y                   Z               Mass
    ------------   -----------------  -----------------  -----------------  -----------------
         S           -1.246371427395     0.011475874713     0.013152372829    31.972071174400
         C            1.352318372605     0.702821074713     0.273257372829    12.000000000000
         C            1.352311372605    -0.715915925287    -0.288270627171    12.000000000000
         C            0.021431372605     1.323231074713    -0.147110627171    12.000000000000
         C            0.021427372605    -1.336314925287     0.132120372829    12.000000000000
         H            1.415290372605     0.664622074713     1.366578372829     1.007825032230
         H            2.196942372605     1.296162074713    -0.093021627171     1.007825032230
         H            1.415263372605    -0.677716925287    -1.381593627171     1.007825032230
         H            2.196938372605    -1.309259925287     0.077995372829     1.007825032230
         H           -0.267222627395     2.160758074713     0.492176372829     1.007825032230
         H            0.067909372605     1.676262074713    -1.181031627171     1.007825032230
         H           -0.267234627395    -2.173855925287    -0.507147627171     1.007825032230
         H            0.067915372605    -1.689324925287     1.166047372829     1.007825032230

  Basis Set: AUG-CC-PVTZ
    Blend: AUG-CC-PVTZ
  Basis Set: (AUG-CC-PVTZ AUX)
    Blend: AUG-CC-PVTZ-JKFIT
	 Reference Energy          =    -553.7331124532898912 [Eh]
	 Singles Energy            =      -0.0000000000000000 [Eh]
	 Same-Spin Energy          =      -0.2259458165948014 [Eh]
	 Opposite-Spin Energy      =      -0.7712770411590820 [Eh]
	 Correlation Energy        =      -0.9972228577538834 [Eh]
	 Total Energy              =    -554.7303353110437456 [Eh]

	 ================> DF-SCS-MP2 Energies <==================
	-----------------------------------------------------------
	 SCS Same-Spin Scale       =       0.3333333333333333 [-]
	 SCS Opposite-Spin Scale   =       1.2000000000000000 [-]
	 SCS Same-Spin Energy      =      -0.0753152721982671 [Eh]
	 SCS Opposite-Spin Energy  =      -0.9255324493908984 [Eh]
	 SCS Correlation Energy    =      -1.0008477215891656 [Eh]
	 SCS Total Energy          =    -554.7339601748790301 [Eh]
	-----------------------------------------------------------

  Dipole Moment: [D]
     X:     2.1264      Y:    -0.0165      Z:    -0.0201     Total:     2.1265

*** Psi4 exiting successfully. Buy a developer a beer!
