                               Psi4 1.3.2 release

  ==> Input File <==

--------------------------------------------------------------------------
#psi4
#
memory 32 gb

molecule  {
0 1
  S       -1.3055980     0.0000010    -0.0000040
  C        1.2766570     0.7093650     0.2807600
  C        1.2766500    -0.7093720    -0.2807680
  C        0.0141017     1.4023881    -0.1472312
  C       -0.0542340    -1.3297710     0.1396230
  H        1.3396290     0.6711660     1.3740810
  H        2.1212810     1.3027060    -0.0855190
  H        1.3396020    -0.6711730    -1.3740910
  H        2.1212770    -1.3027160     0.0854980
  H       -0.3428840     2.1673020     0.4996790
  H       -0.0077520     1.6828060    -1.1735290
  H       -0.3428960    -2.1673120    -0.4996450
  H       -0.0077460    -1.6827810     1.1735500
units angstrom
no_reorient  #important for SAPT in psi4, default
symmetry c1  #important for SAPT in psi4, default
}

set PROPERTIES_ORIGIN ["COM"]
properties('MP2/aug-cc-pvtz', properties = ['dipole'])
--------------------------------------------------------------------------

    Molecular point group: c1
  Charge       = 0
  Multiplicity = 1
  Basis Set: AUG-CC-PVTZ
    Blend: AUG-CC-PVTZ
  Basis Set: (AUG-CC-PVTZ AUX)
    Blend: AUG-CC-PVTZ-JKFIT

    Orbital Energies [Eh]
    ---------------------

    Doubly Occupied:

       1A    -91.932890     2A    -11.255098     3A    -11.251309
       4A    -11.234361     5A    -11.233459     6A     -8.932622
       7A     -6.613671     8A     -6.612928     9A     -6.611973
      10A     -1.123607    11A     -0.989411    12A     -0.956003
      13A     -0.795944    14A     -0.781098    15A     -0.660212
      16A     -0.636003    17A     -0.605515    18A     -0.549136
      19A     -0.512511    20A     -0.495456    21A     -0.483372
      22A     -0.461940    23A     -0.406131    24A     -0.329453

  @DF-RHF Final Energy:  -553.72840400726852

   => Energetics <=

    Nuclear Repulsion Energy =            234.2380863114784688
    One-Electron Energy =               -1225.0047783891714062
    Two-Electron Energy =                 437.0382880704244144
    Total Energy =                       -553.7284040072685229
  Basis Set: (AUG-CC-PVTZ AUX)
    Blend: AUG-CC-PVTZ-RI
    Molecular point group: c1

    Geometry (in Angstrom), charge = 0, multiplicity = 1:

       Center              X                  Y                   Z               Mass
    ------------   -----------------  -----------------  -----------------  -----------------
         S           -1.245219640024    -0.009896818010     0.001035341648    31.972071174400
         C            1.337035359976     0.699467181990     0.281799341648    12.000000000000
         C            1.337028359976    -0.719269818010    -0.279728658352    12.000000000000
         C            0.074480059976     1.392490281990    -0.146191858352    12.000000000000
         C            0.006144359976    -1.339668818010     0.140662341648    12.000000000000
         H            1.400007359976     0.661268181990     1.375120341648     1.007825032230
         H            2.181659359976     1.292808181990    -0.084479658352     1.007825032230
         H            1.399980359976    -0.681070818010    -1.373051658352     1.007825032230
         H            2.181655359976    -1.312613818010     0.086537341648     1.007825032230
         H           -0.282505640024     2.157404181990     0.500718341648     1.007825032230
         H            0.052626359976     1.672908181990    -1.172489658352     1.007825032230
         H           -0.282517640024    -2.177209818010    -0.498605658352     1.007825032230
         H            0.052632359976    -1.692678818010     1.174589341648     1.007825032230

  Basis Set: AUG-CC-PVTZ
    Blend: AUG-CC-PVTZ
  Basis Set: (AUG-CC-PVTZ AUX)
    Blend: AUG-CC-PVTZ-JKFIT
	 Reference Energy          =    -553.7284040072685229 [Eh]
	 Singles Energy            =      -0.0000000000000000 [Eh]
	 Same-Spin Energy          =      -0.2259523501494872 [Eh]
	 Opposite-Spin Energy      =      -0.7713550004284719 [Eh]
	 Correlation Energy        =      -0.9973073505779592 [Eh]
	 Total Energy              =    -554.7257113578465351 [Eh]

	 ================> DF-SCS-MP2 Energies <==================
	-----------------------------------------------------------
	 SCS Same-Spin Scale       =       0.3333333333333333 [-]
	 SCS Opposite-Spin Scale   =       1.2000000000000000 [-]
	 SCS Same-Spin Energy      =      -0.0753174500498291 [Eh]
	 SCS Opposite-Spin Energy  =      -0.9256260005141663 [Eh]
	 SCS Correlation Energy    =      -1.0009434505639954 [Eh]
	 SCS Total Energy          =    -554.7293474578325458 [Eh]
	-----------------------------------------------------------

  Dipole Moment: [D]
     X:     2.2138      Y:     0.1033      Z:    -0.0160     Total:     2.2162

*** Psi4 exiting successfully. Buy a developer a beer!
