                               Psi4 1.4a3.dev225

  ==> Input File <==

--------------------------------------------------------------------------
#psi4
#
memory 32 gb

molecule  {
0 1
  S       -1.3055980     0.0000010    -0.0000040
  C        1.2766570     0.7093650     0.2807600
  C        1.2766500    -0.7093720    -0.2807680
  C       -0.0542300     1.3297750    -0.1396080
  C       -0.0542340    -1.3297710     0.1396230
  H        1.3407783     0.6704688     1.3940358
  H        2.1212810     1.3027060    -0.0855190
  H        1.3396020    -0.6711730    -1.3740910
  H        2.1212770    -1.3027160     0.0854980
  H       -0.3428840     2.1673020     0.4996790
  H       -0.0077520     1.6828060    -1.1735290
  H       -0.3428960    -2.1673120    -0.4996450
  H       -0.0077460    -1.6827810     1.1735500
units angstrom
no_reorient  #important for SAPT in psi4, default
symmetry c1  #important for SAPT in psi4, default
}

set PROPERTIES_ORIGIN ["COM"]
properties('MP2/aug-cc-pvtz', properties = ['dipole'])
--------------------------------------------------------------------------

    Molecular point group: c1
  Charge       = 0
  Multiplicity = 1
  Basis Set: AUG-CC-PVTZ
    Blend: AUG-CC-PVTZ
  Basis Set: (AUG-CC-PVTZ AUX)
    Blend: AUG-CC-PVTZ-JKFIT

    Orbital Energies [Eh]
    ---------------------

    Doubly Occupied:

       1A    -91.935657     2A    -11.252628     3A    -11.252471
       4A    -11.235574     5A    -11.233248     6A     -8.936334
       7A     -6.617508     8A     -6.616730     9A     -6.615725
      10A     -1.126338    11A     -0.983195    12A     -0.964476
      13A     -0.791034    14A     -0.779582    15A     -0.654955
      16A     -0.638071    17A     -0.595809    18A     -0.544470
      19A     -0.503599    20A     -0.490175    21A     -0.478958
      22A     -0.476588    23A     -0.421170    24A     -0.330031

  @DF-RHF Final Energy:  -553.73296356845708

   => Energetics <=

    Nuclear Repulsion Energy =            235.4821397683561770
    One-Electron Energy =               -1227.4815541741834295
    Two-Electron Energy =                 438.2664508373701437
    Total Energy =                       -553.7329635684570803
  Basis Set: (AUG-CC-PVTZ AUX)
    Blend: AUG-CC-PVTZ-RI
    Molecular point group: c1

    Geometry (in Angstrom), charge = 0, multiplicity = 1:

       Center              X                  Y                   Z               Mass
    ------------   -----------------  -----------------  -----------------  -----------------
         S           -1.235918507943     0.000009050228    -0.000232219702    31.972071174400
         C            1.346336492057     0.709373050228     0.280531780298    12.000000000000
         C            1.346329492057    -0.709363949772    -0.280996219702    12.000000000000
         C            0.015449492057     1.329783050228    -0.139836219702    12.000000000000
         C            0.015445492057    -1.329762949772     0.139394780298    12.000000000000
         H            1.410457792057     0.670476850228     1.393807580298     1.007825032230
         H            2.190960492057     1.302714050228    -0.085747219702     1.007825032230
         H            1.409281492057    -0.671164949772    -1.374319219702     1.007825032230
         H            2.190956492057    -1.302707949772     0.085269780298     1.007825032230
         H           -0.273204507943     2.167310050228     0.499450780298     1.007825032230
         H            0.061927492057     1.682814050228    -1.173757219702     1.007825032230
         H           -0.273216507943    -2.167303949772    -0.499873219702     1.007825032230
         H            0.061933492057    -1.682772949772     1.173321780298     1.007825032230

  Basis Set: AUG-CC-PVTZ
    Blend: AUG-CC-PVTZ
  Basis Set: (AUG-CC-PVTZ AUX)
    Blend: AUG-CC-PVTZ-JKFIT
	 Reference Energy          =    -553.7329635684570803 [Eh]
	 Singles Energy            =      -0.0000000000000000 [Eh]
	 Same-Spin Energy          =      -0.2260840061768203 [Eh]
	 Opposite-Spin Energy      =      -0.7712980087325887 [Eh]
	 Correlation Energy        =      -0.9973820149094090 [Eh]
	 Total Energy              =    -554.7303455833664430 [Eh]

	 ================> DF-SCS-MP2 Energies <==================
	-----------------------------------------------------------
	 SCS Same-Spin Scale       =       0.3333333333333333 [-]
	 SCS Opposite-Spin Scale   =       1.2000000000000000 [-]
	 SCS Same-Spin Energy      =      -0.0753613353922734 [Eh]
	 SCS Opposite-Spin Energy  =      -0.9255576104791063 [Eh]
	 SCS Correlation Energy    =      -1.0009189458713799 [Eh]
	 SCS Total Energy          =    -554.7338825143284566 [Eh]
	-----------------------------------------------------------

  Dipole Moment: [D]
     X:     2.1125      Y:    -0.0013      Z:    -0.0118     Total:     2.1126

*** Psi4 exiting successfully. Buy a developer a beer!
