                               Psi4 1.3.2 release

  ==> Input File <==

--------------------------------------------------------------------------
#psi4
#
memory 32 gb

molecule  {
0 1
  S       -1.3380815     0.0364381     0.0412651
  C        1.2766570     0.7093650     0.2807600
  C        1.2766500    -0.7093720    -0.2807680
  C       -0.0542300     1.3297750    -0.1396080
  C       -0.0542340    -1.3297710     0.1396230
  H        1.3396290     0.6711660     1.3740810
  H        2.1212810     1.3027060    -0.0855190
  H        1.3396020    -0.6711730    -1.3740910
  H        2.1212770    -1.3027160     0.0854980
  H       -0.3428840     2.1673020     0.4996790
  H       -0.0077520     1.6828060    -1.1735290
  H       -0.3428960    -2.1673120    -0.4996450
  H       -0.0077460    -1.6827810     1.1735500
units angstrom
no_reorient  #important for SAPT in psi4, default
symmetry c1  #important for SAPT in psi4, default
}

set PROPERTIES_ORIGIN ["COM"]
properties('MP2/aug-cc-pvtz', properties = ['dipole'])
--------------------------------------------------------------------------

    Molecular point group: c1
  Charge       = 0
  Multiplicity = 1
  Basis Set: AUG-CC-PVTZ
    Blend: AUG-CC-PVTZ
  Basis Set: (AUG-CC-PVTZ AUX)
    Blend: AUG-CC-PVTZ-JKFIT

    Orbital Energies [Eh]
    ---------------------

    Doubly Occupied:

       1A    -91.937775     2A    -11.255849     3A    -11.252292
       4A    -11.233752     5A    -11.233023     6A     -8.937642
       7A     -6.618763     8A     -6.617961     9A     -6.616994
      10A     -1.122888    11A     -0.982412    12A     -0.961620
      13A     -0.791709    14A     -0.780792    15A     -0.654603
      16A     -0.637322    17A     -0.596081    18A     -0.544308
      19A     -0.502102    20A     -0.490093    21A     -0.480749
      22A     -0.470275    23A     -0.422043    24A     -0.331229

  @DF-RHF Final Energy:  -553.73224425030185

   => Energetics <=

    Nuclear Repulsion Energy =            234.2781885552524841
    One-Electron Energy =               -1225.0763131491933109
    Two-Electron Energy =                 437.0658803436390372
    Total Energy =                       -553.7322442503018465
  Basis Set: (AUG-CC-PVTZ AUX)
    Blend: AUG-CC-PVTZ-RI
    Molecular point group: c1

    Geometry (in Angstrom), charge = 0, multiplicity = 1:

       Center              X                  Y                   Z               Mass
    ------------   -----------------  -----------------  -----------------  -----------------
         S           -1.256591626302     0.023205092004     0.026277381178    31.972071174400
         C            1.358146873698     0.696131992004     0.265772281178    12.000000000000
         C            1.358139873698    -0.722605007996    -0.295755718822    12.000000000000
         C            0.027259873698     1.316541992004    -0.154595718822    12.000000000000
         C            0.027255873698    -1.343004007996     0.124635281178    12.000000000000
         H            1.421118873698     0.657932992004     1.359093281178     1.007825032230
         H            2.202770873698     1.289472992004    -0.100506718822     1.007825032230
         H            1.421091873698    -0.684406007996    -1.389078718822     1.007825032230
         H            2.202766873698    -1.315949007996     0.070510281178     1.007825032230
         H           -0.261394126302     2.154068992004     0.484691281178     1.007825032230
         H            0.073737873698     1.669572992004    -1.188516718822     1.007825032230
         H           -0.261406126302    -2.180545007996    -0.514632718822     1.007825032230
         H            0.073743873698    -1.696014007996     1.158562281178     1.007825032230

  Basis Set: AUG-CC-PVTZ
    Blend: AUG-CC-PVTZ
  Basis Set: (AUG-CC-PVTZ AUX)
    Blend: AUG-CC-PVTZ-JKFIT
	 Reference Energy          =    -553.7322442503018465 [Eh]
	 Singles Energy            =      -0.0000000000000000 [Eh]
	 Same-Spin Energy          =      -0.2258361663935565 [Eh]
	 Opposite-Spin Energy      =      -0.7714240553109504 [Eh]
	 Correlation Energy        =      -0.9972602217045068 [Eh]
	 Total Energy              =    -554.7295044720063970 [Eh]

	 ================> DF-SCS-MP2 Energies <==================
	-----------------------------------------------------------
	 SCS Same-Spin Scale       =       0.3333333333333333 [-]
	 SCS Opposite-Spin Scale   =       1.2000000000000000 [-]
	 SCS Same-Spin Energy      =      -0.0752787221311855 [Eh]
	 SCS Opposite-Spin Energy  =      -0.9257088663731404 [Eh]
	 SCS Correlation Energy    =      -1.0009875885043260 [Eh]
	 SCS Total Energy          =    -554.7332318388062049 [Eh]
	-----------------------------------------------------------

  Dipole Moment: [D]
     X:     2.1369      Y:    -0.0338      Z:    -0.0399     Total:     2.1375

*** Psi4 exiting successfully. Buy a developer a beer!
