                               Psi4 1.3.2 release

  ==> Input File <==

--------------------------------------------------------------------------
#psi4
#
memory 32 gb

molecule  {
0 1
  S       -1.3055980     0.0000010    -0.0000040
  C        1.2766570     0.7093650     0.2807600
  C        1.2766500    -0.7093720    -0.2807680
  C       -0.0542300     1.3297750    -0.1396080
  C       -0.0542340    -1.3297710     0.1396230
  H        1.3396290     0.6711660     1.3740810
  H        2.1212810     1.3027060    -0.0855190
  H        1.3396020    -0.6711730    -1.3740910
  H        2.1212770    -1.3027160     0.0854980
  H       -0.3164615     2.0906374     0.4411607
  H       -0.0077520     1.6828060    -1.1735290
  H       -0.3428960    -2.1673120    -0.4996450
  H       -0.0077460    -1.6827810     1.1735500
units angstrom
no_reorient  #important for SAPT in psi4, default
symmetry c1  #important for SAPT in psi4, default
}

set PROPERTIES_ORIGIN ["COM"]
properties('MP2/aug-cc-pvtz', properties = ['dipole'])
--------------------------------------------------------------------------

    Molecular point group: c1
  Charge       = 0
  Multiplicity = 1
  Basis Set: AUG-CC-PVTZ
    Blend: AUG-CC-PVTZ
  Basis Set: (AUG-CC-PVTZ AUX)
    Blend: AUG-CC-PVTZ-JKFIT

    Orbital Energies [Eh]
    ---------------------

    Doubly Occupied:

       1A    -91.934919     2A    -11.252062     3A    -11.240477
       4A    -11.232837     5A    -11.232206     6A     -8.935632
       7A     -6.616817     8A     -6.616037     9A     -6.615038
      10A     -1.127579    11A     -0.989033    12A     -0.965147
      13A     -0.796170    14A     -0.785024    15A     -0.659878
      16A     -0.639592    17A     -0.599498    18A     -0.547856
      19A     -0.506316    20A     -0.491074    21A     -0.481570
      22A     -0.476398    23A     -0.420428    24A     -0.330165

  @DF-RHF Final Energy:  -553.72766466199050

   => Energetics <=

    Nuclear Repulsion Energy =            236.1020388142461570
    One-Electron Energy =               -1228.6759033166272275
    Two-Electron Energy =                 438.8461998403905113
    Total Energy =                       -553.7276646619905023
  Basis Set: (AUG-CC-PVTZ AUX)
    Blend: AUG-CC-PVTZ-RI
    Molecular point group: c1

    Geometry (in Angstrom), charge = 0, multiplicity = 1:

       Center              X                  Y                   Z               Mass
    ------------   -----------------  -----------------  -----------------  -----------------
         S           -1.236207836718     0.000878728573     0.000666144014    31.972071174400
         C            1.346047163282     0.710242728573     0.281430144014    12.000000000000
         C            1.346040163282    -0.708494271427    -0.280097855986    12.000000000000
         C            0.015160163282     1.330652728573    -0.138937855986    12.000000000000
         C            0.015156163282    -1.328893271427     0.140293144014    12.000000000000
         H            1.409019163282     0.672043728573     1.374751144014     1.007825032230
         H            2.190671163282     1.303583728573    -0.084848855986     1.007825032230
         H            1.408992163282    -0.670295271427    -1.373420855986     1.007825032230
         H            2.190667163282    -1.301838271427     0.086168144014     1.007825032230
         H           -0.247071336718     2.091515128573     0.441830844014     1.007825032230
         H            0.061638163282     1.683683728573    -1.172858855986     1.007825032230
         H           -0.273505836718    -2.166434271427    -0.498974855986     1.007825032230
         H            0.061644163282    -1.681903271427     1.174220144014     1.007825032230

  Basis Set: AUG-CC-PVTZ
    Blend: AUG-CC-PVTZ
  Basis Set: (AUG-CC-PVTZ AUX)
    Blend: AUG-CC-PVTZ-JKFIT
	 Reference Energy          =    -553.7276646619905023 [Eh]
	 Singles Energy            =      -0.0000000000000000 [Eh]
	 Same-Spin Energy          =      -0.2260103177202683 [Eh]
	 Opposite-Spin Energy      =      -0.7706385589310938 [Eh]
	 Correlation Energy        =      -0.9966488766513620 [Eh]
	 Total Energy              =    -554.7243135386418089 [Eh]

	 ================> DF-SCS-MP2 Energies <==================
	-----------------------------------------------------------
	 SCS Same-Spin Scale       =       0.3333333333333333 [-]
	 SCS Opposite-Spin Scale   =       1.2000000000000000 [-]
	 SCS Same-Spin Energy      =      -0.0753367725734228 [Eh]
	 SCS Opposite-Spin Energy  =      -0.9247662707173125 [Eh]
	 SCS Correlation Energy    =      -1.0001030432907352 [Eh]
	 SCS Total Energy          =    -554.7277677052812805 [Eh]
	-----------------------------------------------------------

  Dipole Moment: [D]
     X:     2.1124      Y:     0.0411      Z:     0.0023     Total:     2.1128

*** Psi4 exiting successfully. Buy a developer a beer!
