                               Psi4 1.3.2 release

  ==> Input File <==

--------------------------------------------------------------------------
#psi4
#
memory 32 gb

molecule  {
0 1
  S       -1.3055980     0.0000010    -0.0000040
  C        1.2766570     0.7093650     0.2807600
  C        1.2766500    -0.7093720    -0.2807680
  C       -0.1413655     1.3703943    -0.1671302
  C       -0.0542340    -1.3297710     0.1396230
  H        1.3396290     0.6711660     1.3740810
  H        2.1212810     1.3027060    -0.0855190
  H        1.3396020    -0.6711730    -1.3740910
  H        2.1212770    -1.3027160     0.0854980
  H       -0.3428840     2.1673020     0.4996790
  H       -0.0077520     1.6828060    -1.1735290
  H       -0.3428960    -2.1673120    -0.4996450
  H       -0.0077460    -1.6827810     1.1735500
units angstrom
no_reorient  #important for SAPT in psi4, default
symmetry c1  #important for SAPT in psi4, default
}

set PROPERTIES_ORIGIN ["COM"]
properties('MP2/aug-cc-pvtz', properties = ['dipole'])
--------------------------------------------------------------------------

    Molecular point group: c1
  Charge       = 0
  Multiplicity = 1
  Basis Set: AUG-CC-PVTZ
    Blend: AUG-CC-PVTZ
  Basis Set: (AUG-CC-PVTZ AUX)
    Blend: AUG-CC-PVTZ-JKFIT

    Orbital Energies [Eh]
    ---------------------

    Doubly Occupied:

       1A    -91.935859     2A    -11.252965     3A    -11.250417
       4A    -11.237888     5A    -11.233110     6A     -8.936716
       7A     -6.617938     8A     -6.617203     9A     -6.616191
      10A     -1.119697    11A     -0.981417    12A     -0.964060
      13A     -0.795182    14A     -0.781841    15A     -0.654997
      16A     -0.631223    17A     -0.600374    18A     -0.552330
      19A     -0.498891    20A     -0.490862    21A     -0.485142
      22A     -0.472315    23A     -0.414570    24A     -0.331063

  @DF-RHF Final Energy:  -553.72656247924988

   => Energetics <=

    Nuclear Repulsion Energy =            234.8221248880074370
    One-Electron Energy =               -1226.1528717977125780
    Two-Electron Energy =                 437.6041844304551773
    Total Energy =                       -553.7265624792498784
  Basis Set: (AUG-CC-PVTZ AUX)
    Blend: AUG-CC-PVTZ-RI
    Molecular point group: c1

    Geometry (in Angstrom), charge = 0, multiplicity = 1:

       Center              X                  Y                   Z               Mass
    ------------   -----------------  -----------------  -----------------  -----------------
         S           -1.224027916699    -0.005535745336     0.003747772968    31.972071174400
         C            1.358227083301     0.703828254664     0.284511772968    12.000000000000
         C            1.358220083301    -0.714908745336    -0.277016227032    12.000000000000
         C           -0.059795416699     1.364857554664    -0.163378427032    12.000000000000
         C            0.027336083301    -1.335307745336     0.143374772968    12.000000000000
         H            1.421199083301     0.665629254664     1.377832772968     1.007825032230
         H            2.202851083301     1.297169254664    -0.081767227032     1.007825032230
         H            1.421172083301    -0.676709745336    -1.370339227032     1.007825032230
         H            2.202847083301    -1.308252745336     0.089249772968     1.007825032230
         H           -0.261313916699     2.161765254664     0.503430772968     1.007825032230
         H            0.073818083301     1.677269254664    -1.169777227032     1.007825032230
         H           -0.261325916699    -2.172848745336    -0.495893227032     1.007825032230
         H            0.073824083301    -1.688317745336     1.177301772968     1.007825032230

  Basis Set: AUG-CC-PVTZ
    Blend: AUG-CC-PVTZ
  Basis Set: (AUG-CC-PVTZ AUX)
    Blend: AUG-CC-PVTZ-JKFIT
	 Reference Energy          =    -553.7265624792498784 [Eh]
	 Singles Energy            =      -0.0000000000000000 [Eh]
	 Same-Spin Energy          =      -0.2258175979305138 [Eh]
	 Opposite-Spin Energy      =      -0.7711829402672210 [Eh]
	 Correlation Energy        =      -0.9970005381977348 [Eh]
	 Total Energy              =    -554.7235630174476455 [Eh]

	 ================> DF-SCS-MP2 Energies <==================
	-----------------------------------------------------------
	 SCS Same-Spin Scale       =       0.3333333333333333 [-]
	 SCS Opposite-Spin Scale   =       1.2000000000000000 [-]
	 SCS Same-Spin Energy      =      -0.0752725326435046 [Eh]
	 SCS Opposite-Spin Energy  =      -0.9254195283206652 [Eh]
	 SCS Correlation Energy    =      -1.0006920609641698 [Eh]
	 SCS Total Energy          =    -554.7272545402140622 [Eh]
	-----------------------------------------------------------

  Dipole Moment: [D]
     X:     2.1430      Y:    -0.0145      Z:     0.0032     Total:     2.1430

*** Psi4 exiting successfully. Buy a developer a beer!
