                               Psi4 1.3.2 release

  ==> Input File <==

--------------------------------------------------------------------------
#psi4
#
memory 32 gb

molecule  {
0 1
  S       -1.3055980     0.0000010    -0.0000040
  C        1.2766570     0.7093650     0.2807600
  C        1.2766500    -0.7093720    -0.2807680
  C       -0.1505484     1.4133495    -0.1483835
  C       -0.0542340    -1.3297710     0.1396230
  H        1.3396290     0.6711660     1.3740810
  H        2.1212810     1.3027060    -0.0855190
  H        1.3396020    -0.6711730    -1.3740910
  H        2.1212770    -1.3027160     0.0854980
  H       -0.3428840     2.1673020     0.4996790
  H       -0.0077520     1.6828060    -1.1735290
  H       -0.3428960    -2.1673120    -0.4996450
  H       -0.0077460    -1.6827810     1.1735500
units angstrom
no_reorient  #important for SAPT in psi4, default
symmetry c1  #important for SAPT in psi4, default
}

set PROPERTIES_ORIGIN ["COM"]
properties('MP2/aug-cc-pvtz', properties = ['dipole'])
--------------------------------------------------------------------------

    Molecular point group: c1
  Charge       = 0
  Multiplicity = 1
  Basis Set: AUG-CC-PVTZ
    Blend: AUG-CC-PVTZ
  Basis Set: (AUG-CC-PVTZ AUX)
    Blend: AUG-CC-PVTZ-JKFIT

    Orbital Energies [Eh]
    ---------------------

    Doubly Occupied:

       1A    -91.935756     2A    -11.253158     3A    -11.250535
       4A    -11.239108     5A    -11.233763     6A     -8.936201
       7A     -6.617378     8A     -6.616694     9A     -6.615693
      10A     -1.116507    11A     -0.982023    12A     -0.962188
      13A     -0.797856    14A     -0.782507    15A     -0.657283
      16A     -0.630778    17A     -0.603595    18A     -0.554544
      19A     -0.499174    20A     -0.491504    21A     -0.485297
      22A     -0.469297    23A     -0.409573    24A     -0.331033

  @DF-RHF Final Energy:  -553.72046408947062

   => Energetics <=

    Nuclear Repulsion Energy =            234.1144425483069256
    One-Electron Energy =               -1224.7269259605538991
    Two-Electron Energy =                 436.8920193227763207
    Total Energy =                       -553.7204640894706245
  Basis Set: (AUG-CC-PVTZ AUX)
    Blend: AUG-CC-PVTZ-RI
    Molecular point group: c1

    Geometry (in Angstrom), charge = 0, multiplicity = 1:

       Center              X                  Y                   Z               Mass
    ------------   -----------------  -----------------  -----------------  -----------------
         S           -1.222776196233    -0.011390965689     0.001192411582    31.972071174400
         C            1.359478803767     0.697973034311     0.281956411582    12.000000000000
         C            1.359471803767    -0.720763965689    -0.279571588418    12.000000000000
         C           -0.067726596233     1.401957534311    -0.147187088418    12.000000000000
         C            0.028587803767    -1.341162965689     0.140819411582    12.000000000000
         H            1.422450803767     0.659774034311     1.375277411582     1.007825032230
         H            2.204102803767     1.291314034311    -0.084322588418     1.007825032230
         H            1.422423803767    -0.682564965689    -1.372894588418     1.007825032230
         H            2.204098803767    -1.314107965689     0.086694411582     1.007825032230
         H           -0.260062196233     2.155910034311     0.500875411582     1.007825032230
         H            0.075069803767     1.671414034311    -1.172332588418     1.007825032230
         H           -0.260074196233    -2.178703965689    -0.498448588418     1.007825032230
         H            0.075075803767    -1.694172965689     1.174746411582     1.007825032230

  Basis Set: AUG-CC-PVTZ
    Blend: AUG-CC-PVTZ
  Basis Set: (AUG-CC-PVTZ AUX)
    Blend: AUG-CC-PVTZ-JKFIT
	 Reference Energy          =    -553.7204640894706245 [Eh]
	 Singles Energy            =      -0.0000000000000000 [Eh]
	 Same-Spin Energy          =      -0.2256107732050509 [Eh]
	 Opposite-Spin Energy      =      -0.7712493555423677 [Eh]
	 Correlation Energy        =      -0.9968601287474186 [Eh]
	 Total Energy              =    -554.7173242182180957 [Eh]

	 ================> DF-SCS-MP2 Energies <==================
	-----------------------------------------------------------
	 SCS Same-Spin Scale       =       0.3333333333333333 [-]
	 SCS Opposite-Spin Scale   =       1.2000000000000000 [-]
	 SCS Same-Spin Energy      =      -0.0752035910683503 [Eh]
	 SCS Opposite-Spin Energy  =      -0.9254992266508413 [Eh]
	 SCS Correlation Energy    =      -1.0007028177191915 [Eh]
	 SCS Total Energy          =    -554.7211669071898541 [Eh]
	-----------------------------------------------------------

  Dipole Moment: [D]
     X:     2.1730      Y:     0.0029      Z:     0.0062     Total:     2.1730

*** Psi4 exiting successfully. Buy a developer a beer!
