                               Psi4 1.4a3.dev225

  ==> Input File <==

--------------------------------------------------------------------------
#psi4
#
memory 32 gb

molecule  {
0 1
  S       -1.3055980     0.0000010    -0.0000040
  C        1.2766570     0.7093650     0.2807600
  C        1.2766499    -0.7279684    -0.2881283
  C       -0.0542300     1.3297750    -0.1396080
  C       -0.0542340    -1.3297710     0.1396230
  H        1.3396290     0.6711660     1.3740810
  H        2.1212810     1.3027060    -0.0855190
  H        1.3396020    -0.6711730    -1.3740910
  H        2.1212770    -1.3027160     0.0854980
  H       -0.3428840     2.1673020     0.4996790
  H       -0.0077520     1.6828060    -1.1735290
  H       -0.3428960    -2.1673120    -0.4996450
  H       -0.0077460    -1.6827810     1.1735500
units angstrom
no_reorient  #important for SAPT in psi4, default
symmetry c1  #important for SAPT in psi4, default
}

set PROPERTIES_ORIGIN ["COM"]
properties('MP2/aug-cc-pvtz', properties = ['dipole'])
--------------------------------------------------------------------------

    Molecular point group: c1
  Charge       = 0
  Multiplicity = 1
  Basis Set: AUG-CC-PVTZ
    Blend: AUG-CC-PVTZ
  Basis Set: (AUG-CC-PVTZ AUX)
    Blend: AUG-CC-PVTZ-JKFIT

    Orbital Energies [Eh]
    ---------------------

    Doubly Occupied:

       1A    -91.935798     2A    -11.252397     3A    -11.252127
       4A    -11.233797     5A    -11.232438     6A     -8.936460
       7A     -6.617637     8A     -6.616849     9A     -6.615849
      10A     -1.124916    11A     -0.984311    12A     -0.963109
      13A     -0.793684    14A     -0.779180    15A     -0.655509
      16A     -0.636863    17A     -0.596714    18A     -0.545674
      19A     -0.504950    20A     -0.489121    21A     -0.478202
      22A     -0.477107    23A     -0.421261    24A     -0.330154

  @DF-RHF Final Energy:  -553.73323261469477

   => Energetics <=

    Nuclear Repulsion Energy =            235.3802988944292736
    One-Electron Energy =               -1227.2788491878566219
    Two-Electron Energy =                 438.1653176787326061
    Total Energy =                       -553.7332326146947707
  Basis Set: (AUG-CC-PVTZ AUX)
    Blend: AUG-CC-PVTZ-RI
    Molecular point group: c1

    Geometry (in Angstrom), charge = 0, multiplicity = 1:

       Center              X                  Y                   Z               Mass
    ------------   -----------------  -----------------  -----------------  -----------------
         S           -1.235905337072     0.002535942653     0.000999505767    31.972071174400
         C            1.346349662928     0.711899942653     0.281763505767    12.000000000000
         C            1.346342562928    -0.725433457347    -0.287124794233    12.000000000000
         C            0.015462662928     1.332309942653    -0.138604494233    12.000000000000
         C            0.015458662928    -1.327236057347     0.140626505767    12.000000000000
         H            1.409321662928     0.673700942653     1.375084505767     1.007825032230
         H            2.190973662928     1.305240942653    -0.084515494233     1.007825032230
         H            1.409294662928    -0.668638057347    -1.373087494233     1.007825032230
         H            2.190969662928    -1.300181057347     0.086501505767     1.007825032230
         H           -0.273191337072     2.169836942653     0.500682505767     1.007825032230
         H            0.061940662928     1.685340942653    -1.172525494233     1.007825032230
         H           -0.273203337072    -2.164777057347    -0.498641494233     1.007825032230
         H            0.061946662928    -1.680246057347     1.174553505767     1.007825032230

  Basis Set: AUG-CC-PVTZ
    Blend: AUG-CC-PVTZ
  Basis Set: (AUG-CC-PVTZ AUX)
    Blend: AUG-CC-PVTZ-JKFIT
	 Reference Energy          =    -553.7332326146947707 [Eh]
	 Singles Energy            =      -0.0000000000000000 [Eh]
	 Same-Spin Energy          =      -0.2260108219832537 [Eh]
	 Opposite-Spin Energy      =      -0.7711392425664608 [Eh]
	 Correlation Energy        =      -0.9971500645497144 [Eh]
	 Total Energy              =    -554.7303826792444852 [Eh]

	 ================> DF-SCS-MP2 Energies <==================
	-----------------------------------------------------------
	 SCS Same-Spin Scale       =       0.3333333333333333 [-]
	 SCS Opposite-Spin Scale   =       1.2000000000000000 [-]
	 SCS Same-Spin Energy      =      -0.0753369406610846 [Eh]
	 SCS Opposite-Spin Energy  =      -0.9253670910797529 [Eh]
	 SCS Correlation Energy    =      -1.0007040317408376 [Eh]
	 SCS Total Energy          =    -554.7339366464356090 [Eh]
	-----------------------------------------------------------

  Dipole Moment: [D]
     X:     2.1132      Y:     0.0007      Z:    -0.0011     Total:     2.1132

*** Psi4 exiting successfully. Buy a developer a beer!
