                               Psi4 1.4a3.dev225

  ==> Input File <==

--------------------------------------------------------------------------
#psi4
#
memory 32 gb

molecule  {
0 1
  S       -1.3055980     0.0000010    -0.0000040
  C        1.2766570     0.7093650     0.2807600
  C        1.2766501    -0.6907756    -0.2734077
  C       -0.0542300     1.3297750    -0.1396080
  C       -0.0542340    -1.3297710     0.1396230
  H        1.3396290     0.6711660     1.3740810
  H        2.1212810     1.3027060    -0.0855190
  H        1.3396020    -0.6711730    -1.3740910
  H        2.1212770    -1.3027160     0.0854980
  H       -0.3428840     2.1673020     0.4996790
  H       -0.0077520     1.6828060    -1.1735290
  H       -0.3428960    -2.1673120    -0.4996450
  H       -0.0077460    -1.6827810     1.1735500
units angstrom
no_reorient  #important for SAPT in psi4, default
symmetry c1  #important for SAPT in psi4, default
}

set PROPERTIES_ORIGIN ["COM"]
properties('MP2/aug-cc-pvtz', properties = ['dipole'])
--------------------------------------------------------------------------

    Molecular point group: c1
  Charge       = 0
  Multiplicity = 1
  Basis Set: AUG-CC-PVTZ
    Blend: AUG-CC-PVTZ
  Basis Set: (AUG-CC-PVTZ AUX)
    Blend: AUG-CC-PVTZ-JKFIT

    Orbital Energies [Eh]
    ---------------------

    Doubly Occupied:

       1A    -91.935399     2A    -11.252756     3A    -11.252464
       4A    -11.233819     5A    -11.232287     6A     -8.936093
       7A     -6.617264     8A     -6.616497     9A     -6.615488
      10A     -1.128389    11A     -0.982416    12A     -0.966698
      13A     -0.791453    14A     -0.780045    15A     -0.655657
      16A     -0.639058    17A     -0.595893    18A     -0.545265
      19A     -0.502030    20A     -0.494188    21A     -0.479551
      22A     -0.475476    23A     -0.420786    24A     -0.329811

  @DF-RHF Final Energy:  -553.73296674909523

   => Energetics <=

    Nuclear Repulsion Energy =            235.7688684735919082
    One-Electron Energy =               -1228.0461020509112586
    Two-Electron Energy =                 438.5442668282240675
    Total Energy =                       -553.7329667490952261
  Basis Set: (AUG-CC-PVTZ AUX)
    Blend: AUG-CC-PVTZ-RI
    Molecular point group: c1

    Geometry (in Angstrom), charge = 0, multiplicity = 1:

       Center              X                  Y                   Z               Mass
    ------------   -----------------  -----------------  -----------------  -----------------
         S           -1.235905364334    -0.002533805353    -0.001007058205    31.972071174400
         C            1.346349635666     0.706830194647     0.279756941795    12.000000000000
         C            1.346342735666    -0.693310405353    -0.274410758205    12.000000000000
         C            0.015462635666     1.327240194647    -0.140611058205    12.000000000000
         C            0.015458635666    -1.332305805353     0.138619941795    12.000000000000
         H            1.409321635666     0.668631194647     1.373077941795     1.007825032230
         H            2.190973635666     1.300171194647    -0.086522058205     1.007825032230
         H            1.409294635666    -0.673707805353    -1.375094058205     1.007825032230
         H            2.190969635666    -1.305250805353     0.084494941795     1.007825032230
         H           -0.273191364334     2.164767194647     0.498675941795     1.007825032230
         H            0.061940635666     1.680271194647    -1.174532058205     1.007825032230
         H           -0.273203364334    -2.169846805353    -0.500648058205     1.007825032230
         H            0.061946635666    -1.685315805353     1.172546941795     1.007825032230

  Basis Set: AUG-CC-PVTZ
    Blend: AUG-CC-PVTZ
  Basis Set: (AUG-CC-PVTZ AUX)
    Blend: AUG-CC-PVTZ-JKFIT
	 Reference Energy          =    -553.7329667490952261 [Eh]
	 Singles Energy            =      -0.0000000000000000 [Eh]
	 Same-Spin Energy          =      -0.2261794335090010 [Eh]
	 Opposite-Spin Energy      =      -0.7712550638899390 [Eh]
	 Correlation Energy        =      -0.9974344973989400 [Eh]
	 Total Energy              =    -554.7304012464941252 [Eh]

	 ================> DF-SCS-MP2 Energies <==================
	-----------------------------------------------------------
	 SCS Same-Spin Scale       =       0.3333333333333333 [-]
	 SCS Opposite-Spin Scale   =       1.2000000000000000 [-]
	 SCS Same-Spin Energy      =      -0.0753931445030003 [Eh]
	 SCS Opposite-Spin Energy  =      -0.9255060766679268 [Eh]
	 SCS Correlation Energy    =      -1.0008992211709271 [Eh]
	 SCS Total Energy          =    -554.7338659702661516 [Eh]
	-----------------------------------------------------------

  Dipole Moment: [D]
     X:     2.1188      Y:     0.0000      Z:     0.0014     Total:     2.1188

*** Psi4 exiting successfully. Buy a developer a beer!
