                               Psi4 1.3.2 release

  ==> Input File <==

--------------------------------------------------------------------------
#psi4
#
memory 32 gb

molecule  {
0 1
  S       -1.3055980     0.0000010    -0.0000040
  C        1.2766570     0.7093650     0.2807600
  C        1.2766500    -0.7093720    -0.2807680
  C        0.0786780     1.1924020    -0.1251837
  C       -0.0542340    -1.3297710     0.1396230
  H        1.3396290     0.6711660     1.3740810
  H        2.1212810     1.3027060    -0.0855190
  H        1.3396020    -0.6711730    -1.3740910
  H        2.1212770    -1.3027160     0.0854980
  H       -0.3428840     2.1673020     0.4996790
  H       -0.0077520     1.6828060    -1.1735290
  H       -0.3428960    -2.1673120    -0.4996450
  H       -0.0077460    -1.6827810     1.1735500
units angstrom
no_reorient  #important for SAPT in psi4, default
symmetry c1  #important for SAPT in psi4, default
}

set PROPERTIES_ORIGIN ["COM"]
properties('MP2/aug-cc-pvtz', properties = ['dipole'])
--------------------------------------------------------------------------

    Molecular point group: c1
  Charge       = 0
  Multiplicity = 1
  Basis Set: AUG-CC-PVTZ
    Blend: AUG-CC-PVTZ
  Basis Set: (AUG-CC-PVTZ AUX)
    Blend: AUG-CC-PVTZ-JKFIT

    Orbital Energies [Eh]
    ---------------------

    Doubly Occupied:

       1A    -91.937931     2A    -11.260491     3A    -11.252485
       4A    -11.234054     5A    -11.223189     6A     -8.938642
       7A     -6.619792     8A     -6.618871     9A     -6.617848
      10A     -1.153219    11A     -0.999241    12A     -0.962254
      13A     -0.797199    14A     -0.763947    15A     -0.660686
      16A     -0.657440    17A     -0.593745    18A     -0.546062
      19A     -0.513486    20A     -0.497380    21A     -0.462213
      22A     -0.451739    23A     -0.431730    24A     -0.326049

  @DF-RHF Final Energy:  -553.68961510303325

   => Energetics <=

    Nuclear Repulsion Energy =            238.0847693138323393
    One-Electron Energy =               -1232.5093801432797136
    Two-Electron Energy =                 440.7349957264141835
    Total Energy =                       -553.6896151030332476
  Basis Set: (AUG-CC-PVTZ AUX)
    Blend: AUG-CC-PVTZ-RI
    Molecular point group: c1

    Geometry (in Angstrom), charge = 0, multiplicity = 1:

       Center              X                  Y                   Z               Mass
    ------------   -----------------  -----------------  -----------------  -----------------
         S           -1.254022031030     0.018726372819    -0.001969951559    31.972071174400
         C            1.328232968970     0.728090372819     0.278794048441    12.000000000000
         C            1.328225968970    -0.690646627181    -0.282733951559    12.000000000000
         C            0.130253968970     1.211127372819    -0.127149651559    12.000000000000
         C           -0.002658031030    -1.311045627181     0.137657048441    12.000000000000
         H            1.391204968970     0.689891372819     1.372115048441     1.007825032230
         H            2.172856968970     1.321431372819    -0.087484951559     1.007825032230
         H            1.391177968970    -0.652447627181    -1.376056951559     1.007825032230
         H            2.172852968970    -1.283990627181     0.083532048441     1.007825032230
         H           -0.291308031030     2.186027372819     0.497713048441     1.007825032230
         H            0.043823968970     1.701531372819    -1.175494951559     1.007825032230
         H           -0.291320031030    -2.148586627181    -0.501610951559     1.007825032230
         H            0.043829968970    -1.664055627181     1.171584048441     1.007825032230

  Basis Set: AUG-CC-PVTZ
    Blend: AUG-CC-PVTZ
  Basis Set: (AUG-CC-PVTZ AUX)
    Blend: AUG-CC-PVTZ-JKFIT
	 Reference Energy          =    -553.6896151030332476 [Eh]
	 Singles Energy            =      -0.0000000000000000 [Eh]
	 Same-Spin Energy          =      -0.2290781354059084 [Eh]
	 Opposite-Spin Energy      =      -0.7753453753258872 [Eh]
	 Correlation Energy        =      -1.0044235107317956 [Eh]
	 Total Energy              =    -554.6940386137650876 [Eh]

	 ================> DF-SCS-MP2 Energies <==================
	-----------------------------------------------------------
	 SCS Same-Spin Scale       =       0.3333333333333333 [-]
	 SCS Opposite-Spin Scale   =       1.2000000000000000 [-]
	 SCS Same-Spin Energy      =      -0.0763593784686361 [Eh]
	 SCS Opposite-Spin Energy  =      -0.9304144503910646 [Eh]
	 SCS Correlation Energy    =      -1.0067738288597008 [Eh]
	 SCS Total Energy          =    -554.6963889318928977 [Eh]
	-----------------------------------------------------------

  Dipole Moment: [D]
     X:     2.0999      Y:    -0.1154      Z:    -0.0140     Total:     2.1031

*** Psi4 exiting successfully. Buy a developer a beer!
