                               Psi4 1.3.2 release

  ==> Input File <==

--------------------------------------------------------------------------
#psi4
#
memory 32 gb

molecule  {
0 1
  S       -1.2595465    -0.0397356     0.0196492
  C        1.2766570     0.7093650     0.2807600
  C        1.2766500    -0.7093720    -0.2807680
  C       -0.0542300     1.3297750    -0.1396080
  C       -0.0542340    -1.3297710     0.1396230
  H        1.3396290     0.6711660     1.3740810
  H        2.1212810     1.3027060    -0.0855190
  H        1.3396020    -0.6711730    -1.3740910
  H        2.1212770    -1.3027160     0.0854980
  H       -0.3428840     2.1673020     0.4996790
  H       -0.0077520     1.6828060    -1.1735290
  H       -0.3428960    -2.1673120    -0.4996450
  H       -0.0077460    -1.6827810     1.1735500
units angstrom
no_reorient  #important for SAPT in psi4, default
symmetry c1  #important for SAPT in psi4, default
}

set PROPERTIES_ORIGIN ["COM"]
properties('MP2/aug-cc-pvtz', properties = ['dipole'])
--------------------------------------------------------------------------

    Molecular point group: c1
  Charge       = 0
  Multiplicity = 1
  Basis Set: AUG-CC-PVTZ
    Blend: AUG-CC-PVTZ
  Basis Set: (AUG-CC-PVTZ AUX)
    Blend: AUG-CC-PVTZ-JKFIT

    Orbital Energies [Eh]
    ---------------------

    Doubly Occupied:

       1A    -91.932217     2A    -11.252858     3A    -11.247525
       4A    -11.233105     5A    -11.232465     6A     -8.934200
       7A     -6.615467     8A     -6.614683     9A     -6.613623
      10A     -1.132684    11A     -0.987238    12A     -0.967370
      13A     -0.794311    14A     -0.777506    15A     -0.657101
      16A     -0.638966    17A     -0.596989    18A     -0.547168
      19A     -0.507129    20A     -0.490599    21A     -0.482983
      22A     -0.480730    23A     -0.418268    24A     -0.327813

  @DF-RHF Final Energy:  -553.73181279622986

   => Energetics <=

    Nuclear Repulsion Energy =            237.4174486960904744
    One-Electron Energy =               -1231.3325221443669761
    Two-Electron Energy =                 440.1832606520466697
    Total Energy =                       -553.7318127962298604
  Basis Set: (AUG-CC-PVTZ AUX)
    Blend: AUG-CC-PVTZ-RI
    Molecular point group: c1

    Geometry (in Angstrom), charge = 0, multiplicity = 1:

       Center              X                  Y                   Z               Mass
    ------------   -----------------  -----------------  -----------------  -----------------
         S           -1.206578645738    -0.025304155816     0.012511855151    31.972071174400
         C            1.329624854262     0.723796444184     0.273622655151    12.000000000000
         C            1.329617854262    -0.694940555816    -0.287905344849    12.000000000000
         C           -0.001262145738     1.344206444184    -0.146745344849    12.000000000000
         C           -0.001266145738    -1.315339555816     0.132485655151    12.000000000000
         H            1.392596854262     0.685597444184     1.366943655151     1.007825032230
         H            2.174248854262     1.317137444184    -0.092656344849     1.007825032230
         H            1.392569854262    -0.656741555816    -1.381228344849     1.007825032230
         H            2.174244854262    -1.288284555816     0.078360655151     1.007825032230
         H           -0.289916145738     2.181733444184     0.492541655151     1.007825032230
         H            0.045215854262     1.697237444184    -1.180666344849     1.007825032230
         H           -0.289928145738    -2.152880555816    -0.506782344849     1.007825032230
         H            0.045221854262    -1.668349555816     1.166412655151     1.007825032230

  Basis Set: AUG-CC-PVTZ
    Blend: AUG-CC-PVTZ
  Basis Set: (AUG-CC-PVTZ AUX)
    Blend: AUG-CC-PVTZ-JKFIT
	 Reference Energy          =    -553.7318127962298604 [Eh]
	 Singles Energy            =      -0.0000000000000000 [Eh]
	 Same-Spin Energy          =      -0.2265446366647878 [Eh]
	 Opposite-Spin Energy      =      -0.7710424556197142 [Eh]
	 Correlation Energy        =      -0.9975870922845020 [Eh]
	 Total Energy              =    -554.7293998885143083 [Eh]

	 ================> DF-SCS-MP2 Energies <==================
	-----------------------------------------------------------
	 SCS Same-Spin Scale       =       0.3333333333333333 [-]
	 SCS Opposite-Spin Scale   =       1.2000000000000000 [-]
	 SCS Same-Spin Energy      =      -0.0755148788882626 [Eh]
	 SCS Opposite-Spin Energy  =      -0.9252509467436569 [Eh]
	 SCS Correlation Energy    =      -1.0007658256319196 [Eh]
	 SCS Total Energy          =    -554.7325786218617623 [Eh]
	-----------------------------------------------------------

  Dipole Moment: [D]
     X:     2.0942      Y:     0.0321      Z:    -0.0199     Total:     2.0945

*** Psi4 exiting successfully. Buy a developer a beer!
