                               Psi4 1.3.2 release

  ==> Input File <==

--------------------------------------------------------------------------
#psi4
#
memory 32 gb

molecule  {
0 1
  S       -1.3055980     0.0000010    -0.0000040
  C        1.2766570     0.7093650     0.2807600
  C        1.2766500    -0.7093720    -0.2807680
  C       -0.2008482     1.4525788    -0.1525028
  C       -0.0542340    -1.3297710     0.1396230
  H        1.3396290     0.6711660     1.3740810
  H        2.1212810     1.3027060    -0.0855190
  H        1.3396020    -0.6711730    -1.3740910
  H        2.1212770    -1.3027160     0.0854980
  H       -0.3428840     2.1673020     0.4996790
  H       -0.0077520     1.6828060    -1.1735290
  H       -0.3428960    -2.1673120    -0.4996450
  H       -0.0077460    -1.6827810     1.1735500
units angstrom
no_reorient  #important for SAPT in psi4, default
symmetry c1  #important for SAPT in psi4, default
}

set PROPERTIES_ORIGIN ["COM"]
properties('MP2/aug-cc-pvtz', properties = ['dipole'])
--------------------------------------------------------------------------

    Molecular point group: c1
  Charge       = 0
  Multiplicity = 1
  Basis Set: AUG-CC-PVTZ
    Blend: AUG-CC-PVTZ
  Basis Set: (AUG-CC-PVTZ AUX)
    Blend: AUG-CC-PVTZ-JKFIT

    Orbital Energies [Eh]
    ---------------------

    Doubly Occupied:

       1A    -91.936318     2A    -11.253669     3A    -11.250828
       4A    -11.241946     5A    -11.234375     6A     -8.936586
       7A     -6.617765     8A     -6.617121     9A     -6.616121
      10A     -1.113040    11A     -0.983332    12A     -0.960180
      13A     -0.802150    14A     -0.782484    15A     -0.659474
      16A     -0.629912    17A     -0.606878    18A     -0.558116
      19A     -0.500517    20A     -0.492303    21A     -0.487351
      22A     -0.460283    23A     -0.402416    24A     -0.331203

  @DF-RHF Final Energy:  -553.70445524200227

   => Energetics <=

    Nuclear Repulsion Energy =            233.4331222454269152
    One-Electron Energy =               -1223.3264168813070683
    Two-Electron Energy =                 436.1888393938779132
    Total Energy =                       -553.7044552420022683
  Basis Set: (AUG-CC-PVTZ AUX)
    Blend: AUG-CC-PVTZ-RI
    Molecular point group: c1

    Geometry (in Angstrom), charge = 0, multiplicity = 1:

       Center              X                  Y                   Z               Mass
    ------------   -----------------  -----------------  -----------------  -----------------
         S           -1.215919833959    -0.016738308871     0.001753913081    31.972071174400
         C            1.366335166041     0.692625691129     0.282517913081    12.000000000000
         C            1.366328166041    -0.726111308871    -0.279010086919    12.000000000000
         C           -0.111170033959     1.435839491129    -0.150744886919    12.000000000000
         C            0.035444166041    -1.346510308871     0.141380913081    12.000000000000
         H            1.429307166041     0.654426691129     1.375838913081     1.007825032230
         H            2.210959166041     1.285966691129    -0.083761086919     1.007825032230
         H            1.429280166041    -0.687912308871    -1.372333086919     1.007825032230
         H            2.210955166041    -1.319455308871     0.087255913081     1.007825032230
         H           -0.253205833959     2.150562691129     0.501436913081     1.007825032230
         H            0.081926166041     1.666066691129    -1.171771086919     1.007825032230
         H           -0.253217833959    -2.184051308871    -0.497887086919     1.007825032230
         H            0.081932166041    -1.699520308871     1.175307913081     1.007825032230

  Basis Set: AUG-CC-PVTZ
    Blend: AUG-CC-PVTZ
  Basis Set: (AUG-CC-PVTZ AUX)
    Blend: AUG-CC-PVTZ-JKFIT
	 Reference Energy          =    -553.7044552420022683 [Eh]
	 Singles Energy            =      -0.0000000000000000 [Eh]
	 Same-Spin Energy          =      -0.2257879786879752 [Eh]
	 Opposite-Spin Energy      =      -0.7720902659292670 [Eh]
	 Correlation Energy        =      -0.9978782446172422 [Eh]
	 Total Energy              =    -554.7023334866195228 [Eh]

	 ================> DF-SCS-MP2 Energies <==================
	-----------------------------------------------------------
	 SCS Same-Spin Scale       =       0.3333333333333333 [-]
	 SCS Opposite-Spin Scale   =       1.2000000000000000 [-]
	 SCS Same-Spin Energy      =      -0.0752626595626584 [Eh]
	 SCS Opposite-Spin Energy  =      -0.9265083191151203 [Eh]
	 SCS Correlation Energy    =      -1.0017709786777786 [Eh]
	 SCS Total Energy          =    -554.7062262206800369 [Eh]
	-----------------------------------------------------------

  Dipole Moment: [D]
     X:     2.2146      Y:    -0.0136      Z:     0.0103     Total:     2.2147

*** Psi4 exiting successfully. Buy a developer a beer!
