                               Psi4 1.3.2 release

  ==> Input File <==

--------------------------------------------------------------------------
#psi4
#
memory 32 gb

molecule  {
0 1
  S       -1.3055980     0.0000010    -0.0000040
  C        1.2766570     0.7093650     0.2807600
  C        1.2766500    -0.7093720    -0.2807680
  C       -0.0542300     1.3297750    -0.1396080
  C       -0.0542340    -1.3297710     0.1396230
  H        1.3338823     0.6746519     1.2743071
  H        2.1212810     1.3027060    -0.0855190
  H        1.3396020    -0.6711730    -1.3740910
  H        2.1212770    -1.3027160     0.0854980
  H       -0.3428840     2.1673020     0.4996790
  H       -0.0077520     1.6828060    -1.1735290
  H       -0.3428960    -2.1673120    -0.4996450
  H       -0.0077460    -1.6827810     1.1735500
units angstrom
no_reorient  #important for SAPT in psi4, default
symmetry c1  #important for SAPT in psi4, default
}

set PROPERTIES_ORIGIN ["COM"]
properties('MP2/aug-cc-pvtz', properties = ['dipole'])
--------------------------------------------------------------------------

    Molecular point group: c1
  Charge       = 0
  Multiplicity = 1
  Basis Set: AUG-CC-PVTZ
    Blend: AUG-CC-PVTZ
  Basis Set: (AUG-CC-PVTZ AUX)
    Blend: AUG-CC-PVTZ-JKFIT

    Orbital Energies [Eh]
    ---------------------

    Doubly Occupied:

       1A    -91.935349     2A    -11.252235     3A    -11.251555
       4A    -11.232136     5A    -11.220447     6A     -8.936030
       7A     -6.617204     8A     -6.616428     9A     -6.615426
      10A     -1.128425    11A     -0.984875    12A     -0.967336
      13A     -0.802205    14A     -0.779514    15A     -0.658730
      16A     -0.637528    17A     -0.599042    18A     -0.550277
      19A     -0.502742    20A     -0.491205    21A     -0.485379
      22A     -0.476064    23A     -0.420635    24A     -0.329780

  @DF-RHF Final Energy:  -553.72758807258015

   => Energetics <=

    Nuclear Repulsion Energy =            236.0658080582866205
    One-Electron Energy =               -1228.6057024012698093
    Two-Electron Energy =                 438.8123062704030417
    Total Energy =                       -553.7275880725801471
  Basis Set: (AUG-CC-PVTZ AUX)
    Blend: AUG-CC-PVTZ-RI
    Molecular point group: c1

    Geometry (in Angstrom), charge = 0, multiplicity = 1:

       Center              X                  Y                   Z               Mass
    ------------   -----------------  -----------------  -----------------  -----------------
         S           -1.235839562213    -0.000038838096     0.001138440050    31.972071174400
         C            1.346415437787     0.709325161904     0.281902440050    12.000000000000
         C            1.346408437787    -0.709411838096    -0.279625559950    12.000000000000
         C            0.015528437787     1.329735161904    -0.138465559950    12.000000000000
         C            0.015524437787    -1.329810838096     0.140765440050    12.000000000000
         H            1.403640737787     0.674612061904     1.275449540050     1.007825032230
         H            2.191039437787     1.302666161904    -0.084376559950     1.007825032230
         H            1.409360437787    -0.671212838096    -1.372948559950     1.007825032230
         H            2.191035437787    -1.302755838096     0.086640440050     1.007825032230
         H           -0.273125562213     2.167262161904     0.500821440050     1.007825032230
         H            0.062006437787     1.682766161904    -1.172386559950     1.007825032230
         H           -0.273137562213    -2.167351838096    -0.498502559950     1.007825032230
         H            0.062012437787    -1.682820838096     1.174692440050     1.007825032230

  Basis Set: AUG-CC-PVTZ
    Blend: AUG-CC-PVTZ
  Basis Set: (AUG-CC-PVTZ AUX)
    Blend: AUG-CC-PVTZ-JKFIT
	 Reference Energy          =    -553.7275880725801471 [Eh]
	 Singles Energy            =      -0.0000000000000000 [Eh]
	 Same-Spin Energy          =      -0.2260684505999038 [Eh]
	 Opposite-Spin Energy      =      -0.7706861425660818 [Eh]
	 Correlation Energy        =      -0.9967545931659856 [Eh]
	 Total Energy              =    -554.7243426657461214 [Eh]

	 ================> DF-SCS-MP2 Energies <==================
	-----------------------------------------------------------
	 SCS Same-Spin Scale       =       0.3333333333333333 [-]
	 SCS Opposite-Spin Scale   =       1.2000000000000000 [-]
	 SCS Same-Spin Energy      =      -0.0753561501999679 [Eh]
	 SCS Opposite-Spin Energy  =      -0.9248233710792981 [Eh]
	 SCS Correlation Energy    =      -1.0001795212792661 [Eh]
	 SCS Total Energy          =    -554.7277675938594257 [Eh]
	-----------------------------------------------------------

  Dipole Moment: [D]
     X:     2.1317      Y:     0.0056      Z:     0.0487     Total:     2.1322

*** Psi4 exiting successfully. Buy a developer a beer!
