                               Psi4 1.3.2 release

  ==> Input File <==

--------------------------------------------------------------------------
#psi4
#
memory 32 gb

molecule  {
0 1
  S       -1.3055980     0.0000010    -0.0000040
  C        1.2766570     0.7093650     0.2807600
  C        1.2766500    -0.7093720    -0.2807680
  C       -0.0542300     1.3297750    -0.1396080
  C       -0.0542340    -1.3297710     0.1396230
  H        1.3396290     0.6711660     1.3740810
  H        2.1212810     1.3027060    -0.0855190
  H        1.3396020    -0.6711730    -1.3740910
  H        2.1212770    -1.3027160     0.0854980
  H       -0.3693065     2.2439666     0.5581973
  H       -0.0077520     1.6828060    -1.1735290
  H       -0.3428960    -2.1673120    -0.4996450
  H       -0.0077460    -1.6827810     1.1735500
units angstrom
no_reorient  #important for SAPT in psi4, default
symmetry c1  #important for SAPT in psi4, default
}

set PROPERTIES_ORIGIN ["COM"]
properties('MP2/aug-cc-pvtz', properties = ['dipole'])
--------------------------------------------------------------------------

    Molecular point group: c1
  Charge       = 0
  Multiplicity = 1
  Basis Set: AUG-CC-PVTZ
    Blend: AUG-CC-PVTZ
  Basis Set: (AUG-CC-PVTZ AUX)
    Blend: AUG-CC-PVTZ-JKFIT

    Orbital Energies [Eh]
    ---------------------

    Doubly Occupied:

       1A    -91.936607     2A    -11.263760     3A    -11.252993
       4A    -11.234155     5A    -11.233527     6A     -8.937230
       7A     -6.618391     8A     -6.617617     9A     -6.616608
      10A     -1.126355    11A     -0.980014    12A     -0.964706
      13A     -0.792063    14A     -0.774061    15A     -0.653064
      16A     -0.636089    17A     -0.593035    18A     -0.543221
      19A     -0.501128    20A     -0.489032    21A     -0.478705
      22A     -0.475377    23A     -0.421977    24A     -0.329932

  @DF-RHF Final Energy:  -553.72670172731409

   => Energetics <=

    Nuclear Repulsion Energy =            235.1030802874842891
    One-Electron Energy =               -1226.7202718763178382
    Two-Electron Energy =                 437.8904898615194270
    Total Energy =                       -553.7267017273140937
  Basis Set: (AUG-CC-PVTZ AUX)
    Blend: AUG-CC-PVTZ-RI
    Molecular point group: c1

    Geometry (in Angstrom), charge = 0, multiplicity = 1:

       Center              X                  Y                   Z               Mass
    ------------   -----------------  -----------------  -----------------  -----------------
         S           -1.235602864688    -0.000876591273    -0.000673696452    31.972071174400
         C            1.346652135312     0.708487408727     0.280090303548    12.000000000000
         C            1.346645135312    -0.710249591273    -0.281437696452    12.000000000000
         C            0.015765135312     1.328897408727    -0.140277696452    12.000000000000
         C            0.015761135312    -1.330648591273     0.138953303548    12.000000000000
         H            1.409624135312     0.670288408727     1.373411303548     1.007825032230
         H            2.191276135312     1.301828408727    -0.086188696452     1.007825032230
         H            1.409597135312    -0.672050591273    -1.374760696452     1.007825032230
         H            2.191272135312    -1.303593591273     0.084828303548     1.007825032230
         H           -0.299311364688     2.243089008727     0.557527603548     1.007825032230
         H            0.062243135312     1.681928408727    -1.174198696452     1.007825032230
         H           -0.272900864688    -2.168189591273    -0.500314696452     1.007825032230
         H            0.062249135312    -1.683658591273     1.172880303548     1.007825032230

  Basis Set: AUG-CC-PVTZ
    Blend: AUG-CC-PVTZ
  Basis Set: (AUG-CC-PVTZ AUX)
    Blend: AUG-CC-PVTZ-JKFIT
	 Reference Energy          =    -553.7267017273140937 [Eh]
	 Singles Energy            =      -0.0000000000000000 [Eh]
	 Same-Spin Energy          =      -0.2261785420627775 [Eh]
	 Opposite-Spin Energy      =      -0.7719707778542495 [Eh]
	 Correlation Energy        =      -0.9981493199170269 [Eh]
	 Total Energy              =    -554.7248510472311409 [Eh]

	 ================> DF-SCS-MP2 Energies <==================
	-----------------------------------------------------------
	 SCS Same-Spin Scale       =       0.3333333333333333 [-]
	 SCS Opposite-Spin Scale   =       1.2000000000000000 [-]
	 SCS Same-Spin Energy      =      -0.0753928473542591 [Eh]
	 SCS Opposite-Spin Energy  =      -0.9263649334250994 [Eh]
	 SCS Correlation Energy    =      -1.0017577807793585 [Eh]
	 SCS Total Energy          =    -554.7284595080934650 [Eh]
	-----------------------------------------------------------

  Dipole Moment: [D]
     X:     2.1224      Y:    -0.0625      Z:    -0.0099     Total:     2.1234

*** Psi4 exiting successfully. Buy a developer a beer!
