                               Psi4 1.3.2 release

  ==> Input File <==

--------------------------------------------------------------------------
#psi4
#
memory 32 gb

molecule  {
0 1
  S       -1.3055980     0.0000010    -0.0000040
  C        1.2766570     0.7093650     0.2807600
  C        1.3249309    -0.7167745    -0.2595401
  C       -0.0542300     1.3297750    -0.1396080
  C       -0.0542340    -1.3297710     0.1396230
  H        1.3396290     0.6711660     1.3740810
  H        2.1212810     1.3027060    -0.0855190
  H        1.3396020    -0.6711730    -1.3740910
  H        2.1212770    -1.3027160     0.0854980
  H       -0.3428840     2.1673020     0.4996790
  H       -0.0077520     1.6828060    -1.1735290
  H       -0.3428960    -2.1673120    -0.4996450
  H       -0.0077460    -1.6827810     1.1735500
units angstrom
no_reorient  #important for SAPT in psi4, default
symmetry c1  #important for SAPT in psi4, default
}

set PROPERTIES_ORIGIN ["COM"]
properties('MP2/aug-cc-pvtz', properties = ['dipole'])
--------------------------------------------------------------------------

    Molecular point group: c1
  Charge       = 0
  Multiplicity = 1
  Basis Set: AUG-CC-PVTZ
    Blend: AUG-CC-PVTZ
  Basis Set: (AUG-CC-PVTZ AUX)
    Blend: AUG-CC-PVTZ-JKFIT

    Orbital Energies [Eh]
    ---------------------

    Doubly Occupied:

       1A    -91.936202     2A    -11.253283     3A    -11.253102
       4A    -11.233447     5A    -11.232552     6A     -8.936765
       7A     -6.617957     8A     -6.617152     9A     -6.616161
      10A     -1.122822    11A     -0.980348    12A     -0.966973
      13A     -0.794070    14A     -0.779180    15A     -0.657620
      16A     -0.637835    17A     -0.593889    18A     -0.544254
      19A     -0.507587    20A     -0.487442    21A     -0.478356
      22A     -0.475482    23A     -0.422272    24A     -0.329787

  @DF-RHF Final Energy:  -553.73061289342729

   => Energetics <=

    Nuclear Repulsion Energy =            234.9351314659144236
    One-Electron Energy =               -1226.3824101666605202
    Two-Electron Energy =                 437.7166658073188046
    Total Energy =                       -553.7306128934272920
  Basis Set: (AUG-CC-PVTZ AUX)
    Blend: AUG-CC-PVTZ-RI
    Molecular point group: c1

    Geometry (in Angstrom), charge = 0, multiplicity = 1:

       Center              X                  Y                   Z               Mass
    ------------   -----------------  -----------------  -----------------  -----------------
         S           -1.242486516857     0.001010102915    -0.002897349806    31.972071174400
         C            1.339768483143     0.710374102915     0.277866650194    12.000000000000
         C            1.388042383143    -0.715765397085    -0.262433449806    12.000000000000
         C            0.008881483143     1.330784102915    -0.142501349806    12.000000000000
         C            0.008877483143    -1.328761897085     0.136729650194    12.000000000000
         H            1.402740483143     0.672175102915     1.371187650194     1.007825032230
         H            2.184392483143     1.303715102915    -0.088412349806     1.007825032230
         H            1.402713483143    -0.670163897085    -1.376984349806     1.007825032230
         H            2.184388483143    -1.301706897085     0.082604650194     1.007825032230
         H           -0.279772516857     2.168311102915     0.496785650194     1.007825032230
         H            0.055359483143     1.683815102915    -1.176422349806     1.007825032230
         H           -0.279784516857    -2.166302897085    -0.502538349806     1.007825032230
         H            0.055365483143    -1.681771897085     1.170656650194     1.007825032230

  Basis Set: AUG-CC-PVTZ
    Blend: AUG-CC-PVTZ
  Basis Set: (AUG-CC-PVTZ AUX)
    Blend: AUG-CC-PVTZ-JKFIT
	 Reference Energy          =    -553.7306128934272920 [Eh]
	 Singles Energy            =      -0.0000000000000000 [Eh]
	 Same-Spin Energy          =      -0.2258876282392374 [Eh]
	 Opposite-Spin Energy      =      -0.7711802552990803 [Eh]
	 Correlation Energy        =      -0.9970678835383178 [Eh]
	 Total Energy              =    -554.7276807769655989 [Eh]

	 ================> DF-SCS-MP2 Energies <==================
	-----------------------------------------------------------
	 SCS Same-Spin Scale       =       0.3333333333333333 [-]
	 SCS Opposite-Spin Scale   =       1.2000000000000000 [-]
	 SCS Same-Spin Energy      =      -0.0752958760797458 [Eh]
	 SCS Opposite-Spin Energy  =      -0.9254163063588963 [Eh]
	 SCS Correlation Energy    =      -1.0007121824386420 [Eh]
	 SCS Total Energy          =    -554.7313250758659251 [Eh]
	-----------------------------------------------------------

  Dipole Moment: [D]
     X:     2.1151      Y:     0.0079      Z:     0.0180     Total:     2.1152

*** Psi4 exiting successfully. Buy a developer a beer!
