                               Psi4 1.3.2 release

  ==> Input File <==

--------------------------------------------------------------------------
#psi4
#
memory 32 gb

molecule  {
0 1
  S       -1.3055980     0.0000010    -0.0000040
  C        1.2766570     0.7093650     0.2807600
  C        1.2766500    -0.7093720    -0.2807680
  C       -0.0542300     1.3297750    -0.1396080
  C       -0.0542340    -1.3297710     0.1396230
  H        1.3396290     0.6711660     1.3740810
  H        2.1212810     1.3027060    -0.0855190
  H        1.3396020    -0.6711730    -1.3740910
  H        2.1212770    -1.3027160     0.0854980
  H       -0.3428840     2.1673020     0.4996790
  H       -0.0077520     1.6828060    -1.1735290
  H       -0.3428960    -2.1673120    -0.4996450
  H       -0.0077460    -1.6827810     1.1735500
units angstrom
no_reorient  #important for SAPT in psi4, default
symmetry c1  #important for SAPT in psi4, default
}

set PROPERTIES_ORIGIN ["COM"]
properties('MP2/aug-cc-pvtz', properties = ['dipole'])
--------------------------------------------------------------------------

    Molecular point group: c1
  Charge       = 0
  Multiplicity = 1
  Basis Set: AUG-CC-PVTZ
    Blend: AUG-CC-PVTZ
  Basis Set: (AUG-CC-PVTZ AUX)
    Blend: AUG-CC-PVTZ-JKFIT

    Orbital Energies [Eh]
    ---------------------

    Doubly Occupied:

       1A    -91.935594     2A    -11.252427     3A    -11.252417
       4A    -11.233380     5A    -11.232757     6A     -8.936272
       7A     -6.617446     8A     -6.616669     9A     -6.615664
      10A     -1.126581    11A     -0.983335    12A     -0.964884
      13A     -0.792582    14A     -0.779596    15A     -0.655515
      16A     -0.637955    17A     -0.596285    18A     -0.545406
      19A     -0.503429    20A     -0.490078    21A     -0.480475
      22A     -0.476497    23A     -0.421066    24A     -0.329979

  @DF-RHF Final Energy:  -553.73347970506529

   => Energetics <=

    Nuclear Repulsion Energy =            235.5738555628865925
    One-Electron Energy =               -1227.6620909055336597
    Two-Electron Energy =                 438.3547556375817749
    Total Energy =                       -553.7334797050652924
  Basis Set: (AUG-CC-PVTZ AUX)
    Blend: AUG-CC-PVTZ-RI
    Molecular point group: c1

    Geometry (in Angstrom), charge = 0, multiplicity = 1:

       Center              X                  Y                   Z               Mass
    ------------   -----------------  -----------------  -----------------  -----------------
         S           -1.235905350703     0.000001068650    -0.000003776219    31.972071174400
         C            1.346349649297     0.709365068650     0.280760223781    12.000000000000
         C            1.346342649297    -0.709371931350    -0.280767776219    12.000000000000
         C            0.015462649297     1.329775068650    -0.139607776219    12.000000000000
         C            0.015458649297    -1.329770931350     0.139623223781    12.000000000000
         H            1.409321649297     0.671166068650     1.374081223781     1.007825032230
         H            2.190973649297     1.302706068650    -0.085518776219     1.007825032230
         H            1.409294649297    -0.671172931350    -1.374090776219     1.007825032230
         H            2.190969649297    -1.302715931350     0.085498223781     1.007825032230
         H           -0.273191350703     2.167302068650     0.499679223781     1.007825032230
         H            0.061940649297     1.682806068650    -1.173528776219     1.007825032230
         H           -0.273203350703    -2.167311931350    -0.499644776219     1.007825032230
         H            0.061946649297    -1.682780931350     1.173550223781     1.007825032230

  Basis Set: AUG-CC-PVTZ
    Blend: AUG-CC-PVTZ
  Basis Set: (AUG-CC-PVTZ AUX)
    Blend: AUG-CC-PVTZ-JKFIT
	 Reference Energy          =    -553.7334797050652924 [Eh]
	 Singles Energy            =      -0.0000000000000000 [Eh]
	 Same-Spin Energy          =      -0.2260783406660430 [Eh]
	 Opposite-Spin Energy      =      -0.7711681827612444 [Eh]
	 Correlation Energy        =      -0.9972465234272874 [Eh]
	 Total Energy              =    -554.7307262284925855 [Eh]

	 ================> DF-SCS-MP2 Energies <==================
	-----------------------------------------------------------
	 SCS Same-Spin Scale       =       0.3333333333333333 [-]
	 SCS Opposite-Spin Scale   =       1.2000000000000000 [-]
	 SCS Same-Spin Energy      =      -0.0753594468886810 [Eh]
	 SCS Opposite-Spin Energy  =      -0.9254018193134933 [Eh]
	 SCS Correlation Energy    =      -1.0007612662021743 [Eh]
	 SCS Total Energy          =    -554.7342409712674680 [Eh]
	-----------------------------------------------------------

  Dipole Moment: [D]
     X:     2.1162      Y:    -0.0000      Z:     0.0000     Total:     2.1162

*** Psi4 exiting successfully. Buy a developer a beer!
