                               Psi4 1.3.2 release

  ==> Input File <==

--------------------------------------------------------------------------
#psi4
#
memory 32 gb

molecule  {
0 1
  S       -1.3055980     0.0000010    -0.0000040
  C        1.2766570     0.7093650     0.2807600
  C        1.2766500    -0.7093720    -0.2807680
  C        0.0824334     1.4750012    -0.1548543
  C       -0.0542340    -1.3297710     0.1396230
  H        1.3396290     0.6711660     1.3740810
  H        2.1212810     1.3027060    -0.0855190
  H        1.3396020    -0.6711730    -1.3740910
  H        2.1212770    -1.3027160     0.0854980
  H       -0.3428840     2.1673020     0.4996790
  H       -0.0077520     1.6828060    -1.1735290
  H       -0.3428960    -2.1673120    -0.4996450
  H       -0.0077460    -1.6827810     1.1735500
units angstrom
no_reorient  #important for SAPT in psi4, default
symmetry c1  #important for SAPT in psi4, default
}

set PROPERTIES_ORIGIN ["COM"]
properties('MP2/aug-cc-pvtz', properties = ['dipole'])
--------------------------------------------------------------------------

    Molecular point group: c1
  Charge       = 0
  Multiplicity = 1
  Basis Set: AUG-CC-PVTZ
    Blend: AUG-CC-PVTZ
  Basis Set: (AUG-CC-PVTZ AUX)
    Blend: AUG-CC-PVTZ-JKFIT

    Orbital Energies [Eh]
    ---------------------

    Doubly Occupied:

       1A    -91.928641     2A    -11.261264     3A    -11.250067
       4A    -11.236064     5A    -11.235446     6A     -8.927921
       7A     -6.608872     8A     -6.608148     9A     -6.607204
      10A     -1.122249    11A     -0.995871    12A     -0.949056
      13A     -0.801679    14A     -0.779899    15A     -0.667070
      16A     -0.633762    17A     -0.613898    18A     -0.553007
      19A     -0.523458    20A     -0.497082    21A     -0.485819
      22A     -0.452309    23A     -0.386197    24A     -0.327308

  @DF-RHF Final Energy:  -553.71335385699103

   => Energetics <=

    Nuclear Repulsion Energy =            232.9456693084050301
    One-Electron Energy =               -1222.4134650014025283
    Two-Electron Energy =                 435.7544418360064356
    Total Energy =                       -553.7133538569910343
  Basis Set: (AUG-CC-PVTZ AUX)
    Blend: AUG-CC-PVTZ-RI
    Molecular point group: c1

    Geometry (in Angstrom), charge = 0, multiplicity = 1:

       Center              X                  Y                   Z               Mass
    ------------   -----------------  -----------------  -----------------  -----------------
         S           -1.254533929345    -0.019794704670     0.002074445884    31.972071174400
         C            1.327721070655     0.689569295330     0.282838445884    12.000000000000
         C            1.327714070655    -0.729167704670    -0.278689554116    12.000000000000
         C            0.133497470655     1.455205495330    -0.152775854116    12.000000000000
         C           -0.003169929345    -1.349566704670     0.141701445884    12.000000000000
         H            1.390693070655     0.651370295330     1.376159445884     1.007825032230
         H            2.172345070655     1.282910295330    -0.083440554116     1.007825032230
         H            1.390666070655    -0.690968704670    -1.372012554116     1.007825032230
         H            2.172341070655    -1.322511704670     0.087576445884     1.007825032230
         H           -0.291819929345     2.147506295330     0.501757445884     1.007825032230
         H            0.043312070655     1.663010295330    -1.171450554116     1.007825032230
         H           -0.291831929345    -2.187107704670    -0.497566554116     1.007825032230
         H            0.043318070655    -1.702576704670     1.175628445884     1.007825032230

  Basis Set: AUG-CC-PVTZ
    Blend: AUG-CC-PVTZ
  Basis Set: (AUG-CC-PVTZ AUX)
    Blend: AUG-CC-PVTZ-JKFIT
	 Reference Energy          =    -553.7133538569910343 [Eh]
	 Singles Energy            =      -0.0000000000000000 [Eh]
	 Same-Spin Energy          =      -0.2263562224150500 [Eh]
	 Opposite-Spin Energy      =      -0.7724225989389776 [Eh]
	 Correlation Energy        =      -0.9987788213540276 [Eh]
	 Total Energy              =    -554.7121326783450286 [Eh]

	 ================> DF-SCS-MP2 Energies <==================
	-----------------------------------------------------------
	 SCS Same-Spin Scale       =       0.3333333333333333 [-]
	 SCS Opposite-Spin Scale   =       1.2000000000000000 [-]
	 SCS Same-Spin Energy      =      -0.0754520741383500 [Eh]
	 SCS Opposite-Spin Energy  =      -0.9269071187267730 [Eh]
	 SCS Correlation Energy    =      -1.0023591928651230 [Eh]
	 SCS Total Energy          =    -554.7157130498561628 [Eh]
	-----------------------------------------------------------

  Dipole Moment: [D]
     X:     2.3215      Y:     0.1853      Z:    -0.0246     Total:     2.3290

*** Psi4 exiting successfully. Buy a developer a beer!
