                               Psi4 1.3.2 release

  ==> Input File <==

--------------------------------------------------------------------------
#psi4
#
memory 32 gb

molecule  {
0 1
  S       -1.3055980     0.0000010    -0.0000040
  C        1.2766570     0.7093650     0.2807600
  C        1.2766500    -0.7093720    -0.2807680
  C       -0.0542300     1.3297750    -0.1396080
  C       -0.0542340    -1.3297710     0.1396230
  H        1.3396290     0.6711660     1.3740810
  H        2.1212810     1.3027060    -0.0855190
  H        1.3396020    -0.6711730    -1.3740910
  H        2.1212770    -1.3027160     0.0854980
  H       -0.2900390     2.0139728     0.3826424
  H       -0.0077520     1.6828060    -1.1735290
  H       -0.3428960    -2.1673120    -0.4996450
  H       -0.0077460    -1.6827810     1.1735500
units angstrom
no_reorient  #important for SAPT in psi4, default
symmetry c1  #important for SAPT in psi4, default
}

set PROPERTIES_ORIGIN ["COM"]
properties('MP2/aug-cc-pvtz', properties = ['dipole'])
--------------------------------------------------------------------------

    Molecular point group: c1
  Charge       = 0
  Multiplicity = 1
  Basis Set: AUG-CC-PVTZ
    Blend: AUG-CC-PVTZ
  Basis Set: (AUG-CC-PVTZ AUX)
    Blend: AUG-CC-PVTZ-JKFIT

    Orbital Energies [Eh]
    ---------------------

    Doubly Occupied:

       1A    -91.934566     2A    -11.251891     3A    -11.232530
       4A    -11.231894     5A    -11.228519     6A     -8.935292
       7A     -6.616485     8A     -6.615705     9A     -6.614711
      10A     -1.129608    11A     -0.997707    12A     -0.965431
      13A     -0.805742    14A     -0.787334    15A     -0.665653
      16A     -0.640732    17A     -0.602330    18A     -0.550248
      19A     -0.509077    20A     -0.491748    21A     -0.482051
      22A     -0.476407    23A     -0.420059    24A     -0.330489

  @DF-RHF Final Energy:  -553.69976990494229

   => Energetics <=

    Nuclear Repulsion Energy =            236.7038357612452444
    One-Electron Energy =               -1229.7747900693004794
    Two-Electron Energy =                 439.3711844031128635
    Total Energy =                       -553.6997699049422863
  Basis Set: (AUG-CC-PVTZ AUX)
    Blend: AUG-CC-PVTZ-RI
    Molecular point group: c1

    Geometry (in Angstrom), charge = 0, multiplicity = 1:

       Center              X                  Y                   Z               Mass
    ------------   -----------------  -----------------  -----------------  -----------------
         S           -1.236510322732     0.001756388496     0.001336064247    31.972071174400
         C            1.345744677268     0.711120388496     0.282100064247    12.000000000000
         C            1.345737677268    -0.707616611504    -0.279427935753    12.000000000000
         C            0.014857677268     1.331530388496    -0.138267935753    12.000000000000
         C            0.014853677268    -1.328015611504     0.140963064247    12.000000000000
         H            1.408716677268     0.672921388496     1.375421064247     1.007825032230
         H            2.190368677268     1.304461388496    -0.084178935753     1.007825032230
         H            1.408689677268    -0.669417611504    -1.372750935753     1.007825032230
         H            2.190364677268    -1.300960611504     0.086838064247     1.007825032230
         H           -0.220951322732     2.015728188496     0.383982464247     1.007825032230
         H            0.061335677268     1.684561388496    -1.172188935753     1.007825032230
         H           -0.273808322732    -2.165556611504    -0.498304935753     1.007825032230
         H            0.061341677268    -1.681025611504     1.174890064247     1.007825032230

  Basis Set: AUG-CC-PVTZ
    Blend: AUG-CC-PVTZ
  Basis Set: (AUG-CC-PVTZ AUX)
    Blend: AUG-CC-PVTZ-JKFIT
	 Reference Energy          =    -553.6997699049422863 [Eh]
	 Singles Energy            =      -0.0000000000000000 [Eh]
	 Same-Spin Energy          =      -0.2260071810336290 [Eh]
	 Opposite-Spin Energy      =      -0.7704943186656854 [Eh]
	 Correlation Energy        =      -0.9965014996993145 [Eh]
	 Total Energy              =    -554.6962714046416068 [Eh]

	 ================> DF-SCS-MP2 Energies <==================
	-----------------------------------------------------------
	 SCS Same-Spin Scale       =       0.3333333333333333 [-]
	 SCS Opposite-Spin Scale   =       1.2000000000000000 [-]
	 SCS Same-Spin Energy      =      -0.0753357270112097 [Eh]
	 SCS Opposite-Spin Energy  =      -0.9245931823988225 [Eh]
	 SCS Correlation Energy    =      -0.9999289094100322 [Eh]
	 SCS Total Energy          =    -554.6996988143523595 [Eh]
	-----------------------------------------------------------

  Dipole Moment: [D]
     X:     2.1106      Y:     0.0618      Z:    -0.0024     Total:     2.1115

*** Psi4 exiting successfully. Buy a developer a beer!
