                               Psi4 1.3.2 release

  ==> Input File <==

--------------------------------------------------------------------------
#psi4
#
memory 32 gb

molecule  {
0 1
  S       -1.3055980     0.0000010    -0.0000040
  C        1.2766570     0.7093650     0.2807600
  C        1.2525059    -0.7050219    -0.2911270
  C       -0.0542300     1.3297750    -0.1396080
  C       -0.0542340    -1.3297710     0.1396230
  H        1.3396290     0.6711660     1.3740810
  H        2.1212810     1.3027060    -0.0855190
  H        1.3396020    -0.6711730    -1.3740910
  H        2.1212770    -1.3027160     0.0854980
  H       -0.3428840     2.1673020     0.4996790
  H       -0.0077520     1.6828060    -1.1735290
  H       -0.3428960    -2.1673120    -0.4996450
  H       -0.0077460    -1.6827810     1.1735500
units angstrom
no_reorient  #important for SAPT in psi4, default
symmetry c1  #important for SAPT in psi4, default
}

set PROPERTIES_ORIGIN ["COM"]
properties('MP2/aug-cc-pvtz', properties = ['dipole'])
--------------------------------------------------------------------------

    Molecular point group: c1
  Charge       = 0
  Multiplicity = 1
  Basis Set: AUG-CC-PVTZ
    Blend: AUG-CC-PVTZ
  Basis Set: (AUG-CC-PVTZ AUX)
    Blend: AUG-CC-PVTZ-JKFIT

    Orbital Energies [Eh]
    ---------------------

    Doubly Occupied:

       1A    -91.935335     2A    -11.252164     3A    -11.252066
       4A    -11.233728     5A    -11.232939     6A     -8.936074
       7A     -6.617238     8A     -6.616476     9A     -6.615464
      10A     -1.128689    11A     -0.985038    12A     -0.963894
      13A     -0.792322    14A     -0.779855    15A     -0.655355
      16A     -0.637566    17A     -0.597446    18A     -0.546323
      19A     -0.505954    20A     -0.488330    21A     -0.481940
      22A     -0.474384    23A     -0.420139    24A     -0.330117

  @DF-RHF Final Energy:  -553.73252692476672

   => Energetics <=

    Nuclear Repulsion Energy =            235.9003782482727445
    One-Electron Energy =               -1228.3081424652420992
    Two-Electron Energy =                 438.6752372922026666
    Total Energy =                       -553.7325269247667165
  Basis Set: (AUG-CC-PVTZ AUX)
    Blend: AUG-CC-PVTZ-RI
    Molecular point group: c1

    Geometry (in Angstrom), charge = 0, multiplicity = 1:

       Center              X                  Y                   Z               Mass
    ------------   -----------------  -----------------  -----------------  -----------------
         S           -1.232614270095    -0.000591893181     0.001408258358    31.972071174400
         C            1.349640729905     0.708772106819     0.282172258358    12.000000000000
         C            1.325489629905    -0.705614793181    -0.289714741642    12.000000000000
         C            0.018753729905     1.329182106819    -0.138195741642    12.000000000000
         C            0.018749729905    -1.330363893181     0.141035258358    12.000000000000
         H            1.412612729905     0.670573106819     1.375493258358     1.007825032230
         H            2.194264729905     1.302113106819    -0.084106741642     1.007825032230
         H            1.412585729905    -0.671765893181    -1.372678741642     1.007825032230
         H            2.194260729905    -1.303308893181     0.086910258358     1.007825032230
         H           -0.269900270095     2.166709106819     0.501091258358     1.007825032230
         H            0.065231729905     1.682213106819    -1.172116741642     1.007825032230
         H           -0.269912270095    -2.167904893181    -0.498232741642     1.007825032230
         H            0.065237729905    -1.683373893181     1.174962258358     1.007825032230

  Basis Set: AUG-CC-PVTZ
    Blend: AUG-CC-PVTZ
  Basis Set: (AUG-CC-PVTZ AUX)
    Blend: AUG-CC-PVTZ-JKFIT
	 Reference Energy          =    -553.7325269247667165 [Eh]
	 Singles Energy            =      -0.0000000000000000 [Eh]
	 Same-Spin Energy          =      -0.2262355746610298 [Eh]
	 Opposite-Spin Energy      =      -0.7712983139060018 [Eh]
	 Correlation Energy        =      -0.9975338885670316 [Eh]
	 Total Energy              =    -554.7300608133336937 [Eh]

	 ================> DF-SCS-MP2 Energies <==================
	-----------------------------------------------------------
	 SCS Same-Spin Scale       =       0.3333333333333333 [-]
	 SCS Opposite-Spin Scale   =       1.2000000000000000 [-]
	 SCS Same-Spin Energy      =      -0.0754118582203433 [Eh]
	 SCS Opposite-Spin Energy  =      -0.9255579766872021 [Eh]
	 SCS Correlation Energy    =      -1.0009698349075453 [Eh]
	 SCS Total Energy          =    -554.7334967596742672 [Eh]
	-----------------------------------------------------------

  Dipole Moment: [D]
     X:     2.1126      Y:    -0.0014      Z:    -0.0084     Total:     2.1126

*** Psi4 exiting successfully. Buy a developer a beer!
