                               Psi4 1.3.2 release

  ==> Input File <==

--------------------------------------------------------------------------
#psi4
#
memory 32 gb

molecule  {
0 1
  S       -1.3055980     0.0000010    -0.0000040
  C        1.2766570     0.7093650     0.2807600
  C        1.2766500    -0.7093720    -0.2807680
  C       -0.1908934     1.1845488    -0.1243617
  C       -0.0542340    -1.3297710     0.1396230
  H        1.3396290     0.6711660     1.3740810
  H        2.1212810     1.3027060    -0.0855190
  H        1.3396020    -0.6711730    -1.3740910
  H        2.1212770    -1.3027160     0.0854980
  H       -0.3428840     2.1673020     0.4996790
  H       -0.0077520     1.6828060    -1.1735290
  H       -0.3428960    -2.1673120    -0.4996450
  H       -0.0077460    -1.6827810     1.1735500
units angstrom
no_reorient  #important for SAPT in psi4, default
symmetry c1  #important for SAPT in psi4, default
}

set PROPERTIES_ORIGIN ["COM"]
properties('MP2/aug-cc-pvtz', properties = ['dipole'])
--------------------------------------------------------------------------

    Molecular point group: c1
  Charge       = 0
  Multiplicity = 1
  Basis Set: AUG-CC-PVTZ
    Blend: AUG-CC-PVTZ
  Basis Set: (AUG-CC-PVTZ AUX)
    Blend: AUG-CC-PVTZ-JKFIT

    Orbital Energies [Eh]
    ---------------------

    Doubly Occupied:

       1A    -91.935564     2A    -11.256259     3A    -11.254326
       4A    -11.237340     5A    -11.232019     6A     -8.940446
       7A     -6.622150     8A     -6.620797     9A     -6.619691
      10A     -1.140855    11A     -0.996913    12A     -0.966676
      13A     -0.796510    14A     -0.764285    15A     -0.653435
      16A     -0.641555    17A     -0.581701    18A     -0.540899
      19A     -0.515344    20A     -0.498195    21A     -0.475373
      22A     -0.470257    23A     -0.426569    24A     -0.323019

  @DF-RHF Final Energy:  -553.69574878530113

   => Energetics <=

    Nuclear Repulsion Energy =            238.5467811891495558
    One-Electron Energy =               -1233.4647071159731695
    Two-Electron Energy =                 441.2221771415224794
    Total Energy =                       -553.6957487853011344
  Basis Set: (AUG-CC-PVTZ AUX)
    Blend: AUG-CC-PVTZ-RI
    Molecular point group: c1

    Geometry (in Angstrom), charge = 0, multiplicity = 1:

       Center              X                  Y                   Z               Mass
    ------------   -----------------  -----------------  -----------------  -----------------
         S           -1.217276772061     0.019796841970    -0.002081998322    31.972071174400
         C            1.364978227939     0.729160841970     0.278682001678    12.000000000000
         C            1.364971227939    -0.689576158030    -0.282845998322    12.000000000000
         C           -0.102572172061     1.204344641970    -0.126439698322    12.000000000000
         C            0.034087227939    -1.309975158030     0.137545001678    12.000000000000
         H            1.427950227939     0.690961841970     1.372003001678     1.007825032230
         H            2.209602227939     1.322501841970    -0.087596998322     1.007825032230
         H            1.427923227939    -0.651377158030    -1.376168998322     1.007825032230
         H            2.209598227939    -1.282920158030     0.083420001678     1.007825032230
         H           -0.254562772061     2.187097841970     0.497601001678     1.007825032230
         H            0.080569227939     1.702601841970    -1.175606998322     1.007825032230
         H           -0.254574772061    -2.147516158030    -0.501722998322     1.007825032230
         H            0.080575227939    -1.662985158030     1.171472001678     1.007825032230

  Basis Set: AUG-CC-PVTZ
    Blend: AUG-CC-PVTZ
  Basis Set: (AUG-CC-PVTZ AUX)
    Blend: AUG-CC-PVTZ-JKFIT
	 Reference Energy          =    -553.6957487853011344 [Eh]
	 Singles Energy            =      -0.0000000000000000 [Eh]
	 Same-Spin Energy          =      -0.2285748995131352 [Eh]
	 Opposite-Spin Energy      =      -0.7742098712921150 [Eh]
	 Correlation Energy        =      -1.0027847708052502 [Eh]
	 Total Energy              =    -554.6985335561064403 [Eh]

	 ================> DF-SCS-MP2 Energies <==================
	-----------------------------------------------------------
	 SCS Same-Spin Scale       =       0.3333333333333333 [-]
	 SCS Opposite-Spin Scale   =       1.2000000000000000 [-]
	 SCS Same-Spin Energy      =      -0.0761916331710451 [Eh]
	 SCS Opposite-Spin Energy  =      -0.9290518455505380 [Eh]
	 SCS Correlation Energy    =      -1.0052434787215832 [Eh]
	 SCS Total Energy          =    -554.7009922640227160 [Eh]
	-----------------------------------------------------------

  Dipole Moment: [D]
     X:     1.9802      Y:    -0.2506      Z:     0.0667     Total:     1.9971

*** Psi4 exiting successfully. Buy a developer a beer!
