                               Psi4 1.3.2 release

  ==> Input File <==

--------------------------------------------------------------------------
#psi4
#
memory 32 gb

molecule  {
0 1
  S       -1.3501249     0.0413577    -0.0198272
  C        1.2766570     0.7093650     0.2807600
  C        1.2766500    -0.7093720    -0.2807680
  C       -0.0542300     1.3297750    -0.1396080
  C       -0.0542340    -1.3297710     0.1396230
  H        1.3396290     0.6711660     1.3740810
  H        2.1212810     1.3027060    -0.0855190
  H        1.3396020    -0.6711730    -1.3740910
  H        2.1212770    -1.3027160     0.0854980
  H       -0.3428840     2.1673020     0.4996790
  H       -0.0077520     1.6828060    -1.1735290
  H       -0.3428960    -2.1673120    -0.4996450
  H       -0.0077460    -1.6827810     1.1735500
units angstrom
no_reorient  #important for SAPT in psi4, default
symmetry c1  #important for SAPT in psi4, default
}

set PROPERTIES_ORIGIN ["COM"]
properties('MP2/aug-cc-pvtz', properties = ['dipole'])
--------------------------------------------------------------------------

    Molecular point group: c1
  Charge       = 0
  Multiplicity = 1
  Basis Set: AUG-CC-PVTZ
    Blend: AUG-CC-PVTZ
  Basis Set: (AUG-CC-PVTZ AUX)
    Blend: AUG-CC-PVTZ-JKFIT

    Orbital Energies [Eh]
    ---------------------

    Doubly Occupied:

       1A    -91.938387     2A    -11.257368     3A    -11.251925
       4A    -11.233871     5A    -11.233245     6A     -8.938008
       7A     -6.619113     8A     -6.618301     9A     -6.617344
      10A     -1.121721    11A     -0.982269    12A     -0.960464
      13A     -0.791793    14A     -0.780777    15A     -0.654343
      16A     -0.637158    17A     -0.596023    18A     -0.544032
      19A     -0.501810    20A     -0.490183    21A     -0.480486
      22A     -0.468644    23A     -0.422096    24A     -0.331489

  @DF-RHF Final Energy:  -553.73151703711949

   => Energetics <=

    Nuclear Repulsion Energy =            233.8307246347783632
    One-Electron Energy =               -1224.1827858119934263
    Two-Electron Energy =                 436.6205441400956033
    Total Energy =                       -553.7315170371194881
  Basis Set: (AUG-CC-PVTZ AUX)
    Blend: AUG-CC-PVTZ-RI
    Molecular point group: c1

    Geometry (in Angstrom), charge = 0, multiplicity = 1:

       Center              X                  Y                   Z               Mass
    ------------   -----------------  -----------------  -----------------  -----------------
         S           -1.264261153648     0.026338011838    -0.012627667685    31.972071174400
         C            1.362520746352     0.694345311838     0.287959532315    12.000000000000
         C            1.362513746352    -0.724391688162    -0.273568467685    12.000000000000
         C            0.031633746352     1.314755311838    -0.132408467685    12.000000000000
         C            0.031629746352    -1.344790688162     0.146822532315    12.000000000000
         H            1.425492746352     0.656146311838     1.381280532315     1.007825032230
         H            2.207144746352     1.287686311838    -0.078319467685     1.007825032230
         H            1.425465746352    -0.686192688162    -1.366891467685     1.007825032230
         H            2.207140746352    -1.317735688162     0.092697532315     1.007825032230
         H           -0.257020253648     2.152282311838     0.506878532315     1.007825032230
         H            0.078111746352     1.667786311838    -1.166329467685     1.007825032230
         H           -0.257032253648    -2.182331688162    -0.492445467685     1.007825032230
         H            0.078117746352    -1.697800688162     1.180749532315     1.007825032230

  Basis Set: AUG-CC-PVTZ
    Blend: AUG-CC-PVTZ
  Basis Set: (AUG-CC-PVTZ AUX)
    Blend: AUG-CC-PVTZ-JKFIT
	 Reference Energy          =    -553.7315170371194881 [Eh]
	 Singles Energy            =      -0.0000000000000000 [Eh]
	 Same-Spin Energy          =      -0.2257523453718224 [Eh]
	 Opposite-Spin Energy      =      -0.7715210596719609 [Eh]
	 Correlation Energy        =      -0.9972734050437833 [Eh]
	 Total Energy              =    -554.7287904421632447 [Eh]

	 ================> DF-SCS-MP2 Energies <==================
	-----------------------------------------------------------
	 SCS Same-Spin Scale       =       0.3333333333333333 [-]
	 SCS Opposite-Spin Scale   =       1.2000000000000000 [-]
	 SCS Same-Spin Energy      =      -0.0752507817906075 [Eh]
	 SCS Opposite-Spin Energy  =      -0.9258252716063531 [Eh]
	 SCS Correlation Energy    =      -1.0010760533969605 [Eh]
	 SCS Total Energy          =    -554.7325930905165023 [Eh]
	-----------------------------------------------------------

  Dipole Moment: [D]
     X:     2.1483      Y:    -0.0378      Z:     0.0187     Total:     2.1487

*** Psi4 exiting successfully. Buy a developer a beer!
