                               Psi4 1.3.2 release

  ==> Input File <==

--------------------------------------------------------------------------
#psi4
#
memory 32 gb

molecule  {
0 1
  S       -1.3055980     0.0000010    -0.0000040
  C        1.2766570     0.7093650     0.2807600
  C        1.2766500    -0.7093720    -0.2807680
  C       -0.0542300     1.3297750    -0.1396080
  C       -0.0542340    -1.3297710     0.1396230
  H        1.3281357     0.6781379     1.1745333
  H        2.1212810     1.3027060    -0.0855190
  H        1.3396020    -0.6711730    -1.3740910
  H        2.1212770    -1.3027160     0.0854980
  H       -0.3428840     2.1673020     0.4996790
  H       -0.0077520     1.6828060    -1.1735290
  H       -0.3428960    -2.1673120    -0.4996450
  H       -0.0077460    -1.6827810     1.1735500
units angstrom
no_reorient  #important for SAPT in psi4, default
symmetry c1  #important for SAPT in psi4, default
}

set PROPERTIES_ORIGIN ["COM"]
properties('MP2/aug-cc-pvtz', properties = ['dipole'])
--------------------------------------------------------------------------

    Molecular point group: c1
  Charge       = 0
  Multiplicity = 1
  Basis Set: AUG-CC-PVTZ
    Blend: AUG-CC-PVTZ
  Basis Set: (AUG-CC-PVTZ AUX)
    Blend: AUG-CC-PVTZ-JKFIT

    Orbital Energies [Eh]
    ---------------------

    Doubly Occupied:

       1A    -91.935202     2A    -11.252134     3A    -11.250956
       4A    -11.231477     5A    -11.207892     6A     -8.935885
       7A     -6.617059     8A     -6.616283     9A     -6.615282
      10A     -1.131554    11A     -0.988639    12A     -0.970002
      13A     -0.814518    14A     -0.779385    15A     -0.662437
      16A     -0.637359    17A     -0.602218    18A     -0.554965
      19A     -0.502325    20A     -0.494837    21A     -0.486214
      22A     -0.475778    23A     -0.420351    24A     -0.329663

  @DF-RHF Final Energy:  -553.70011745784575

   => Energetics <=

    Nuclear Repulsion Energy =            236.6256706899684445
    One-Electron Energy =               -1229.6267477182527728
    Two-Electron Energy =                 439.3009595704385220
    Total Energy =                       -553.7001174578457494
  Basis Set: (AUG-CC-PVTZ AUX)
    Blend: AUG-CC-PVTZ-RI
    Molecular point group: c1

    Geometry (in Angstrom), charge = 0, multiplicity = 1:

       Center              X                  Y                   Z               Mass
    ------------   -----------------  -----------------  -----------------  -----------------
         S           -1.235773774868    -0.000078745987     0.002280655175    31.972071174400
         C            1.346481225132     0.709285254013     0.283044655175    12.000000000000
         C            1.346474225132    -0.709451745987    -0.278483344825    12.000000000000
         C            0.015594225132     1.329695254013    -0.137323344825    12.000000000000
         C            0.015590225132    -1.329850745987     0.141907655175    12.000000000000
         H            1.397959925132     0.678058154013     1.176817955175     1.007825032230
         H            2.191105225132     1.302626254013    -0.083234344825     1.007825032230
         H            1.409426225132    -0.671252745987    -1.371806344825     1.007825032230
         H            2.191101225132    -1.302795745987     0.087782655175     1.007825032230
         H           -0.273059774868     2.167222254013     0.501963655175     1.007825032230
         H            0.062072225132     1.682726254013    -1.171244344825     1.007825032230
         H           -0.273071774868    -2.167391745987    -0.497360344825     1.007825032230
         H            0.062078225132    -1.682860745987     1.175834655175     1.007825032230

  Basis Set: AUG-CC-PVTZ
    Blend: AUG-CC-PVTZ
  Basis Set: (AUG-CC-PVTZ AUX)
    Blend: AUG-CC-PVTZ-JKFIT
	 Reference Energy          =    -553.7001174578457494 [Eh]
	 Singles Energy            =      -0.0000000000000000 [Eh]
	 Same-Spin Energy          =      -0.2261134259537593 [Eh]
	 Opposite-Spin Energy      =      -0.7705732849204312 [Eh]
	 Correlation Energy        =      -0.9966867108741906 [Eh]
	 Total Energy              =    -554.6968041687199502 [Eh]

	 ================> DF-SCS-MP2 Energies <==================
	-----------------------------------------------------------
	 SCS Same-Spin Scale       =       0.3333333333333333 [-]
	 SCS Opposite-Spin Scale   =       1.2000000000000000 [-]
	 SCS Same-Spin Energy      =      -0.0753711419845864 [Eh]
	 SCS Opposite-Spin Energy  =      -0.9246879419045174 [Eh]
	 SCS Correlation Energy    =      -1.0000590838891039 [Eh]
	 SCS Total Energy          =    -554.7001765417348906 [Eh]
	-----------------------------------------------------------

  Dipole Moment: [D]
     X:     2.1424      Y:     0.0096      Z:     0.0797     Total:     2.1439

*** Psi4 exiting successfully. Buy a developer a beer!
