                               Psi4 1.4a3.dev225

  ==> Input File <==

--------------------------------------------------------------------------
#psi4
#
memory 32 gb

molecule  {
0 1
  S       -1.3055980     0.0000010    -0.0000040
  C        1.2766570     0.7093650     0.2807600
  C        1.2766500    -0.7093720    -0.2807680
  C       -0.0542300     1.3297750    -0.1396080
  C       -0.0542340    -1.3297710     0.1396230
  H        1.3367557     0.6729090     1.3241941
  H        2.1212810     1.3027060    -0.0855190
  H        1.3396020    -0.6711730    -1.3740910
  H        2.1212770    -1.3027160     0.0854980
  H       -0.3428840     2.1673020     0.4996790
  H       -0.0077520     1.6828060    -1.1735290
  H       -0.3428960    -2.1673120    -0.4996450
  H       -0.0077460    -1.6827810     1.1735500
units angstrom
no_reorient  #important for SAPT in psi4, default
symmetry c1  #important for SAPT in psi4, default
}

set PROPERTIES_ORIGIN ["COM"]
properties('MP2/aug-cc-pvtz', properties = ['dipole'])
--------------------------------------------------------------------------

    Molecular point group: c1
  Charge       = 0
  Multiplicity = 1
  Basis Set: AUG-CC-PVTZ
    Blend: AUG-CC-PVTZ
  Basis Set: (AUG-CC-PVTZ AUX)
    Blend: AUG-CC-PVTZ-JKFIT

    Orbital Energies [Eh]
    ---------------------

    Doubly Occupied:

       1A    -91.935458     2A    -11.252317     3A    -11.251955
       4A    -11.232580     5A    -11.226794     6A     -8.936137
       7A     -6.617312     8A     -6.616535     9A     -6.615532
      10A     -1.127365    11A     -0.983903    12A     -0.966037
      13A     -0.797016    14A     -0.779574    15A     -0.657043
      16A     -0.637709    17A     -0.597592    18A     -0.547824
      19A     -0.503051    20A     -0.490215    21A     -0.483578
      22A     -0.476264    23A     -0.420831    24A     -0.329868

  @DF-RHF Final Energy:  -553.73253770768736

   => Energetics <=

    Nuclear Repulsion Energy =            235.8124608669693032
    One-Electron Energy =               -1228.1250233100388414
    Two-Electron Energy =                 438.5800247353822101
    Total Energy =                       -553.7325377076872428
  Basis Set: (AUG-CC-PVTZ AUX)
    Blend: AUG-CC-PVTZ-RI
    Molecular point group: c1

    Geometry (in Angstrom), charge = 0, multiplicity = 1:

       Center              X                  Y                   Z               Mass
    ------------   -----------------  -----------------  -----------------  -----------------
         S           -1.235872457030    -0.000018885295     0.000567331343    31.972071174400
         C            1.346382542970     0.709345114705     0.281331331343    12.000000000000
         C            1.346375542970    -0.709391885295    -0.280196668657    12.000000000000
         C            0.015495542970     1.329755114705    -0.139036668657    12.000000000000
         C            0.015491542970    -1.329790885295     0.140194331343    12.000000000000
         H            1.406481242970     0.672889114705     1.324765431343     1.007825032230
         H            2.191006542970     1.302686114705    -0.084947668657     1.007825032230
         H            1.409327542970    -0.671192885295    -1.373519668657     1.007825032230
         H            2.191002542970    -1.302735885295     0.086069331343     1.007825032230
         H           -0.273158457030     2.167282114705     0.500250331343     1.007825032230
         H            0.061973542970     1.682786114705    -1.172957668657     1.007825032230
         H           -0.273170457030    -2.167331885295    -0.499073668657     1.007825032230
         H            0.061979542970    -1.682800885295     1.174121331343     1.007825032230

  Basis Set: AUG-CC-PVTZ
    Blend: AUG-CC-PVTZ
  Basis Set: (AUG-CC-PVTZ AUX)
    Blend: AUG-CC-PVTZ-JKFIT
	 Reference Energy          =    -553.7325377076873565 [Eh]
	 Singles Energy            =      -0.0000000000000000 [Eh]
	 Same-Spin Energy          =      -0.2260684832798734 [Eh]
	 Opposite-Spin Energy      =      -0.7708882515451377 [Eh]
	 Correlation Energy        =      -0.9969567348250112 [Eh]
	 Total Energy              =    -554.7294944425124186 [Eh]

	 ================> DF-SCS-MP2 Energies <==================
	-----------------------------------------------------------
	 SCS Same-Spin Scale       =       0.3333333333333333 [-]
	 SCS Opposite-Spin Scale   =       1.2000000000000000 [-]
	 SCS Same-Spin Energy      =      -0.0753561610932911 [Eh]
	 SCS Opposite-Spin Energy  =      -0.9250659018541653 [Eh]
	 SCS Correlation Energy    =      -1.0004220629474565 [Eh]
	 SCS Total Energy          =    -554.7329597706348068 [Eh]
	-----------------------------------------------------------

  Dipole Moment: [D]
     X:     2.1246      Y:     0.0030      Z:     0.0266     Total:     2.1247

*** Psi4 exiting successfully. Buy a developer a beer!
