                               Psi4 1.4a3.dev225

  ==> Input File <==

--------------------------------------------------------------------------
#psi4
#
memory 32 gb

molecule  {
0 1
  S       -1.3055980     0.0000010    -0.0000040
  C        1.2766570     0.7093650     0.2807600
  C        1.2766500    -0.7093720    -0.2807680
  C       -0.0405637     1.3442976    -0.1411326
  C       -0.0542340    -1.3297710     0.1396230
  H        1.3396290     0.6711660     1.3740810
  H        2.1212810     1.3027060    -0.0855190
  H        1.3396020    -0.6711730    -1.3740910
  H        2.1212770    -1.3027160     0.0854980
  H       -0.3428840     2.1673020     0.4996790
  H       -0.0077520     1.6828060    -1.1735290
  H       -0.3428960    -2.1673120    -0.4996450
  H       -0.0077460    -1.6827810     1.1735500
units angstrom
no_reorient  #important for SAPT in psi4, default
symmetry c1  #important for SAPT in psi4, default
}

set PROPERTIES_ORIGIN ["COM"]
properties('MP2/aug-cc-pvtz', properties = ['dipole'])
--------------------------------------------------------------------------

    Molecular point group: c1
  Charge       = 0
  Multiplicity = 1
  Basis Set: AUG-CC-PVTZ
    Blend: AUG-CC-PVTZ
  Basis Set: (AUG-CC-PVTZ AUX)
    Blend: AUG-CC-PVTZ-JKFIT

    Orbital Energies [Eh]
    ---------------------

    Doubly Occupied:

       1A    -91.935197     2A    -11.252676     3A    -11.252212
       4A    -11.233484     5A    -11.232816     6A     -8.935636
       7A     -6.616782     8A     -6.616016     9A     -6.615024
      10A     -1.125825    11A     -0.984433    12A     -0.962995
      13A     -0.792890    14A     -0.780287    15A     -0.656243
      16A     -0.637593    17A     -0.598118    18A     -0.546136
      19A     -0.504727    20A     -0.491701    21A     -0.481083
      22A     -0.473187    23A     -0.418642    24A     -0.330039

  @DF-RHF Final Energy:  -553.73346662922734

   => Energetics <=

    Nuclear Repulsion Energy =            235.3013595713868540
    One-Electron Energy =               -1227.1221674905038981
    Two-Electron Energy =                 438.0873412898896504
    Total Energy =                       -553.7334666292273369
  Basis Set: (AUG-CC-PVTZ AUX)
    Blend: AUG-CC-PVTZ-RI
    Molecular point group: c1

    Geometry (in Angstrom), charge = 0, multiplicity = 1:

       Center              X                  Y                   Z               Mass
    ------------   -----------------  -----------------  -----------------  -----------------
         S           -1.237768203115    -0.001978505956     0.000204041902    31.972071174400
         C            1.344486796885     0.707385494044     0.280968041902    12.000000000000
         C            1.344479796885    -0.711351505956    -0.280559958098    12.000000000000
         C            0.027266096885     1.342318094044    -0.140924558098    12.000000000000
         C            0.013595796885    -1.331750505956     0.139831041902    12.000000000000
         H            1.407458796885     0.669186494044     1.374289041902     1.007825032230
         H            2.189110796885     1.300726494044    -0.085310958098     1.007825032230
         H            1.407431796885    -0.673152505956    -1.373882958098     1.007825032230
         H            2.189106796885    -1.304695505956     0.085706041902     1.007825032230
         H           -0.275054203115     2.165322494044     0.499887041902     1.007825032230
         H            0.060077796885     1.680826494044    -1.173320958098     1.007825032230
         H           -0.275066203115    -2.169291505956    -0.499436958098     1.007825032230
         H            0.060083796885    -1.684760505956     1.173758041902     1.007825032230

  Basis Set: AUG-CC-PVTZ
    Blend: AUG-CC-PVTZ
  Basis Set: (AUG-CC-PVTZ AUX)
    Blend: AUG-CC-PVTZ-JKFIT
	 Reference Energy          =    -553.7334666292273369 [Eh]
	 Singles Energy            =      -0.0000000000000000 [Eh]
	 Same-Spin Energy          =      -0.2260033512985889 [Eh]
	 Opposite-Spin Energy      =      -0.7711273573804508 [Eh]
	 Correlation Energy        =      -0.9971307086790397 [Eh]
	 Total Energy              =    -554.7305973379063744 [Eh]

	 ================> DF-SCS-MP2 Energies <==================
	-----------------------------------------------------------
	 SCS Same-Spin Scale       =       0.3333333333333333 [-]
	 SCS Opposite-Spin Scale   =       1.2000000000000000 [-]
	 SCS Same-Spin Energy      =      -0.0753344504328630 [Eh]
	 SCS Opposite-Spin Energy  =      -0.9253528288565409 [Eh]
	 SCS Correlation Energy    =      -1.0006872792894039 [Eh]
	 SCS Total Energy          =    -554.7341539085167597 [Eh]
	-----------------------------------------------------------

  Dipole Moment: [D]
     X:     2.1342      Y:     0.0217      Z:    -0.0038     Total:     2.1343

*** Psi4 exiting successfully. Buy a developer a beer!
