                               Psi4 1.3.2 release

  ==> Input File <==

--------------------------------------------------------------------------
#psi4
#
memory 32 gb

molecule  {
0 1
  S       -1.3055980     0.0000010    -0.0000040
  C        1.2766570     0.7093650     0.2807600
  C        1.2766500    -0.7093720    -0.2807680
  C       -0.1225617     1.2571619    -0.1319848
  C       -0.0542340    -1.3297710     0.1396230
  H        1.3396290     0.6711660     1.3740810
  H        2.1212810     1.3027060    -0.0855190
  H        1.3396020    -0.6711730    -1.3740910
  H        2.1212770    -1.3027160     0.0854980
  H       -0.3428840     2.1673020     0.4996790
  H       -0.0077520     1.6828060    -1.1735290
  H       -0.3428960    -2.1673120    -0.4996450
  H       -0.0077460    -1.6827810     1.1735500
units angstrom
no_reorient  #important for SAPT in psi4, default
symmetry c1  #important for SAPT in psi4, default
}

set PROPERTIES_ORIGIN ["COM"]
properties('MP2/aug-cc-pvtz', properties = ['dipole'])
--------------------------------------------------------------------------

    Molecular point group: c1
  Charge       = 0
  Multiplicity = 1
  Basis Set: AUG-CC-PVTZ
    Blend: AUG-CC-PVTZ
  Basis Set: (AUG-CC-PVTZ AUX)
    Blend: AUG-CC-PVTZ-JKFIT

    Orbital Energies [Eh]
    ---------------------

    Doubly Occupied:

       1A    -91.936462     2A    -11.253397     3A    -11.253071
       4A    -11.234384     5A    -11.232267     6A     -8.938778
       7A     -6.620146     8A     -6.619223     9A     -6.618153
      10A     -1.131930    11A     -0.983214    12A     -0.970966
      13A     -0.793519    14A     -0.773371    15A     -0.653427
      16A     -0.639633    17A     -0.587915    18A     -0.542146
      19A     -0.501467    20A     -0.494355    21A     -0.479333
      22A     -0.477021    23A     -0.428442    24A     -0.328118

  @DF-RHF Final Energy:  -553.72420489120759

   => Energetics <=

    Nuclear Repulsion Energy =            236.9941181285605012
    One-Electron Energy =               -1230.4551711206156597
    Two-Electron Energy =                 439.7368481008474532
    Total Energy =                       -553.7242048912075916
  Basis Set: (AUG-CC-PVTZ AUX)
    Blend: AUG-CC-PVTZ-RI
    Molecular point group: c1

    Geometry (in Angstrom), charge = 0, multiplicity = 1:

       Center              X                  Y                   Z               Mass
    ------------   -----------------  -----------------  -----------------  -----------------
         S           -1.226591061382     0.009898955310    -0.001042894086    31.972071174400
         C            1.355663938618     0.719262955310     0.279721105914    12.000000000000
         C            1.355656938618    -0.699474044690    -0.281806894086    12.000000000000
         C           -0.043554761382     1.267059855310    -0.133023694086    12.000000000000
         C            0.024772938618    -1.319873044690     0.138584105914    12.000000000000
         H            1.418635938618     0.681063955310     1.373042105914     1.007825032230
         H            2.200287938618     1.312603955310    -0.086557894086     1.007825032230
         H            1.418608938618    -0.661275044690    -1.375129894086     1.007825032230
         H            2.200283938618    -1.292818044690     0.084459105914     1.007825032230
         H           -0.263877061382     2.177199955310     0.498640105914     1.007825032230
         H            0.071254938618     1.692703955310    -1.174567894086     1.007825032230
         H           -0.263889061382    -2.157414044690    -0.500683894086     1.007825032230
         H            0.071260938618    -1.672883044690     1.172511105914     1.007825032230

  Basis Set: AUG-CC-PVTZ
    Blend: AUG-CC-PVTZ
  Basis Set: (AUG-CC-PVTZ AUX)
    Blend: AUG-CC-PVTZ-JKFIT
	 Reference Energy          =    -553.7242048912075916 [Eh]
	 Singles Energy            =      -0.0000000000000000 [Eh]
	 Same-Spin Energy          =      -0.2268945955598867 [Eh]
	 Opposite-Spin Energy      =      -0.7720396617164473 [Eh]
	 Correlation Energy        =      -0.9989342572763340 [Eh]
	 Total Energy              =    -554.7231391484839378 [Eh]

	 ================> DF-SCS-MP2 Energies <==================
	-----------------------------------------------------------
	 SCS Same-Spin Scale       =       0.3333333333333333 [-]
	 SCS Opposite-Spin Scale   =       1.2000000000000000 [-]
	 SCS Same-Spin Energy      =      -0.0756315318532956 [Eh]
	 SCS Opposite-Spin Energy  =      -0.9264475940597368 [Eh]
	 SCS Correlation Energy    =      -1.0020791259130324 [Eh]
	 SCS Total Energy          =    -554.7262840171206335 [Eh]
	-----------------------------------------------------------

  Dipole Moment: [D]
     X:     2.0396      Y:    -0.1153      Z:     0.0258     Total:     2.0430

*** Psi4 exiting successfully. Buy a developer a beer!
