                               Psi4 1.4a3.dev225

  ==> Input File <==

--------------------------------------------------------------------------
#psi4
#
memory 32 gb

molecule  {
0 1
  S       -1.3055980     0.0000010    -0.0000040
  C        1.2766570     0.7093650     0.2807600
  C        1.2766500    -0.7093720    -0.2807680
  C       -0.0106622     1.3094653    -0.1258469
  C       -0.0542340    -1.3297710     0.1396230
  H        1.3396290     0.6711660     1.3740810
  H        2.1212810     1.3027060    -0.0855190
  H        1.3396020    -0.6711730    -1.3740910
  H        2.1212770    -1.3027160     0.0854980
  H       -0.3428840     2.1673020     0.4996790
  H       -0.0077520     1.6828060    -1.1735290
  H       -0.3428960    -2.1673120    -0.4996450
  H       -0.0077460    -1.6827810     1.1735500
units angstrom
no_reorient  #important for SAPT in psi4, default
symmetry c1  #important for SAPT in psi4, default
}

set PROPERTIES_ORIGIN ["COM"]
properties('MP2/aug-cc-pvtz', properties = ['dipole'])
--------------------------------------------------------------------------

    Molecular point group: c1
  Charge       = 0
  Multiplicity = 1
  Basis Set: AUG-CC-PVTZ
    Blend: AUG-CC-PVTZ
  Basis Set: (AUG-CC-PVTZ AUX)
    Blend: AUG-CC-PVTZ-JKFIT

    Orbital Energies [Eh]
    ---------------------

    Doubly Occupied:

       1A    -91.935568     2A    -11.254162     3A    -11.252219
       4A    -11.233319     5A    -11.230462     6A     -8.936118
       7A     -6.617269     8A     -6.616466     9A     -6.615466
      10A     -1.131273    11A     -0.987176    12A     -0.963233
      13A     -0.792572    14A     -0.777144    15A     -0.656500
      16A     -0.642341    17A     -0.595266    18A     -0.542382
      19A     -0.509212    20A     -0.493102    21A     -0.477198
      22A     -0.470804    23A     -0.422541    24A     -0.329202

  @DF-RHF Final Energy:  -553.73061473007397

   => Energetics <=

    Nuclear Repulsion Energy =            235.9589038271123229
    One-Electron Energy =               -1228.4170475657183488
    Two-Electron Energy =                 438.7275290085320307
    Total Energy =                       -553.7306147300739667
  Basis Set: (AUG-CC-PVTZ AUX)
    Blend: AUG-CC-PVTZ-RI
    Molecular point group: c1

    Geometry (in Angstrom), charge = 0, multiplicity = 1:

       Center              X                  Y                   Z               Mass
    ------------   -----------------  -----------------  -----------------  -----------------
         S           -1.241844074521     0.002769482458    -0.001879550812    31.972071174400
         C            1.340410925479     0.712133482458     0.278884449188    12.000000000000
         C            1.340403925479    -0.706603517542    -0.282643550812    12.000000000000
         C            0.053091725479     1.312233782458    -0.127722450812    12.000000000000
         C            0.009519925479    -1.327002517542     0.137747449188    12.000000000000
         H            1.403382925479     0.673934482458     1.372205449188     1.007825032230
         H            2.185034925479     1.305474482458    -0.087394550812     1.007825032230
         H            1.403355925479    -0.668404517542    -1.375966550812     1.007825032230
         H            2.185030925479    -1.299947517542     0.083622449188     1.007825032230
         H           -0.279130074521     2.170070482458     0.497803449188     1.007825032230
         H            0.056001925479     1.685574482458    -1.175404550812     1.007825032230
         H           -0.279142074521    -2.164543517542    -0.501520550812     1.007825032230
         H            0.056007925479    -1.680012517542     1.171674449188     1.007825032230

  Basis Set: AUG-CC-PVTZ
    Blend: AUG-CC-PVTZ
  Basis Set: (AUG-CC-PVTZ AUX)
    Blend: AUG-CC-PVTZ-JKFIT
	 Reference Energy          =    -553.7306147300739667 [Eh]
	 Singles Energy            =      -0.0000000000000000 [Eh]
	 Same-Spin Energy          =      -0.2265057790638829 [Eh]
	 Opposite-Spin Energy      =      -0.7716750134439406 [Eh]
	 Correlation Energy        =      -0.9981807925078235 [Eh]
	 Total Energy              =    -554.7287955225817768 [Eh]

	 ================> DF-SCS-MP2 Energies <==================
	-----------------------------------------------------------
	 SCS Same-Spin Scale       =       0.3333333333333333 [-]
	 SCS Opposite-Spin Scale   =       1.2000000000000000 [-]
	 SCS Same-Spin Energy      =      -0.0755019263546276 [Eh]
	 SCS Opposite-Spin Energy  =      -0.9260100161327287 [Eh]
	 SCS Correlation Energy    =      -1.0015119424873564 [Eh]
	 SCS Total Energy          =    -554.7321266725613214 [Eh]
	-----------------------------------------------------------

  Dipole Moment: [D]
     X:     2.1167      Y:     0.0008      Z:     0.0007     Total:     2.1167

*** Psi4 exiting successfully. Buy a developer a beer!
