                               Psi4 1.4a3.dev225

  ==> Input File <==

--------------------------------------------------------------------------
#psi4
#
memory 32 gb

molecule  {
0 1
  S       -1.3055980     0.0000010    -0.0000040
  C        1.2766570     0.7093650     0.2807600
  C        1.2766500    -0.7093720    -0.2807680
  C       -0.0368029     1.3216511    -0.1341036
  C       -0.0542340    -1.3297710     0.1396230
  H        1.3396290     0.6711660     1.3740810
  H        2.1212810     1.3027060    -0.0855190
  H        1.3396020    -0.6711730    -1.3740910
  H        2.1212770    -1.3027160     0.0854980
  H       -0.3428840     2.1673020     0.4996790
  H       -0.0077520     1.6828060    -1.1735290
  H       -0.3428960    -2.1673120    -0.4996450
  H       -0.0077460    -1.6827810     1.1735500
units angstrom
no_reorient  #important for SAPT in psi4, default
symmetry c1  #important for SAPT in psi4, default
}

set PROPERTIES_ORIGIN ["COM"]
properties('MP2/aug-cc-pvtz', properties = ['dipole'])
--------------------------------------------------------------------------

    Molecular point group: c1
  Charge       = 0
  Multiplicity = 1
  Basis Set: AUG-CC-PVTZ
    Blend: AUG-CC-PVTZ
  Basis Set: (AUG-CC-PVTZ AUX)
    Blend: AUG-CC-PVTZ-JKFIT

    Orbital Energies [Eh]
    ---------------------

    Doubly Occupied:

       1A    -91.935578     2A    -11.253064     3A    -11.252334
       4A    -11.233216     5A    -11.231970     6A     -8.936207
       7A     -6.617372     8A     -6.616584     9A     -6.615582
      10A     -1.128339    11A     -0.984670    12A     -0.964356
      13A     -0.792473    14A     -0.778723    15A     -0.655847
      16A     -0.639633    17A     -0.595779    18A     -0.544076
      19A     -0.505608    20A     -0.491342    21A     -0.479316
      22A     -0.474387    23A     -0.421801    24A     -0.329687

  @DF-RHF Final Energy:  -553.73291611577235

   => Energetics <=

    Nuclear Repulsion Energy =            235.7266414174596889
    One-Electron Energy =               -1227.9632255193869241
    Two-Electron Energy =                 438.5036679861549942
    Total Energy =                       -553.7329161157722410
  Basis Set: (AUG-CC-PVTZ AUX)
    Blend: AUG-CC-PVTZ-RI
    Molecular point group: c1

    Geometry (in Angstrom), charge = 0, multiplicity = 1:

       Center              X                  Y                   Z               Mass
    ------------   -----------------  -----------------  -----------------  -----------------
         S           -1.238280837504     0.001108436899    -0.000754080604    31.972071174400
         C            1.343974162496     0.710472436899     0.280009919396    12.000000000000
         C            1.343967162496    -0.708264563101    -0.281518080604    12.000000000000
         C            0.030514262496     1.322758536899    -0.134853680604    12.000000000000
         C            0.013083162496    -1.328663563101     0.138872919396    12.000000000000
         H            1.406946162496     0.672273436899     1.373330919396     1.007825032230
         H            2.188598162496     1.303813436899    -0.086269080604     1.007825032230
         H            1.406919162496    -0.670065563101    -1.374841080604     1.007825032230
         H            2.188594162496    -1.301608563101     0.084747919396     1.007825032230
         H           -0.275566837504     2.168409436899     0.498928919396     1.007825032230
         H            0.059565162496     1.683913436899    -1.174279080604     1.007825032230
         H           -0.275578837504    -2.166204563101    -0.500395080604     1.007825032230
         H            0.059571162496    -1.681673563101     1.172799919396     1.007825032230

  Basis Set: AUG-CC-PVTZ
    Blend: AUG-CC-PVTZ
  Basis Set: (AUG-CC-PVTZ AUX)
    Blend: AUG-CC-PVTZ-JKFIT
	 Reference Energy          =    -553.7329161157723547 [Eh]
	 Singles Energy            =      -0.0000000000000000 [Eh]
	 Same-Spin Energy          =      -0.2262239715818134 [Eh]
	 Opposite-Spin Energy      =      -0.7713279592577673 [Eh]
	 Correlation Energy        =      -0.9975519308395807 [Eh]
	 Total Energy              =    -554.7304680466119180 [Eh]

	 ================> DF-SCS-MP2 Energies <==================
	-----------------------------------------------------------
	 SCS Same-Spin Scale       =       0.3333333333333333 [-]
	 SCS Opposite-Spin Scale   =       1.2000000000000000 [-]
	 SCS Same-Spin Energy      =      -0.0754079905272711 [Eh]
	 SCS Opposite-Spin Energy  =      -0.9255935511093207 [Eh]
	 SCS Correlation Energy    =      -1.0010015416365918 [Eh]
	 SCS Total Energy          =    -554.7339176574089379 [Eh]
	-----------------------------------------------------------

  Dipole Moment: [D]
     X:     2.1152      Y:     0.0008      Z:     0.0001     Total:     2.1152

*** Psi4 exiting successfully. Buy a developer a beer!
