                               Psi4 1.3.2 release

  ==> Input File <==

--------------------------------------------------------------------------
#psi4
#
memory 32 gb

molecule  {
0 1
  O        1.0976236    -0.4545538    -0.0000376
  O       -1.0848130    -0.4327500    -0.0000360
  O        0.0000000     1.5813200     0.0000210
  C        2.3404510     0.2903800     0.0000000
  C       -2.3404490     0.2903790     0.0000040
  C        3.4330320    -0.7534130     0.0000320
  C       -3.4330330    -0.7534120     0.0000290
  C        0.0000010     0.3626890    -0.0000340
  H        2.3799910     0.9319240    -0.8843590
  H        2.3799380     0.9319250     0.8843600
  H       -2.3799400     0.9319200     0.8843670
  H       -2.3799890     0.9319290    -0.8843510
  H        4.4117640    -0.2654940     0.0000570
  H        3.3582860    -1.3857500     0.8869440
  H        3.3583340    -1.3857540    -0.8868810
  H       -4.4117630    -0.2654900     0.0000540
  H       -3.3583340    -1.3857510    -0.8868860
  H       -3.3582920    -1.3857530     0.8869380
units angstrom
no_reorient  #important for SAPT in psi4, default
symmetry c1  #important for SAPT in psi4, default
}

set PROPERTIES_ORIGIN ["COM"]
properties('MP2/aug-cc-pvtz', properties = ['dipole'])
--------------------------------------------------------------------------

    Molecular point group: c1
  Charge       = 0
  Multiplicity = 1
  Basis Set: AUG-CC-PVTZ
    Blend: AUG-CC-PVTZ
  Basis Set: (AUG-CC-PVTZ AUX)
    Blend: AUG-CC-PVTZ-JKFIT

    Orbital Energies [Eh]
    ---------------------

    Doubly Occupied:

       1A    -20.608820     2A    -20.606960     3A    -20.549204
       4A    -11.432482     5A    -11.292985     6A    -11.290092
       7A    -11.226254     8A    -11.223868     9A     -1.492835
      10A     -1.391602    11A     -1.359289    12A     -1.055280
      13A     -1.025042    14A     -0.890864    15A     -0.844493
      16A     -0.792128    17A     -0.741736    18A     -0.705365
      19A     -0.691902    20A     -0.661995    21A     -0.598957
      22A     -0.597011    23A     -0.591046    24A     -0.554804
      25A     -0.541000    26A     -0.535898    27A     -0.519334
      28A     -0.515911    29A     -0.507461    30A     -0.471395
      31A     -0.469627    32A     -0.464029

  @DF-RHF Final Energy:  -419.93429541152022

   => Energetics <=

    Nuclear Repulsion Energy =            391.3609624485364975
    One-Electron Energy =               -1350.0911817135747697
    Two-Electron Energy =                 538.7959238535180475
    Total Energy =                       -419.9342954115202247
  Basis Set: (AUG-CC-PVTZ AUX)
    Blend: AUG-CC-PVTZ-RI
    Molecular point group: c1

    Geometry (in Angstrom), charge = 0, multiplicity = 1:

       Center              X                  Y                   Z               Mass
    ------------   -----------------  -----------------  -----------------  -----------------
         O            1.095887887506    -0.471286833506    -0.000035699057    15.994914619570
         O           -1.086548712494    -0.449483033506    -0.000034099057    15.994914619570
         O           -0.001735712494     1.564586966494     0.000022900943    15.994914619570
         C            2.338715287506     0.273646966494     0.000001900943    12.000000000000
         C           -2.342184712494     0.273645966494     0.000005900943    12.000000000000
         C            3.431296287506    -0.770146033506     0.000033900943    12.000000000000
         C           -3.434768712494    -0.770145033506     0.000030900943    12.000000000000
         C           -0.001734712494     0.345955966494    -0.000032099057    12.000000000000
         H            2.378255287506     0.915190966494    -0.884357099057     1.007825032230
         H            2.378202287506     0.915191966494     0.884361900943     1.007825032230
         H           -2.381675712494     0.915186966494     0.884368900943     1.007825032230
         H           -2.381724712494     0.915195966494    -0.884349099057     1.007825032230
         H            4.410028287506    -0.282227033506     0.000058900943     1.007825032230
         H            3.356550287506    -1.402483033506     0.886945900943     1.007825032230
         H            3.356598287506    -1.402487033506    -0.886879099057     1.007825032230
         H           -4.413498712494    -0.282223033506     0.000055900943     1.007825032230
         H           -3.360069712494    -1.402484033506    -0.886884099057     1.007825032230
         H           -3.360027712494    -1.402486033506     0.886939900943     1.007825032230

  Basis Set: AUG-CC-PVTZ
    Blend: AUG-CC-PVTZ
  Basis Set: (AUG-CC-PVTZ AUX)
    Blend: AUG-CC-PVTZ-JKFIT
	 Reference Energy          =    -419.9342954115202247 [Eh]
	 Singles Energy            =      -0.0000000000000000 [Eh]
	 Same-Spin Energy          =      -0.4062039490164253 [Eh]
	 Opposite-Spin Energy      =      -1.3138085310315719 [Eh]
	 Correlation Energy        =      -1.7200124800479972 [Eh]
	 Total Energy              =    -421.6543078915682372 [Eh]

	 ================> DF-SCS-MP2 Energies <==================
	-----------------------------------------------------------
	 SCS Same-Spin Scale       =       0.3333333333333333 [-]
	 SCS Opposite-Spin Scale   =       1.2000000000000000 [-]
	 SCS Same-Spin Energy      =      -0.1354013163388084 [Eh]
	 SCS Opposite-Spin Energy  =      -1.5765702372378863 [Eh]
	 SCS Correlation Energy    =      -1.7119715535766946 [Eh]
	 SCS Total Energy          =    -421.6462669650969133 [Eh]
	-----------------------------------------------------------

  Dipole Moment: [D]
     X:    -0.1527      Y:    -0.4313      Z:     0.0000     Total:     0.4576

*** Psi4 exiting successfully. Buy a developer a beer!
