                               Psi4 1.3.2 release

  ==> Input File <==

--------------------------------------------------------------------------
#psi4
#
memory 32 gb

molecule  {
0 1
  O        1.0848120    -0.4327500    -0.0000380
  O       -1.0848130    -0.4327500    -0.0000360
  O        0.0000000     1.5813200     0.0000210
  C        2.3404510     0.2903800     0.0000000
  C       -2.3404490     0.2903790     0.0000040
  C        3.4330320    -0.7534130     0.0000320
  C       -3.4330330    -0.7534120     0.0000290
  C        0.0000009     0.4626890    -0.0000295
  H        2.3799910     0.9319240    -0.8843590
  H        2.3799380     0.9319250     0.8843600
  H       -2.3799400     0.9319200     0.8843670
  H       -2.3799890     0.9319290    -0.8843510
  H        4.4117640    -0.2654940     0.0000570
  H        3.3582860    -1.3857500     0.8869440
  H        3.3583340    -1.3857540    -0.8868810
  H       -4.4117630    -0.2654900     0.0000540
  H       -3.3583340    -1.3857510    -0.8868860
  H       -3.3582920    -1.3857530     0.8869380
units angstrom
no_reorient  #important for SAPT in psi4, default
symmetry c1  #important for SAPT in psi4, default
}

set PROPERTIES_ORIGIN ["COM"]
properties('MP2/aug-cc-pvtz', properties = ['dipole'])
--------------------------------------------------------------------------

    Molecular point group: c1
  Charge       = 0
  Multiplicity = 1
  Basis Set: AUG-CC-PVTZ
    Blend: AUG-CC-PVTZ
  Basis Set: (AUG-CC-PVTZ AUX)
    Blend: AUG-CC-PVTZ-JKFIT

    Orbital Energies [Eh]
    ---------------------

    Doubly Occupied:

       1A    -20.594924     2A    -20.594899     3A    -20.573395
       4A    -11.423874     5A    -11.286088     6A    -11.286087
       7A    -11.222109     8A    -11.222108     9A     -1.516564
      10A     -1.398634    11A     -1.367497    12A     -1.044671
      13A     -1.017575    14A     -0.878870    15A     -0.838593
      16A     -0.787088    17A     -0.739268    18A     -0.715987
      19A     -0.704524    20A     -0.656592    21A     -0.608370
      22A     -0.596162    23A     -0.593318    24A     -0.551383
      25A     -0.535322    26A     -0.532711    27A     -0.523050
      28A     -0.518861    29A     -0.514992    30A     -0.476518
      31A     -0.476044    32A     -0.454767

  @DF-RHF Final Energy:  -419.91842176791954

   => Energetics <=

    Nuclear Repulsion Energy =            391.9943328121192394
    One-Electron Energy =               -1351.3238229811915971
    Two-Electron Energy =                 539.4110684011528747
    Total Energy =                       -419.9184217679195399
  Basis Set: (AUG-CC-PVTZ AUX)
    Blend: AUG-CC-PVTZ-RI
    Molecular point group: c1

    Geometry (in Angstrom), charge = 0, multiplicity = 1:

       Center              X                  Y                   Z               Mass
    ------------   -----------------  -----------------  -----------------  -----------------
         O            1.084811985042    -0.462601029794    -0.000036502249    15.994914619570
         O           -1.084813014958    -0.462601029794    -0.000034502249    15.994914619570
         O           -0.000000014958     1.551468970206     0.000022497751    15.994914619570
         C            2.340450985042     0.260528970206     0.000001497751    12.000000000000
         C           -2.340449014958     0.260527970206     0.000005497751    12.000000000000
         C            3.433031985042    -0.783264029794     0.000033497751    12.000000000000
         C           -3.433033014958    -0.783263029794     0.000030497751    12.000000000000
         C            0.000000885042     0.432837970206    -0.000028002249    12.000000000000
         H            2.379990985042     0.902072970206    -0.884357502249     1.007825032230
         H            2.379937985042     0.902073970206     0.884361497751     1.007825032230
         H           -2.379940014958     0.902068970206     0.884368497751     1.007825032230
         H           -2.379989014958     0.902077970206    -0.884349502249     1.007825032230
         H            4.411763985042    -0.295345029794     0.000058497751     1.007825032230
         H            3.358285985042    -1.415601029794     0.886945497751     1.007825032230
         H            3.358333985042    -1.415605029794    -0.886879502249     1.007825032230
         H           -4.411763014958    -0.295341029794     0.000055497751     1.007825032230
         H           -3.358334014958    -1.415602029794    -0.886884502249     1.007825032230
         H           -3.358292014958    -1.415604029794     0.886939497751     1.007825032230

  Basis Set: AUG-CC-PVTZ
    Blend: AUG-CC-PVTZ
  Basis Set: (AUG-CC-PVTZ AUX)
    Blend: AUG-CC-PVTZ-JKFIT
	 Reference Energy          =    -419.9184217679195399 [Eh]
	 Singles Energy            =      -0.0000000000000000 [Eh]
	 Same-Spin Energy          =      -0.4054260883964845 [Eh]
	 Opposite-Spin Energy      =      -1.3129035670486475 [Eh]
	 Correlation Energy        =      -1.7183296554451319 [Eh]
	 Total Energy              =    -421.6367514233646716 [Eh]

	 ================> DF-SCS-MP2 Energies <==================
	-----------------------------------------------------------
	 SCS Same-Spin Scale       =       0.3333333333333333 [-]
	 SCS Opposite-Spin Scale   =       1.2000000000000000 [-]
	 SCS Same-Spin Energy      =      -0.1351420294654948 [Eh]
	 SCS Opposite-Spin Energy  =      -1.5754842804583771 [Eh]
	 SCS Correlation Energy    =      -1.7106263099238719 [Eh]
	 SCS Total Energy          =    -421.6290480778434357 [Eh]
	-----------------------------------------------------------

  Dipole Moment: [D]
     X:     0.0000      Y:     0.3026      Z:     0.0000     Total:     0.3026

*** Psi4 exiting successfully. Buy a developer a beer!
