                               Psi4 1.3.2 release

  ==> Input File <==

--------------------------------------------------------------------------
#psi4
#
memory 32 gb

molecule  {
0 1
  O        1.0374277    -0.3433995    -0.0000394
  O       -1.0848130    -0.4327500    -0.0000360
  O        0.0000000     1.5813200     0.0000210
  C        2.3404510     0.2903800     0.0000000
  C       -2.3404490     0.2903790     0.0000040
  C        3.4330320    -0.7534130     0.0000320
  C       -3.4330330    -0.7534120     0.0000290
  C        0.0000010     0.3626890    -0.0000340
  H        2.3799910     0.9319240    -0.8843590
  H        2.3799380     0.9319250     0.8843600
  H       -2.3799400     0.9319200     0.8843670
  H       -2.3799890     0.9319290    -0.8843510
  H        4.4117640    -0.2654940     0.0000570
  H        3.3582860    -1.3857500     0.8869440
  H        3.3583340    -1.3857540    -0.8868810
  H       -4.4117630    -0.2654900     0.0000540
  H       -3.3583340    -1.3857510    -0.8868860
  H       -3.3582920    -1.3857530     0.8869380
units angstrom
no_reorient  #important for SAPT in psi4, default
symmetry c1  #important for SAPT in psi4, default
}

set PROPERTIES_ORIGIN ["COM"]
properties('MP2/aug-cc-pvtz', properties = ['dipole'])
--------------------------------------------------------------------------

    Molecular point group: c1
  Charge       = 0
  Multiplicity = 1
  Basis Set: AUG-CC-PVTZ
    Blend: AUG-CC-PVTZ
  Basis Set: (AUG-CC-PVTZ AUX)
    Blend: AUG-CC-PVTZ-JKFIT

    Orbital Energies [Eh]
    ---------------------

    Doubly Occupied:

       1A    -20.607101     2A    -20.599822     3A    -20.526308
       4A    -11.415535     5A    -11.300505     6A    -11.287572
       7A    -11.232881     8A    -11.222737     9A     -1.519580
      10A     -1.402722    11A     -1.346492    12A     -1.065580
      13A     -1.028506    14A     -0.905372    15A     -0.846705
      16A     -0.789338    17A     -0.753723    18A     -0.717630
      19A     -0.688147    20A     -0.662490    21A     -0.603137
      22A     -0.599565    23A     -0.588186    24A     -0.561470
      25A     -0.543758    26A     -0.541266    27A     -0.518632
      28A     -0.510350    29A     -0.507299    30A     -0.463592
      31A     -0.459357    32A     -0.458985

  @DF-RHF Final Energy:  -419.93627180067710

   => Energetics <=

    Nuclear Repulsion Energy =            394.2195301900226241
    One-Electron Energy =               -1355.7629208984467368
    Two-Electron Energy =                 541.6071189077470081
    Total Energy =                       -419.9362718006771047
  Basis Set: (AUG-CC-PVTZ AUX)
    Blend: AUG-CC-PVTZ-RI
    Molecular point group: c1

    Geometry (in Angstrom), charge = 0, multiplicity = 1:

       Center              X                  Y                   Z               Mass
    ------------   -----------------  -----------------  -----------------  -----------------
         O            1.043847195559    -0.375191473442    -0.000037255197    15.994914619570
         O           -1.078393504441    -0.464541973442    -0.000033855197    15.994914619570
         O            0.006419495559     1.549528026558     0.000023144803    15.994914619570
         C            2.346870495559     0.258588026558     0.000002144803    12.000000000000
         C           -2.334029504441     0.258587026558     0.000006144803    12.000000000000
         C            3.439451495559    -0.785204973442     0.000034144803    12.000000000000
         C           -3.426613504441    -0.785203973442     0.000031144803    12.000000000000
         C            0.006420495559     0.330897026558    -0.000031855197    12.000000000000
         H            2.386410495559     0.900132026558    -0.884356855197     1.007825032230
         H            2.386357495559     0.900133026558     0.884362144803     1.007825032230
         H           -2.373520504441     0.900128026558     0.884369144803     1.007825032230
         H           -2.373569504441     0.900137026558    -0.884348855197     1.007825032230
         H            4.418183495559    -0.297285973442     0.000059144803     1.007825032230
         H            3.364705495559    -1.417541973442     0.886946144803     1.007825032230
         H            3.364753495559    -1.417545973442    -0.886878855197     1.007825032230
         H           -4.405343504441    -0.297281973442     0.000056144803     1.007825032230
         H           -3.351914504441    -1.417542973442    -0.886883855197     1.007825032230
         H           -3.351872504441    -1.417544973442     0.886940144803     1.007825032230

  Basis Set: AUG-CC-PVTZ
    Blend: AUG-CC-PVTZ
  Basis Set: (AUG-CC-PVTZ AUX)
    Blend: AUG-CC-PVTZ-JKFIT
	 Reference Energy          =    -419.9362718006771047 [Eh]
	 Singles Energy            =      -0.0000000000000000 [Eh]
	 Same-Spin Energy          =      -0.4042415230949390 [Eh]
	 Opposite-Spin Energy      =      -1.3082949073230083 [Eh]
	 Correlation Energy        =      -1.7125364304179473 [Eh]
	 Total Energy              =    -421.6488082310950745 [Eh]

	 ================> DF-SCS-MP2 Energies <==================
	-----------------------------------------------------------
	 SCS Same-Spin Scale       =       0.3333333333333333 [-]
	 SCS Opposite-Spin Scale   =       1.2000000000000000 [-]
	 SCS Same-Spin Energy      =      -0.1347471743649797 [Eh]
	 SCS Opposite-Spin Energy  =      -1.5699538887876099 [Eh]
	 SCS Correlation Energy    =      -1.7047010631525896 [Eh]
	 SCS Total Energy          =    -421.6409728638296883 [Eh]
	-----------------------------------------------------------

  Dipole Moment: [D]
     X:     0.6326      Y:    -0.8745      Z:     0.0000     Total:     1.0793

*** Psi4 exiting successfully. Buy a developer a beer!
