                               Psi4 1.4a3.dev225

  ==> Input File <==

--------------------------------------------------------------------------
#psi4
#
memory 32 gb

molecule  {
0 1
  O        1.0848250    -0.4328680    -0.0000110
  O       -1.0848250    -0.4328670    -0.0000100
  O        0.0000000     1.5811570     0.0000070
  C        2.3404700     0.2905210    -0.0000040
  C       -2.3404700     0.2905210    -0.0000020
  C        3.4331290    -0.7532350     0.0000100
  C       -3.4331290    -0.7532350     0.0000090
  C       -0.0161289     0.3743822    -0.0000029
  H        2.3799590     0.9318790    -0.8844210
  H        2.3799440     0.9318880     0.8844070
  H       -2.3799450     0.9318860     0.8844110
  H       -2.3799580     0.9318810    -0.8844170
  H        4.4117970    -0.2652620     0.0000140
  H        3.3585260    -1.3857810     0.8868320
  H        3.3585390    -1.3857920    -0.8868050
  H       -4.4117970    -0.2652620     0.0000130
  H       -3.3585380    -1.3857890    -0.8868080
  H       -3.3585270    -1.3857830     0.8868290
units angstrom
no_reorient  #important for SAPT in psi4, default
symmetry c1  #important for SAPT in psi4, default
}

set PROPERTIES_ORIGIN ["COM"]
properties('MP2/aug-cc-pvtz', properties = ['dipole'])
--------------------------------------------------------------------------

    Molecular point group: c1
  Charge       = 0
  Multiplicity = 1
  Basis Set: AUG-CC-PVTZ
    Blend: AUG-CC-PVTZ
  Basis Set: (AUG-CC-PVTZ AUX)
    Blend: AUG-CC-PVTZ-JKFIT

    Orbital Energies [Eh]
    ---------------------

    Doubly Occupied:

       1A    -20.609660     2A    -20.601725     3A    -20.548361
       4A    -11.428928     5A    -11.293502     6A    -11.289038
       7A    -11.226631     8A    -11.223740     9A     -1.496316
      10A     -1.391366    11A     -1.363994    12A     -1.055515
      13A     -1.024892    14A     -0.891537    15A     -0.844176
      16A     -0.791146    17A     -0.742740    18A     -0.706647
      19A     -0.693387    20A     -0.661406    21A     -0.598358
      22A     -0.598308    23A     -0.591797    24A     -0.555153
      25A     -0.540877    26A     -0.536099    27A     -0.520193
      28A     -0.514555    29A     -0.508402    30A     -0.471568
      31A     -0.470957    32A     -0.462336

  @DF-RHF Final Energy:  -419.93653858970117

   => Energetics <=

    Nuclear Repulsion Energy =            391.9073569728725488
    One-Electron Energy =               -1351.1811722899624328
    Two-Electron Energy =                 539.3372767273887121
    Total Energy =                       -419.9365385897011720
  Basis Set: (AUG-CC-PVTZ AUX)
    Blend: AUG-CC-PVTZ-RI
    Molecular point group: c1

    Geometry (in Angstrom), charge = 0, multiplicity = 1:

       Center              X                  Y                   Z               Mass
    ------------   -----------------  -----------------  -----------------  -----------------
         O            1.086464351952    -0.453755752696    -0.000010599380    15.994914619570
         O           -1.083185648048    -0.453754752696    -0.000009599380    15.994914619570
         O            0.001639351952     1.560269247304     0.000007400620    15.994914619570
         C            2.342109351952     0.269633247304    -0.000003599380    12.000000000000
         C           -2.338830648048     0.269633247304    -0.000001599380    12.000000000000
         C            3.434768351952    -0.774122752696     0.000010400620    12.000000000000
         C           -3.431489648048    -0.774122752696     0.000009400620    12.000000000000
         C           -0.014489548048     0.353494447304    -0.000002499380    12.000000000000
         H            2.381598351952     0.910991247304    -0.884420599380     1.007825032230
         H            2.381583351952     0.911000247304     0.884407400620     1.007825032230
         H           -2.378305648048     0.910998247304     0.884411400620     1.007825032230
         H           -2.378318648048     0.910993247304    -0.884416599380     1.007825032230
         H            4.413436351952    -0.286149752696     0.000014400620     1.007825032230
         H            3.360165351952    -1.406668752696     0.886832400620     1.007825032230
         H            3.360178351952    -1.406679752696    -0.886804599380     1.007825032230
         H           -4.410157648048    -0.286149752696     0.000013400620     1.007825032230
         H           -3.356898648048    -1.406676752696    -0.886807599380     1.007825032230
         H           -3.356887648048    -1.406670752696     0.886829400620     1.007825032230

  Basis Set: AUG-CC-PVTZ
    Blend: AUG-CC-PVTZ
  Basis Set: (AUG-CC-PVTZ AUX)
    Blend: AUG-CC-PVTZ-JKFIT
	 Reference Energy          =    -419.9365385897011720 [Eh]
	 Singles Energy            =      -0.0000000000000000 [Eh]
	 Same-Spin Energy          =      -0.4057418810906330 [Eh]
	 Opposite-Spin Energy      =      -1.3126543080337130 [Eh]
	 Correlation Energy        =      -1.7183961891243460 [Eh]
	 Total Energy              =    -421.6549347788255204 [Eh]

	 ================> DF-SCS-MP2 Energies <==================
	-----------------------------------------------------------
	 SCS Same-Spin Scale       =       0.3333333333333333 [-]
	 SCS Opposite-Spin Scale   =       1.2000000000000000 [-]
	 SCS Same-Spin Energy      =      -0.1352472936968777 [Eh]
	 SCS Opposite-Spin Energy  =      -1.5751851696404555 [Eh]
	 SCS Correlation Energy    =      -1.7104324633373331 [Eh]
	 SCS Total Energy          =    -421.6469710530384987 [Eh]
	-----------------------------------------------------------

  Dipole Moment: [D]
     X:    -0.2099      Y:    -0.4204      Z:     0.0000     Total:     0.4699

*** Psi4 exiting successfully. Buy a developer a beer!
