                               Psi4 1.3.2 release

  ==> Input File <==

--------------------------------------------------------------------------
#psi4
#
memory 32 gb

molecule  {
0 1
  O        1.0603400    -0.3884883    -0.0000387
  O       -1.0848130    -0.4327500    -0.0000360
  O        0.0000000     1.5813200     0.0000210
  C        2.3404510     0.2903800     0.0000000
  C       -2.3404490     0.2903790     0.0000040
  C        3.4330320    -0.7534130     0.0000320
  C       -3.4330330    -0.7534120     0.0000290
  C        0.0000010     0.3626890    -0.0000340
  H        2.3799910     0.9319240    -0.8843590
  H        2.3799380     0.9319250     0.8843600
  H       -2.3799400     0.9319200     0.8843670
  H       -2.3799890     0.9319290    -0.8843510
  H        4.4117640    -0.2654940     0.0000570
  H        3.3582860    -1.3857500     0.8869440
  H        3.3583340    -1.3857540    -0.8868810
  H       -4.4117630    -0.2654900     0.0000540
  H       -3.3583340    -1.3857510    -0.8868860
  H       -3.3582920    -1.3857530     0.8869380
units angstrom
no_reorient  #important for SAPT in psi4, default
symmetry c1  #important for SAPT in psi4, default
}

set PROPERTIES_ORIGIN ["COM"]
properties('MP2/aug-cc-pvtz', properties = ['dipole'])
--------------------------------------------------------------------------

    Molecular point group: c1
  Charge       = 0
  Multiplicity = 1
  Basis Set: AUG-CC-PVTZ
    Blend: AUG-CC-PVTZ
  Basis Set: (AUG-CC-PVTZ AUX)
    Blend: AUG-CC-PVTZ-JKFIT

    Orbital Energies [Eh]
    ---------------------

    Doubly Occupied:

       1A    -20.607180     2A    -20.603489     3A    -20.535983
       4A    -11.422702     5A    -11.296018     6A    -11.289815
       7A    -11.229149     8A    -11.224190     9A     -1.506477
      10A     -1.399306    11A     -1.352213    12A     -1.060517
      13A     -1.027808    14A     -0.898535    15A     -0.846161
      16A     -0.790083    17A     -0.749448    18A     -0.711718
      19A     -0.689448    20A     -0.662605    21A     -0.600134
      22A     -0.598970    23A     -0.589967    24A     -0.557753
      25A     -0.542979    26A     -0.539819    27A     -0.519031
      28A     -0.513495    29A     -0.506895    30A     -0.464993
      31A     -0.464217    32A     -0.463563

  @DF-RHF Final Energy:  -419.93908453288770

   => Energetics <=

    Nuclear Repulsion Energy =            393.0507716461783048
    One-Electron Energy =               -1353.4503946378467845
    Two-Electron Energy =                 540.4605384587807748
    Total Energy =                       -419.9390845328877049
  Basis Set: (AUG-CC-PVTZ AUX)
    Blend: AUG-CC-PVTZ-RI
    Molecular point group: c1

    Geometry (in Angstrom), charge = 0, multiplicity = 1:

       Center              X                  Y                   Z               Mass
    ------------   -----------------  -----------------  -----------------  -----------------
         O            1.063655387580    -0.414171742049    -0.000036650031    15.994914619570
         O           -1.081497612420    -0.458433442049    -0.000033950031    15.994914619570
         O            0.003315387580     1.555636557951     0.000023049969    15.994914619570
         C            2.343766387580     0.264696557951     0.000002049969    12.000000000000
         C           -2.337133612420     0.264695557951     0.000006049969    12.000000000000
         C            3.436347387580    -0.779096442049     0.000034049969    12.000000000000
         C           -3.429717612420    -0.779095442049     0.000031049969    12.000000000000
         C            0.003316387580     0.337005557951    -0.000031950031    12.000000000000
         H            2.383306387580     0.906240557951    -0.884356950031     1.007825032230
         H            2.383253387580     0.906241557951     0.884362049969     1.007825032230
         H           -2.376624612420     0.906236557951     0.884369049969     1.007825032230
         H           -2.376673612420     0.906245557951    -0.884348950031     1.007825032230
         H            4.415079387580    -0.291177442049     0.000059049969     1.007825032230
         H            3.361601387580    -1.411433442049     0.886946049969     1.007825032230
         H            3.361649387580    -1.411437442049    -0.886878950031     1.007825032230
         H           -4.408447612420    -0.291173442049     0.000056049969     1.007825032230
         H           -3.355018612420    -1.411434442049    -0.886883950031     1.007825032230
         H           -3.354976612420    -1.411436442049     0.886940049969     1.007825032230

  Basis Set: AUG-CC-PVTZ
    Blend: AUG-CC-PVTZ
  Basis Set: (AUG-CC-PVTZ AUX)
    Blend: AUG-CC-PVTZ-JKFIT
	 Reference Energy          =    -419.9390845328877049 [Eh]
	 Singles Energy            =      -0.0000000000000000 [Eh]
	 Same-Spin Energy          =      -0.4049591268290190 [Eh]
	 Opposite-Spin Energy      =      -1.3103345155888224 [Eh]
	 Correlation Energy        =      -1.7152936424178415 [Eh]
	 Total Energy              =    -421.6543781753055669 [Eh]

	 ================> DF-SCS-MP2 Energies <==================
	-----------------------------------------------------------
	 SCS Same-Spin Scale       =       0.3333333333333333 [-]
	 SCS Opposite-Spin Scale   =       1.2000000000000000 [-]
	 SCS Same-Spin Energy      =      -0.1349863756096730 [Eh]
	 SCS Opposite-Spin Energy  =      -1.5724014187065869 [Eh]
	 SCS Correlation Energy    =      -1.7073877943162599 [Eh]
	 SCS Total Energy          =    -421.6464723272039805 [Eh]
	-----------------------------------------------------------

  Dipole Moment: [D]
     X:     0.3121      Y:    -0.6911      Z:     0.0000     Total:     0.7583

*** Psi4 exiting successfully. Buy a developer a beer!
