                               Psi4 1.3.2 release

  ==> Input File <==

--------------------------------------------------------------------------
#psi4
#
memory 32 gb

molecule  {
0 1
  O        1.0848120    -0.4327500    -0.0000380
  O       -1.0848130    -0.4327500    -0.0000360
  O        0.0000000     1.5813200     0.0000210
  C        2.3404510     0.2903800     0.0000000
  C       -2.3528781     0.2683550     0.0000036
  C        3.4330320    -0.7534130     0.0000320
  C       -3.4330330    -0.7534120     0.0000290
  C        0.0000010     0.3626890    -0.0000340
  H        2.3799910     0.9319240    -0.8843590
  H        2.3799380     0.9319250     0.8843600
  H       -2.3799400     0.9319200     0.8843670
  H       -2.3799890     0.9319290    -0.8843510
  H        4.4117640    -0.2654940     0.0000570
  H        3.3582860    -1.3857500     0.8869440
  H        3.3583340    -1.3857540    -0.8868810
  H       -4.4117630    -0.2654900     0.0000540
  H       -3.3583340    -1.3857510    -0.8868860
  H       -3.3582920    -1.3857530     0.8869380
units angstrom
no_reorient  #important for SAPT in psi4, default
symmetry c1  #important for SAPT in psi4, default
}

set PROPERTIES_ORIGIN ["COM"]
properties('MP2/aug-cc-pvtz', properties = ['dipole'])
--------------------------------------------------------------------------

    Molecular point group: c1
  Charge       = 0
  Multiplicity = 1
  Basis Set: AUG-CC-PVTZ
    Blend: AUG-CC-PVTZ
  Basis Set: (AUG-CC-PVTZ AUX)
    Blend: AUG-CC-PVTZ-JKFIT

    Orbital Energies [Eh]
    ---------------------

    Doubly Occupied:

       1A    -20.607007     2A    -20.606187     3A    -20.544704
       4A    -11.429478     5A    -11.293159     6A    -11.291891
       7A    -11.225526     8A    -11.225242     9A     -1.496058
      10A     -1.393974    11A     -1.356880    12A     -1.059250
      13A     -1.028887    14A     -0.893522    15A     -0.843710
      16A     -0.790150    17A     -0.744671    18A     -0.706321
      19A     -0.690461    20A     -0.661260    21A     -0.599123
      22A     -0.598100    23A     -0.592407    24A     -0.556845
      25A     -0.541759    26A     -0.539643    27A     -0.520701
      28A     -0.516179    29A     -0.505095    30A     -0.469210
      31A     -0.467099    32A     -0.460966

  @DF-RHF Final Energy:  -419.93612720797853

   => Energetics <=

    Nuclear Repulsion Energy =            391.9389592638604540
    One-Electron Energy =               -1351.2392426835688184
    Two-Electron Energy =                 539.3641562117298918
    Total Energy =                       -419.9361272079785294
  Basis Set: (AUG-CC-PVTZ AUX)
    Blend: AUG-CC-PVTZ-RI
    Molecular point group: c1

    Geometry (in Angstrom), charge = 0, multiplicity = 1:

       Center              X                  Y                   Z               Mass
    ------------   -----------------  -----------------  -----------------  -----------------
         O            1.086075276737    -0.450198430570    -0.000036004210    15.994914619570
         O           -1.083549723263    -0.450198430570    -0.000034004210    15.994914619570
         O            0.001263276737     1.563871569430     0.000022995790    15.994914619570
         C            2.341714276737     0.272931569430     0.000001995790    12.000000000000
         C           -2.351614823263     0.250906569430     0.000005595790    12.000000000000
         C            3.434295276737    -0.770861430570     0.000033995790    12.000000000000
         C           -3.431769723263    -0.770860430570     0.000030995790    12.000000000000
         C            0.001264276737     0.345240569430    -0.000032004210    12.000000000000
         H            2.381254276737     0.914475569430    -0.884357004210     1.007825032230
         H            2.381201276737     0.914476569430     0.884361995790     1.007825032230
         H           -2.378676723263     0.914471569430     0.884368995790     1.007825032230
         H           -2.378725723263     0.914480569430    -0.884349004210     1.007825032230
         H            4.413027276737    -0.282942430570     0.000058995790     1.007825032230
         H            3.359549276737    -1.403198430570     0.886945995790     1.007825032230
         H            3.359597276737    -1.403202430570    -0.886879004210     1.007825032230
         H           -4.410499723263    -0.282938430570     0.000055995790     1.007825032230
         H           -3.357070723263    -1.403199430570    -0.886884004210     1.007825032230
         H           -3.357028723263    -1.403201430570     0.886939995790     1.007825032230

  Basis Set: AUG-CC-PVTZ
    Blend: AUG-CC-PVTZ
  Basis Set: (AUG-CC-PVTZ AUX)
    Blend: AUG-CC-PVTZ-JKFIT
	 Reference Energy          =    -419.9361272079785294 [Eh]
	 Singles Energy            =      -0.0000000000000000 [Eh]
	 Same-Spin Energy          =      -0.4059068412178473 [Eh]
	 Opposite-Spin Energy      =      -1.3126513419729120 [Eh]
	 Correlation Energy        =      -1.7185581831907593 [Eh]
	 Total Energy              =    -421.6546853911692665 [Eh]

	 ================> DF-SCS-MP2 Energies <==================
	-----------------------------------------------------------
	 SCS Same-Spin Scale       =       0.3333333333333333 [-]
	 SCS Opposite-Spin Scale   =       1.2000000000000000 [-]
	 SCS Same-Spin Energy      =      -0.1353022804059491 [Eh]
	 SCS Opposite-Spin Energy  =      -1.5751816103674943 [Eh]
	 SCS Correlation Energy    =      -1.7104838907734434 [Eh]
	 SCS Total Energy          =    -421.6466110987519755 [Eh]
	-----------------------------------------------------------

  Dipole Moment: [D]
     X:    -0.0389      Y:    -0.5495      Z:     0.0000     Total:     0.5509

*** Psi4 exiting successfully. Buy a developer a beer!
