                               Psi4 1.4a3.dev225

  ==> Input File <==

--------------------------------------------------------------------------
#psi4
#
memory 32 gb

molecule  {
0 1
  O        1.0848250    -0.4328680    -0.0000110
  O       -1.0848250    -0.4328670    -0.0000100
  O        0.0000000     1.5811570     0.0000070
  C        2.3404700     0.2905210    -0.0000040
  C       -2.3404700     0.2905210    -0.0000020
  C        3.4331290    -0.7532350     0.0000100
  C       -3.4331290    -0.7532350     0.0000090
  C        0.0000000     0.3825560    -0.0000028
  H        2.3799590     0.9318790    -0.8844210
  H        2.3799440     0.9318880     0.8844070
  H       -2.3799450     0.9318860     0.8844110
  H       -2.3799580     0.9318810    -0.8844170
  H        4.4117970    -0.2652620     0.0000140
  H        3.3585260    -1.3857810     0.8868320
  H        3.3585390    -1.3857920    -0.8868050
  H       -4.4117970    -0.2652620     0.0000130
  H       -3.3585380    -1.3857890    -0.8868080
  H       -3.3585270    -1.3857830     0.8868290
units angstrom
no_reorient  #important for SAPT in psi4, default
symmetry c1  #important for SAPT in psi4, default
}

set PROPERTIES_ORIGIN ["COM"]
properties('MP2/aug-cc-pvtz', properties = ['dipole'])
--------------------------------------------------------------------------

    Molecular point group: c1
  Charge       = 0
  Multiplicity = 1
  Basis Set: AUG-CC-PVTZ
    Blend: AUG-CC-PVTZ
  Basis Set: (AUG-CC-PVTZ AUX)
    Blend: AUG-CC-PVTZ-JKFIT

    Orbital Energies [Eh]
    ---------------------

    Doubly Occupied:

       1A    -20.604758     2A    -20.604733     3A    -20.550708
       4A    -11.428540     5A    -11.290780     6A    -11.290779
       7A    -11.224903     8A    -11.224903     9A     -1.495604
      10A     -1.388835    11A     -1.369598    12A     -1.054248
      13A     -1.024405    14A     -0.890228    15A     -0.843699
      16A     -0.790430    17A     -0.742141    18A     -0.705800
      19A     -0.695014    20A     -0.661169    21A     -0.598539
      22A     -0.597448    23A     -0.593057    24A     -0.554714
      25A     -0.540421    26A     -0.535561    27A     -0.518768
      28A     -0.515805    29A     -0.509420    30A     -0.473188
      31A     -0.471771    32A     -0.462338

  @DF-RHF Final Energy:  -419.93648849783528

   => Energetics <=

    Nuclear Repulsion Energy =            391.9038294708772696
    One-Electron Energy =               -1351.1760295725875949
    Two-Electron Energy =                 539.3357116038749837
    Total Energy =                       -419.9364884978352848
  Basis Set: (AUG-CC-PVTZ AUX)
    Blend: AUG-CC-PVTZ-RI
    Molecular point group: c1

    Geometry (in Angstrom), charge = 0, multiplicity = 1:

       Center              X                  Y                   Z               Mass
    ------------   -----------------  -----------------  -----------------  -----------------
         O            1.084825000000    -0.454586543077    -0.000010609544    15.994914619570
         O           -1.084825000000    -0.454585543077    -0.000009609544    15.994914619570
         O            0.000000000000     1.559438456923     0.000007390456    15.994914619570
         C            2.340470000000     0.268802456923    -0.000003609544    12.000000000000
         C           -2.340470000000     0.268802456923    -0.000001609544    12.000000000000
         C            3.433129000000    -0.774953543077     0.000010390456    12.000000000000
         C           -3.433129000000    -0.774953543077     0.000009390456    12.000000000000
         C            0.000000000000     0.360837456923    -0.000002409544    12.000000000000
         H            2.379959000000     0.910160456923    -0.884420609544     1.007825032230
         H            2.379944000000     0.910169456923     0.884407390456     1.007825032230
         H           -2.379945000000     0.910167456923     0.884411390456     1.007825032230
         H           -2.379958000000     0.910162456923    -0.884416609544     1.007825032230
         H            4.411797000000    -0.286980543077     0.000014390456     1.007825032230
         H            3.358526000000    -1.407499543077     0.886832390456     1.007825032230
         H            3.358539000000    -1.407510543077    -0.886804609544     1.007825032230
         H           -4.411797000000    -0.286980543077     0.000013390456     1.007825032230
         H           -3.358538000000    -1.407507543077    -0.886807609544     1.007825032230
         H           -3.358527000000    -1.407501543077     0.886829390456     1.007825032230

  Basis Set: AUG-CC-PVTZ
    Blend: AUG-CC-PVTZ
  Basis Set: (AUG-CC-PVTZ AUX)
    Blend: AUG-CC-PVTZ-JKFIT
	 Reference Energy          =    -419.9364884978352848 [Eh]
	 Singles Energy            =      -0.0000000000000000 [Eh]
	 Same-Spin Energy          =      -0.4057026907861834 [Eh]
	 Opposite-Spin Energy      =      -1.3126500530672192 [Eh]
	 Correlation Energy        =      -1.7183527438534025 [Eh]
	 Total Energy              =    -421.6548412416887004 [Eh]

	 ================> DF-SCS-MP2 Energies <==================
	-----------------------------------------------------------
	 SCS Same-Spin Scale       =       0.3333333333333333 [-]
	 SCS Opposite-Spin Scale   =       1.2000000000000000 [-]
	 SCS Same-Spin Energy      =      -0.1352342302620611 [Eh]
	 SCS Opposite-Spin Energy  =      -1.5751800636806630 [Eh]
	 SCS Correlation Energy    =      -1.7104142939427240 [Eh]
	 SCS Total Energy          =    -421.6469027917780181 [Eh]
	-----------------------------------------------------------

  Dipole Moment: [D]
     X:    -0.0000      Y:    -0.3544      Z:     0.0000     Total:     0.3544

*** Psi4 exiting successfully. Buy a developer a beer!
