                               Psi4 1.3.2 release

  ==> Input File <==

--------------------------------------------------------------------------
#psi4
#
memory 32 gb

molecule  {
0 1
  O        1.0848120    -0.4327500    -0.0000380
  O       -1.0848130    -0.4327500    -0.0000360
  O        0.0000000     1.5813200     0.0000210
  C        2.1671376     0.1905678    -0.0000052
  C       -2.3404490     0.2903790     0.0000040
  C        3.4330320    -0.7534130     0.0000320
  C       -3.4330330    -0.7534120     0.0000290
  C        0.0000010     0.3626890    -0.0000340
  H        2.3799910     0.9319240    -0.8843590
  H        2.3799380     0.9319250     0.8843600
  H       -2.3799400     0.9319200     0.8843670
  H       -2.3799890     0.9319290    -0.8843510
  H        4.4117640    -0.2654940     0.0000570
  H        3.3582860    -1.3857500     0.8869440
  H        3.3583340    -1.3857540    -0.8868810
  H       -4.4117630    -0.2654900     0.0000540
  H       -3.3583340    -1.3857510    -0.8868860
  H       -3.3582920    -1.3857530     0.8869380
units angstrom
no_reorient  #important for SAPT in psi4, default
symmetry c1  #important for SAPT in psi4, default
}

set PROPERTIES_ORIGIN ["COM"]
properties('MP2/aug-cc-pvtz', properties = ['dipole'])
--------------------------------------------------------------------------

    Molecular point group: c1
  Charge       = 0
  Multiplicity = 1
  Basis Set: AUG-CC-PVTZ
    Blend: AUG-CC-PVTZ
  Basis Set: (AUG-CC-PVTZ AUX)
    Blend: AUG-CC-PVTZ-JKFIT

    Orbital Energies [Eh]
    ---------------------

    Doubly Occupied:

       1A    -20.629142     2A    -20.617860     3A    -20.559428
       4A    -11.445135     5A    -11.299011     6A    -11.293491
       7A    -11.230656     8A    -11.220368     9A     -1.544698
      10A     -1.441004    11A     -1.373061    12A     -1.064062
      13A     -1.015282    14A     -0.916204    15A     -0.847897
      16A     -0.797593    17A     -0.769800    18A     -0.731453
      19A     -0.706938    20A     -0.672413    21A     -0.634192
      22A     -0.604186    23A     -0.590431    24A     -0.556158
      25A     -0.550661    26A     -0.548318    27A     -0.524531
      28A     -0.510719    29A     -0.484484    30A     -0.475654
      31A     -0.463045    32A     -0.427622

  @DF-RHF Final Energy:  -419.89475205305052

   => Energetics <=

    Nuclear Repulsion Energy =            395.4267493986426985
    One-Electron Energy =               -1357.5520086816968615
    Two-Electron Energy =                 542.2305072300036954
    Total Energy =                       -419.8947520530505244
  Basis Set: (AUG-CC-PVTZ AUX)
    Blend: AUG-CC-PVTZ-RI
    Molecular point group: c1

    Geometry (in Angstrom), charge = 0, multiplicity = 1:

       Center              X                  Y                   Z               Mass
    ------------   -----------------  -----------------  -----------------  -----------------
         O            1.102427662287    -0.442291987010    -0.000035516334    15.994914619570
         O           -1.067197337713    -0.442291987010    -0.000033516334    15.994914619570
         O            0.017615662287     1.571778012990     0.000023483666    15.994914619570
         C            2.184753262287     0.181025812990    -0.000002716334    12.000000000000
         C           -2.322833337713     0.280837012990     0.000006483666    12.000000000000
         C            3.450647662287    -0.762954987010     0.000034483666    12.000000000000
         C           -3.415417337713    -0.762953987010     0.000031483666    12.000000000000
         C            0.017616662287     0.353147012990    -0.000031516334    12.000000000000
         H            2.397606662287     0.922382012990    -0.884356516334     1.007825032230
         H            2.397553662287     0.922383012990     0.884362483666     1.007825032230
         H           -2.362324337713     0.922378012990     0.884369483666     1.007825032230
         H           -2.362373337713     0.922387012990    -0.884348516334     1.007825032230
         H            4.429379662287    -0.275035987010     0.000059483666     1.007825032230
         H            3.375901662287    -1.395291987010     0.886946483666     1.007825032230
         H            3.375949662287    -1.395295987010    -0.886878516334     1.007825032230
         H           -4.394147337713    -0.275031987010     0.000056483666     1.007825032230
         H           -3.340718337713    -1.395292987010    -0.886883516334     1.007825032230
         H           -3.340676337713    -1.395294987010     0.886940483666     1.007825032230

  Basis Set: AUG-CC-PVTZ
    Blend: AUG-CC-PVTZ
  Basis Set: (AUG-CC-PVTZ AUX)
    Blend: AUG-CC-PVTZ-JKFIT
	 Reference Energy          =    -419.8947520530505244 [Eh]
	 Singles Energy            =      -0.0000000000000000 [Eh]
	 Same-Spin Energy          =      -0.4068865779097702 [Eh]
	 Opposite-Spin Energy      =      -1.3130337114082971 [Eh]
	 Correlation Energy        =      -1.7199202893180674 [Eh]
	 Total Energy              =    -421.6146723423685785 [Eh]

	 ================> DF-SCS-MP2 Energies <==================
	-----------------------------------------------------------
	 SCS Same-Spin Scale       =       0.3333333333333333 [-]
	 SCS Opposite-Spin Scale   =       1.2000000000000000 [-]
	 SCS Same-Spin Energy      =      -0.1356288593032567 [Eh]
	 SCS Opposite-Spin Energy  =      -1.5756404536899564 [Eh]
	 SCS Correlation Energy    =      -1.7112693129932133 [Eh]
	 SCS Total Energy          =    -421.6060213660437626 [Eh]
	-----------------------------------------------------------

  Dipole Moment: [D]
     X:    -1.0417      Y:    -0.6762      Z:     0.0000     Total:     1.2419

*** Psi4 exiting successfully. Buy a developer a beer!
