                               Psi4 1.3.2 release

  ==> Input File <==

--------------------------------------------------------------------------
#psi4
#
memory 32 gb

molecule  {
0 1
  O        1.0848120    -0.4327500    -0.0000380
  O       -1.0848130    -0.4327500    -0.0000360
  O        0.0000000     1.5813200     0.0000210
  C        2.5137644     0.3901922     0.0000052
  C       -2.3404490     0.2903790     0.0000040
  C        3.4330320    -0.7534130     0.0000320
  C       -3.4330330    -0.7534120     0.0000290
  C        0.0000010     0.3626890    -0.0000340
  H        2.3799910     0.9319240    -0.8843590
  H        2.3799380     0.9319250     0.8843600
  H       -2.3799400     0.9319200     0.8843670
  H       -2.3799890     0.9319290    -0.8843510
  H        4.4117640    -0.2654940     0.0000570
  H        3.3582860    -1.3857500     0.8869440
  H        3.3583340    -1.3857540    -0.8868810
  H       -4.4117630    -0.2654900     0.0000540
  H       -3.3583340    -1.3857510    -0.8868860
  H       -3.3582920    -1.3857530     0.8869380
units angstrom
no_reorient  #important for SAPT in psi4, default
symmetry c1  #important for SAPT in psi4, default
}

set PROPERTIES_ORIGIN ["COM"]
properties('MP2/aug-cc-pvtz', properties = ['dipole'])
--------------------------------------------------------------------------

    Molecular point group: c1
  Charge       = 0
  Multiplicity = 1
  Basis Set: AUG-CC-PVTZ
    Blend: AUG-CC-PVTZ
  Basis Set: (AUG-CC-PVTZ AUX)
    Blend: AUG-CC-PVTZ-JKFIT

    Orbital Energies [Eh]
    ---------------------

    Doubly Occupied:

       1A    -20.595765     2A    -20.578797     3A    -20.531611
       4A    -11.413221     5A    -11.305928     6A    -11.284403
       7A    -11.235281     8A    -11.220229     9A     -1.473680
      10A     -1.362019    11A     -1.332647    12A     -1.066246
      13A     -1.029214    14A     -0.882939    15A     -0.851946
      16A     -0.780078    17A     -0.716064    18A     -0.696711
      19A     -0.675784    20A     -0.668985    21A     -0.598663
      22A     -0.595632    23A     -0.585678    24A     -0.550912
      25A     -0.545972    26A     -0.539213    27A     -0.516741
      28A     -0.510245    29A     -0.497590    30A     -0.461129
      31A     -0.457293    32A     -0.454999

  @DF-RHF Final Energy:  -419.90933590533189

   => Energetics <=

    Nuclear Repulsion Energy =            388.8852152837189351
    One-Electron Energy =               -1345.5578777782702673
    Two-Electron Energy =                 536.7633265892194459
    Total Energy =                       -419.9093359053318864
  Basis Set: (AUG-CC-PVTZ AUX)
    Blend: AUG-CC-PVTZ-RI
    Molecular point group: c1

    Geometry (in Angstrom), charge = 0, multiplicity = 1:

       Center              X                  Y                   Z               Mass
    ------------   -----------------  -----------------  -----------------  -----------------
         O            1.067196287470    -0.462581941679    -0.000036573397    15.994914619570
         O           -1.102428712530    -0.462581941679    -0.000034573397    15.994914619570
         O           -0.017615712530     1.551488058321     0.000022426603    15.994914619570
         C            2.496148687470     0.360360258321     0.000006626603    12.000000000000
         C           -2.358064712530     0.260547058321     0.000005426603    12.000000000000
         C            3.415416287470    -0.783244941679     0.000033426603    12.000000000000
         C           -3.450648712530    -0.783243941679     0.000030426603    12.000000000000
         C           -0.017614712530     0.332857058321    -0.000032573397    12.000000000000
         H            2.362375287470     0.902092058321    -0.884357573397     1.007825032230
         H            2.362322287470     0.902093058321     0.884361426603     1.007825032230
         H           -2.397555712530     0.902088058321     0.884368426603     1.007825032230
         H           -2.397604712530     0.902097058321    -0.884349573397     1.007825032230
         H            4.394148287470    -0.295325941679     0.000058426603     1.007825032230
         H            3.340670287470    -1.415581941679     0.886945426603     1.007825032230
         H            3.340718287470    -1.415585941679    -0.886879573397     1.007825032230
         H           -4.429378712530    -0.295321941679     0.000055426603     1.007825032230
         H           -3.375949712530    -1.415582941679    -0.886884573397     1.007825032230
         H           -3.375907712530    -1.415584941679     0.886939426603     1.007825032230

  Basis Set: AUG-CC-PVTZ
    Blend: AUG-CC-PVTZ
  Basis Set: (AUG-CC-PVTZ AUX)
    Blend: AUG-CC-PVTZ-JKFIT
	 Reference Energy          =    -419.9093359053318864 [Eh]
	 Singles Energy            =      -0.0000000000000000 [Eh]
	 Same-Spin Energy          =      -0.4068082411178549 [Eh]
	 Opposite-Spin Energy      =      -1.3156524045646683 [Eh]
	 Correlation Energy        =      -1.7224606456825231 [Eh]
	 Total Energy              =    -421.6317965510144177 [Eh]

	 ================> DF-SCS-MP2 Energies <==================
	-----------------------------------------------------------
	 SCS Same-Spin Scale       =       0.3333333333333333 [-]
	 SCS Opposite-Spin Scale   =       1.2000000000000000 [-]
	 SCS Same-Spin Energy      =      -0.1356027470392849 [Eh]
	 SCS Opposite-Spin Energy  =      -1.5787828854776018 [Eh]
	 SCS Correlation Energy    =      -1.7143856325168867 [Eh]
	 SCS Total Energy          =    -421.6237215378487804 [Eh]
	-----------------------------------------------------------

  Dipole Moment: [D]
     X:     0.9417      Y:    -0.4441      Z:     0.0000     Total:     1.0412

*** Psi4 exiting successfully. Buy a developer a beer!
