                               Psi4 1.3.2 release

  ==> Input File <==

--------------------------------------------------------------------------
#psi4
#
memory 32 gb

molecule  {
0 1
  O        1.0724935    -0.4095893    -0.0432793
  O       -1.0848130    -0.4327500    -0.0000360
  O        0.0000000     1.5813200     0.0000210
  C        2.3404510     0.2903800     0.0000000
  C       -2.3404490     0.2903790     0.0000040
  C        3.4330320    -0.7534130     0.0000320
  C       -3.4330330    -0.7534120     0.0000290
  C        0.0000010     0.3626890    -0.0000340
  H        2.3799910     0.9319240    -0.8843590
  H        2.3799380     0.9319250     0.8843600
  H       -2.3799400     0.9319200     0.8843670
  H       -2.3799890     0.9319290    -0.8843510
  H        4.4117640    -0.2654940     0.0000570
  H        3.3582860    -1.3857500     0.8869440
  H        3.3583340    -1.3857540    -0.8868810
  H       -4.4117630    -0.2654900     0.0000540
  H       -3.3583340    -1.3857510    -0.8868860
  H       -3.3582920    -1.3857530     0.8869380
units angstrom
no_reorient  #important for SAPT in psi4, default
symmetry c1  #important for SAPT in psi4, default
}

set PROPERTIES_ORIGIN ["COM"]
properties('MP2/aug-cc-pvtz', properties = ['dipole'])
--------------------------------------------------------------------------

    Molecular point group: c1
  Charge       = 0
  Multiplicity = 1
  Basis Set: AUG-CC-PVTZ
    Blend: AUG-CC-PVTZ
  Basis Set: (AUG-CC-PVTZ AUX)
    Blend: AUG-CC-PVTZ-JKFIT

    Orbital Energies [Eh]
    ---------------------

    Doubly Occupied:

       1A    -20.607063     2A    -20.605353     3A    -20.540543
       4A    -11.426116     5A    -11.293904     6A    -11.290928
       7A    -11.227343     8A    -11.224913     9A     -1.501097
      10A     -1.397039    11A     -1.354755    12A     -1.058409
      13A     -1.027146    14A     -0.895624    15A     -0.845748
      16A     -0.790635    17A     -0.747047    18A     -0.709218
      19A     -0.690197    20A     -0.662453    21A     -0.600563
      22A     -0.597190    23A     -0.590574    24A     -0.556398
      25A     -0.542498    26A     -0.538713    27A     -0.519104
      28A     -0.514758    29A     -0.506852    30A     -0.467441
      31A     -0.465755    32A     -0.464019

  @DF-RHF Final Energy:  -419.93829785438663

   => Energetics <=

    Nuclear Repulsion Energy =            392.4736298733380977
    One-Electron Energy =               -1352.3050647290749566
    Two-Electron Energy =                 539.8931370013502828
    Total Energy =                       -419.9382978543866329
  Basis Set: (AUG-CC-PVTZ AUX)
    Blend: AUG-CC-PVTZ-RI
    Molecular point group: c1

    Geometry (in Angstrom), charge = 0, multiplicity = 1:

       Center              X                  Y                   Z               Mass
    ------------   -----------------  -----------------  -----------------  -----------------
         O            1.074162358148    -0.432414025008    -0.037419108707    15.994914619570
         O           -1.083144141852    -0.455574725008     0.005824191293    15.994914619570
         O            0.001668858148     1.558495274992     0.005881191293    15.994914619570
         C            2.342119858148     0.267555274992     0.005860191293    12.000000000000
         C           -2.338780141852     0.267554274992     0.005864191293    12.000000000000
         C            3.434700858148    -0.776237725008     0.005892191293    12.000000000000
         C           -3.431364141852    -0.776236725008     0.005889191293    12.000000000000
         C            0.001669858148     0.339864274992     0.005826191293    12.000000000000
         H            2.381659858148     0.909099274992    -0.878498808707     1.007825032230
         H            2.381606858148     0.909100274992     0.890220191293     1.007825032230
         H           -2.378271141852     0.909095274992     0.890227191293     1.007825032230
         H           -2.378320141852     0.909104274992    -0.878490808707     1.007825032230
         H            4.413432858148    -0.288318725008     0.005917191293     1.007825032230
         H            3.359954858148    -1.408574725008     0.892804191293     1.007825032230
         H            3.360002858148    -1.408578725008    -0.881020808707     1.007825032230
         H           -4.410094141852    -0.288314725008     0.005914191293     1.007825032230
         H           -3.356665141852    -1.408575725008    -0.881025808707     1.007825032230
         H           -3.356623141852    -1.408577725008     0.892798191293     1.007825032230

  Basis Set: AUG-CC-PVTZ
    Blend: AUG-CC-PVTZ
  Basis Set: (AUG-CC-PVTZ AUX)
    Blend: AUG-CC-PVTZ-JKFIT
	 Reference Energy          =    -419.9382978543866329 [Eh]
	 Singles Energy            =      -0.0000000000000000 [Eh]
	 Same-Spin Energy          =      -0.4053588886446438 [Eh]
	 Opposite-Spin Energy      =      -1.3114563256706380 [Eh]
	 Correlation Energy        =      -1.7168152143152817 [Eh]
	 Total Energy              =    -421.6551130687018940 [Eh]

	 ================> DF-SCS-MP2 Energies <==================
	-----------------------------------------------------------
	 SCS Same-Spin Scale       =       0.3333333333333333 [-]
	 SCS Opposite-Spin Scale   =       1.2000000000000000 [-]
	 SCS Same-Spin Energy      =      -0.1351196295482146 [Eh]
	 SCS Opposite-Spin Energy  =      -1.5737475908047656 [Eh]
	 SCS Correlation Energy    =      -1.7088672203529802 [Eh]
	 SCS Total Energy          =    -421.6471650747396325 [Eh]
	-----------------------------------------------------------

  Dipole Moment: [D]
     X:     0.1524      Y:    -0.6037      Z:     0.0518     Total:     0.6248

*** Psi4 exiting successfully. Buy a developer a beer!
