                               Psi4 1.3.2 release

  ==> Input File <==

--------------------------------------------------------------------------
#psi4
#
memory 32 gb

molecule  {
0 1
  O        1.0848120    -0.4327500    -0.0000380
  O       -1.0848130    -0.4327500    -0.0000360
  O        0.0000000     1.5813200     0.0000210
  C        2.3404510     0.2903800     0.0000000
  C       -2.2869474     0.3762062     0.0000053
  C        3.4330320    -0.7534130     0.0000320
  C       -3.4330330    -0.7534120     0.0000290
  C        0.0000010     0.3626890    -0.0000340
  H        2.3799910     0.9319240    -0.8843590
  H        2.3799380     0.9319250     0.8843600
  H       -2.3799400     0.9319200     0.8843670
  H       -2.3799890     0.9319290    -0.8843510
  H        4.4117640    -0.2654940     0.0000570
  H        3.3582860    -1.3857500     0.8869440
  H        3.3583340    -1.3857540    -0.8868810
  H       -4.4117630    -0.2654900     0.0000540
  H       -3.3583340    -1.3857510    -0.8868860
  H       -3.3582920    -1.3857530     0.8869380
units angstrom
no_reorient  #important for SAPT in psi4, default
symmetry c1  #important for SAPT in psi4, default
}

set PROPERTIES_ORIGIN ["COM"]
properties('MP2/aug-cc-pvtz', properties = ['dipole'])
--------------------------------------------------------------------------

    Molecular point group: c1
  Charge       = 0
  Multiplicity = 1
  Basis Set: AUG-CC-PVTZ
    Blend: AUG-CC-PVTZ
  Basis Set: (AUG-CC-PVTZ AUX)
    Blend: AUG-CC-PVTZ-JKFIT

    Orbital Energies [Eh]
    ---------------------

    Doubly Occupied:

       1A    -20.611093     2A    -20.607532     3A    -20.546429
       4A    -11.429407     5A    -11.292356     6A    -11.288882
       7A    -11.226342     8A    -11.225908     9A     -1.499223
      10A     -1.396583    11A     -1.358785    12A     -1.051298
      13A     -1.014265    14A     -0.891345    15A     -0.851133
      16A     -0.795008    17A     -0.743711    18A     -0.711773
      19A     -0.693792    20A     -0.667632    21A     -0.599066
      22A     -0.598499    23A     -0.589080    24A     -0.552167
      25A     -0.541486    26A     -0.537045    27A     -0.517812
      28A     -0.515742    29A     -0.490011    30A     -0.476168
      31A     -0.471398    32A     -0.467372

  @DF-RHF Final Energy:  -419.92669397017124

   => Energetics <=

    Nuclear Repulsion Energy =            391.9003598640659902
    One-Electron Energy =               -1351.1374184805192726
    Two-Electron Energy =                 539.3103646462820961
    Total Energy =                       -419.9266939701711863
  Basis Set: (AUG-CC-PVTZ AUX)
    Blend: AUG-CC-PVTZ-RI
    Molecular point group: c1

    Geometry (in Angstrom), charge = 0, multiplicity = 1:

       Center              X                  Y                   Z               Mass
    ------------   -----------------  -----------------  -----------------  -----------------
         O            1.079374037238    -0.461160497126    -0.000036176999    15.994914619570
         O           -1.090250962762    -0.461160497126    -0.000034176999    15.994914619570
         O           -0.005437962762     1.552909502874     0.000022823001    15.994914619570
         C            2.335013037238     0.261969502874     0.000001823001    12.000000000000
         C           -2.292385362762     0.347795702874     0.000007123001    12.000000000000
         C            3.427594037238    -0.781823497126     0.000033823001    12.000000000000
         C           -3.438470962762    -0.781822497126     0.000030823001    12.000000000000
         C           -0.005436962762     0.334278502874    -0.000032176999    12.000000000000
         H            2.374553037238     0.903513502874    -0.884357176999     1.007825032230
         H            2.374500037238     0.903514502874     0.884361823001     1.007825032230
         H           -2.385377962762     0.903509502874     0.884368823001     1.007825032230
         H           -2.385426962762     0.903518502874    -0.884349176999     1.007825032230
         H            4.406326037238    -0.293904497126     0.000058823001     1.007825032230
         H            3.352848037238    -1.414160497126     0.886945823001     1.007825032230
         H            3.352896037238    -1.414164497126    -0.886879176999     1.007825032230
         H           -4.417200962762    -0.293900497126     0.000055823001     1.007825032230
         H           -3.363771962762    -1.414161497126    -0.886884176999     1.007825032230
         H           -3.363729962762    -1.414163497126     0.886939823001     1.007825032230

  Basis Set: AUG-CC-PVTZ
    Blend: AUG-CC-PVTZ
  Basis Set: (AUG-CC-PVTZ AUX)
    Blend: AUG-CC-PVTZ-JKFIT
	 Reference Energy          =    -419.9266939701712431 [Eh]
	 Singles Energy            =      -0.0000000000000000 [Eh]
	 Same-Spin Energy          =      -0.4057304536364105 [Eh]
	 Opposite-Spin Energy      =      -1.3133628367593713 [Eh]
	 Correlation Energy        =      -1.7190932903957816 [Eh]
	 Total Energy              =    -421.6457872605670332 [Eh]

	 ================> DF-SCS-MP2 Energies <==================
	-----------------------------------------------------------
	 SCS Same-Spin Scale       =       0.3333333333333333 [-]
	 SCS Opposite-Spin Scale   =       1.2000000000000000 [-]
	 SCS Same-Spin Energy      =      -0.1352434845454701 [Eh]
	 SCS Opposite-Spin Energy  =      -1.5760354041112454 [Eh]
	 SCS Correlation Energy    =      -1.7112788886567156 [Eh]
	 SCS Total Energy          =    -421.6379728588279363 [Eh]
	-----------------------------------------------------------

  Dipole Moment: [D]
     X:     0.1698      Y:    -0.3938      Z:     0.0000     Total:     0.4288

*** Psi4 exiting successfully. Buy a developer a beer!
