                               Psi4 1.3.2 release

  ==> Input File <==

--------------------------------------------------------------------------
#psi4
#
memory 32 gb

molecule  {
0 1
  O        1.0848120    -0.4327500    -0.0000380
  O       -1.0848130    -0.4327500    -0.0000360
  O        0.0000000     1.5813200     0.0000210
  C        2.3404510     0.2903800     0.0000000
  C       -2.2579829     0.4176673     0.0000059
  C        3.4330320    -0.7534130     0.0000320
  C       -3.4330330    -0.7534120     0.0000290
  C        0.0000010     0.3626890    -0.0000340
  H        2.3799910     0.9319240    -0.8843590
  H        2.3799380     0.9319250     0.8843600
  H       -2.3799400     0.9319200     0.8843670
  H       -2.3799890     0.9319290    -0.8843510
  H        4.4117640    -0.2654940     0.0000570
  H        3.3582860    -1.3857500     0.8869440
  H        3.3583340    -1.3857540    -0.8868810
  H       -4.4117630    -0.2654900     0.0000540
  H       -3.3583340    -1.3857510    -0.8868860
  H       -3.3582920    -1.3857530     0.8869380
units angstrom
no_reorient  #important for SAPT in psi4, default
symmetry c1  #important for SAPT in psi4, default
}

set PROPERTIES_ORIGIN ["COM"]
properties('MP2/aug-cc-pvtz', properties = ['dipole'])
--------------------------------------------------------------------------

    Molecular point group: c1
  Charge       = 0
  Multiplicity = 1
  Basis Set: AUG-CC-PVTZ
    Blend: AUG-CC-PVTZ
  Basis Set: (AUG-CC-PVTZ AUX)
    Blend: AUG-CC-PVTZ-JKFIT

    Orbital Energies [Eh]
    ---------------------

    Doubly Occupied:

       1A    -20.613385     2A    -20.607904     3A    -20.547429
       4A    -11.429756     5A    -11.292649     6A    -11.288493
       7A    -11.226303     8A    -11.226138     9A     -1.500847
      10A     -1.397876    11A     -1.359870    12A     -1.050224
      13A     -1.008610    14A     -0.890558    15A     -0.853967
      16A     -0.796284    17A     -0.743504    18A     -0.714876
      19A     -0.695456    20A     -0.670583    21A     -0.600085
      22A     -0.599589    23A     -0.589497    24A     -0.551128
      25A     -0.541109    26A     -0.537853    27A     -0.519649
      28A     -0.518155    29A     -0.479695    30A     -0.472616
      31A     -0.472018    32A     -0.468070

  @DF-RHF Final Energy:  -419.91476084916081

   => Energetics <=

    Nuclear Repulsion Energy =            391.9370574044360183
    One-Electron Energy =               -1351.1752896177620187
    Two-Electron Energy =                 539.3234713641652434
    Total Energy =                       -419.9147608491607571
  Basis Set: (AUG-CC-PVTZ AUX)
    Blend: AUG-CC-PVTZ-RI
    Molecular point group: c1

    Geometry (in Angstrom), charge = 0, multiplicity = 1:

       Center              X                  Y                   Z               Mass
    ------------   -----------------  -----------------  -----------------  -----------------
         O            1.076430066501    -0.465374630466    -0.000036237983    15.994914619570
         O           -1.093194933499    -0.465374630466    -0.000034237983    15.994914619570
         O           -0.008381933499     1.548695369534     0.000022762017    15.994914619570
         C            2.332069066501     0.257755369534     0.000001762017    12.000000000000
         C           -2.266364833499     0.385042669534     0.000007662017    12.000000000000
         C            3.424650066501    -0.786037630466     0.000033762017    12.000000000000
         C           -3.441414933499    -0.786036630466     0.000030762017    12.000000000000
         C           -0.008380933499     0.330064369534    -0.000032237983    12.000000000000
         H            2.371609066501     0.899299369534    -0.884357237983     1.007825032230
         H            2.371556066501     0.899300369534     0.884361762017     1.007825032230
         H           -2.388321933499     0.899295369534     0.884368762017     1.007825032230
         H           -2.388370933499     0.899304369534    -0.884349237983     1.007825032230
         H            4.403382066501    -0.298118630466     0.000058762017     1.007825032230
         H            3.349904066501    -1.418374630466     0.886945762017     1.007825032230
         H            3.349952066501    -1.418378630466    -0.886879237983     1.007825032230
         H           -4.420144933499    -0.298114630466     0.000055762017     1.007825032230
         H           -3.366715933499    -1.418375630466    -0.886884237983     1.007825032230
         H           -3.366673933499    -1.418377630466     0.886939762017     1.007825032230

  Basis Set: AUG-CC-PVTZ
    Blend: AUG-CC-PVTZ
  Basis Set: (AUG-CC-PVTZ AUX)
    Blend: AUG-CC-PVTZ-JKFIT
	 Reference Energy          =    -419.9147608491608139 [Eh]
	 Singles Energy            =      -0.0000000000000000 [Eh]
	 Same-Spin Energy          =      -0.4060228317919772 [Eh]
	 Opposite-Spin Energy      =      -1.3143320295642265 [Eh]
	 Correlation Energy        =      -1.7203548613562036 [Eh]
	 Total Energy              =    -421.6351157105170273 [Eh]

	 ================> DF-SCS-MP2 Energies <==================
	-----------------------------------------------------------
	 SCS Same-Spin Scale       =       0.3333333333333333 [-]
	 SCS Opposite-Spin Scale   =       1.2000000000000000 [-]
	 SCS Same-Spin Energy      =      -0.1353409439306590 [Eh]
	 SCS Opposite-Spin Energy  =      -1.5771984354770716 [Eh]
	 SCS Correlation Energy    =      -1.7125393794077306 [Eh]
	 SCS Total Energy          =    -421.6273002285685720 [Eh]
	-----------------------------------------------------------

  Dipole Moment: [D]
     X:     0.2646      Y:    -0.3390      Z:     0.0000     Total:     0.4300

*** Psi4 exiting successfully. Buy a developer a beer!
