                               Psi4 1.3.2 release

  ==> Input File <==

--------------------------------------------------------------------------
#psi4
#
memory 32 gb

molecule  {
0 1
  O        1.0617198    -0.3855758    -0.0864679
  O       -1.0848130    -0.4327500    -0.0000360
  O        0.0000000     1.5813200     0.0000210
  C        2.3404510     0.2903800     0.0000000
  C       -2.3404490     0.2903790     0.0000040
  C        3.4330320    -0.7534130     0.0000320
  C       -3.4330330    -0.7534120     0.0000290
  C        0.0000010     0.3626890    -0.0000340
  H        2.3799910     0.9319240    -0.8843590
  H        2.3799380     0.9319250     0.8843600
  H       -2.3799400     0.9319200     0.8843670
  H       -2.3799890     0.9319290    -0.8843510
  H        4.4117640    -0.2654940     0.0000570
  H        3.3582860    -1.3857500     0.8869440
  H        3.3583340    -1.3857540    -0.8868810
  H       -4.4117630    -0.2654900     0.0000540
  H       -3.3583340    -1.3857510    -0.8868860
  H       -3.3582920    -1.3857530     0.8869380
units angstrom
no_reorient  #important for SAPT in psi4, default
symmetry c1  #important for SAPT in psi4, default
}

set PROPERTIES_ORIGIN ["COM"]
properties('MP2/aug-cc-pvtz', properties = ['dipole'])
--------------------------------------------------------------------------

    Molecular point group: c1
  Charge       = 0
  Multiplicity = 1
  Basis Set: AUG-CC-PVTZ
    Blend: AUG-CC-PVTZ
  Basis Set: (AUG-CC-PVTZ AUX)
    Blend: AUG-CC-PVTZ-JKFIT

    Orbital Energies [Eh]
    ---------------------

    Doubly Occupied:

       1A    -20.606825     2A    -20.603889     3A    -20.536257
       4A    -11.423033     5A    -11.295727     6A    -11.290022
       7A    -11.228998     8A    -11.224324     9A     -1.505847
      10A     -1.399198    11A     -1.352224    12A     -1.060197
      13A     -1.027837    14A     -0.898323    15A     -0.846259
      16A     -0.789987    17A     -0.749345    18A     -0.711270
      19A     -0.689465    20A     -0.662376    21A     -0.602967
      22A     -0.596150    23A     -0.589967    24A     -0.557775
      25A     -0.543230    26A     -0.539722    27A     -0.519168
      28A     -0.513689    29A     -0.506474    30A     -0.465353
      31A     -0.463818    32A     -0.463247

  @DF-RHF Final Energy:  -419.93790974756064

   => Energetics <=

    Nuclear Repulsion Energy =            392.9853793585700146
    One-Electron Energy =               -1353.3206516256757368
    Two-Electron Energy =                 540.3973625195450268
    Total Energy =                       -419.9379097475606386
  Basis Set: (AUG-CC-PVTZ AUX)
    Blend: AUG-CC-PVTZ-RI
    Molecular point group: c1

    Geometry (in Angstrom), charge = 0, multiplicity = 1:

       Center              X                  Y                   Z               Mass
    ------------   -----------------  -----------------  -----------------  -----------------
         O            1.064848255313    -0.411653821140    -0.074756612228    15.994914619570
         O           -1.081684544687    -0.458828021140     0.011675287772    15.994914619570
         O            0.003128455313     1.555241978860     0.011732287772    15.994914619570
         C            2.343579455313     0.264301978860     0.011711287772    12.000000000000
         C           -2.337320544687     0.264300978860     0.011715287772    12.000000000000
         C            3.436160455313    -0.779491021140     0.011743287772    12.000000000000
         C           -3.429904544687    -0.779490021140     0.011740287772    12.000000000000
         C            0.003129455313     0.336610978860     0.011677287772    12.000000000000
         H            2.383119455313     0.905845978860    -0.872647712228     1.007825032230
         H            2.383066455313     0.905846978860     0.896071287772     1.007825032230
         H           -2.376811544687     0.905841978860     0.896078287772     1.007825032230
         H           -2.376860544687     0.905850978860    -0.872639712228     1.007825032230
         H            4.414892455313    -0.291572021140     0.011768287772     1.007825032230
         H            3.361414455313    -1.411828021140     0.898655287772     1.007825032230
         H            3.361462455313    -1.411832021140    -0.875169712228     1.007825032230
         H           -4.408634544687    -0.291568021140     0.011765287772     1.007825032230
         H           -3.355205544687    -1.411829021140    -0.875174712228     1.007825032230
         H           -3.355163544687    -1.411831021140     0.898649287772     1.007825032230

  Basis Set: AUG-CC-PVTZ
    Blend: AUG-CC-PVTZ
  Basis Set: (AUG-CC-PVTZ AUX)
    Blend: AUG-CC-PVTZ-JKFIT
	 Reference Energy          =    -419.9379097475606386 [Eh]
	 Singles Energy            =      -0.0000000000000000 [Eh]
	 Same-Spin Energy          =      -0.4050197451764274 [Eh]
	 Opposite-Spin Energy      =      -1.3104964069815976 [Eh]
	 Correlation Energy        =      -1.7155161521580249 [Eh]
	 Total Energy              =    -421.6534258997186839 [Eh]

	 ================> DF-SCS-MP2 Energies <==================
	-----------------------------------------------------------
	 SCS Same-Spin Scale       =       0.3333333333333333 [-]
	 SCS Opposite-Spin Scale   =       1.2000000000000000 [-]
	 SCS Same-Spin Energy      =      -0.1350065817254758 [Eh]
	 SCS Opposite-Spin Energy  =      -1.5725956883779171 [Eh]
	 SCS Correlation Energy    =      -1.7076022701033928 [Eh]
	 SCS Total Energy          =    -421.6455120176640321 [Eh]
	-----------------------------------------------------------

  Dipole Moment: [D]
     X:     0.2888      Y:    -0.6892      Z:     0.1014     Total:     0.7541

*** Psi4 exiting successfully. Buy a developer a beer!
