                               Psi4 1.3.2 release

  ==> Input File <==

--------------------------------------------------------------------------
#psi4
#
memory 32 gb

molecule  {
0 1
  O        1.0848120    -0.4327500    -0.0000380
  O       -1.0848130    -0.4327500    -0.0000360
  O        0.0000000     1.5813200     0.0000210
  C        2.2537943     0.2404739    -0.0000026
  C       -2.3404490     0.2903790     0.0000040
  C        3.4330320    -0.7534130     0.0000320
  C       -3.4330330    -0.7534120     0.0000290
  C        0.0000010     0.3626890    -0.0000340
  H        2.3799910     0.9319240    -0.8843590
  H        2.3799380     0.9319250     0.8843600
  H       -2.3799400     0.9319200     0.8843670
  H       -2.3799890     0.9319290    -0.8843510
  H        4.4117640    -0.2654940     0.0000570
  H        3.3582860    -1.3857500     0.8869440
  H        3.3583340    -1.3857540    -0.8868810
  H       -4.4117630    -0.2654900     0.0000540
  H       -3.3583340    -1.3857510    -0.8868860
  H       -3.3582920    -1.3857530     0.8869380
units angstrom
no_reorient  #important for SAPT in psi4, default
symmetry c1  #important for SAPT in psi4, default
}

set PROPERTIES_ORIGIN ["COM"]
properties('MP2/aug-cc-pvtz', properties = ['dipole'])
--------------------------------------------------------------------------

    Molecular point group: c1
  Charge       = 0
  Multiplicity = 1
  Basis Set: AUG-CC-PVTZ
    Blend: AUG-CC-PVTZ
  Basis Set: (AUG-CC-PVTZ AUX)
    Blend: AUG-CC-PVTZ-JKFIT

    Orbital Energies [Eh]
    ---------------------

    Doubly Occupied:

       1A    -20.618410     2A    -20.612314     3A    -20.551803
       4A    -11.437027     5A    -11.295408     6A    -11.290734
       7A    -11.228054     8A    -11.222633     9A     -1.514725
      10A     -1.417460    11A     -1.365451    12A     -1.058614
      13A     -1.020365    14A     -0.903279    15A     -0.844463
      16A     -0.794863    17A     -0.757936    18A     -0.716806
      19A     -0.698987    20A     -0.665293    21A     -0.613556
      22A     -0.598598    23A     -0.593601    24A     -0.555842
      25A     -0.546060    26A     -0.545500    27A     -0.520876
      28A     -0.506698    29A     -0.492617    30A     -0.476302
      31A     -0.471441    32A     -0.451195

  @DF-RHF Final Energy:  -419.92852938400375

   => Energetics <=

    Nuclear Repulsion Energy =            393.5822206631960398
    One-Electron Energy =               -1354.2476743292672836
    Two-Electron Energy =                 540.7369242820675481
    Total Energy =                       -419.9285293840036957
  Basis Set: (AUG-CC-PVTZ AUX)
    Blend: AUG-CC-PVTZ-RI
    Molecular point group: c1

    Geometry (in Angstrom), charge = 0, multiplicity = 1:

       Center              X                  Y                   Z               Mass
    ------------   -----------------  -----------------  -----------------  -----------------
         O            1.093619818582    -0.447364475677    -0.000035780600    15.994914619570
         O           -1.076005181418    -0.447364475677    -0.000033780600    15.994914619570
         O            0.008807818582     1.566705524323     0.000023219400    15.994914619570
         C            2.262602118582     0.225859424323    -0.000000380600    12.000000000000
         C           -2.331641181418     0.275764524323     0.000006219400    12.000000000000
         C            3.441839818582    -0.768027475677     0.000034219400    12.000000000000
         C           -3.424225181418    -0.768026475677     0.000031219400    12.000000000000
         C            0.008808818582     0.348074524323    -0.000031780600    12.000000000000
         H            2.388798818582     0.917309524323    -0.884356780600     1.007825032230
         H            2.388745818582     0.917310524323     0.884362219400     1.007825032230
         H           -2.371132181418     0.917305524323     0.884369219400     1.007825032230
         H           -2.371181181418     0.917314524323    -0.884348780600     1.007825032230
         H            4.420571818582    -0.280108475677     0.000059219400     1.007825032230
         H            3.367093818582    -1.400364475677     0.886946219400     1.007825032230
         H            3.367141818582    -1.400368475677    -0.886878780600     1.007825032230
         H           -4.402955181418    -0.280104475677     0.000056219400     1.007825032230
         H           -3.349526181418    -1.400365475677    -0.886883780600     1.007825032230
         H           -3.349484181418    -1.400367475677     0.886940219400     1.007825032230

  Basis Set: AUG-CC-PVTZ
    Blend: AUG-CC-PVTZ
  Basis Set: (AUG-CC-PVTZ AUX)
    Blend: AUG-CC-PVTZ-JKFIT
	 Reference Energy          =    -419.9285293840037525 [Eh]
	 Singles Energy            =      -0.0000000000000000 [Eh]
	 Same-Spin Energy          =      -0.4059685203201582 [Eh]
	 Opposite-Spin Energy      =      -1.3121682354794397 [Eh]
	 Correlation Energy        =      -1.7181367557995979 [Eh]
	 Total Energy              =    -421.6466661398033580 [Eh]

	 ================> DF-SCS-MP2 Energies <==================
	-----------------------------------------------------------
	 SCS Same-Spin Scale       =       0.3333333333333333 [-]
	 SCS Opposite-Spin Scale   =       1.2000000000000000 [-]
	 SCS Same-Spin Energy      =      -0.1353228401067194 [Eh]
	 SCS Opposite-Spin Energy  =      -1.5746018825753276 [Eh]
	 SCS Correlation Energy    =      -1.7099247226820471 [Eh]
	 SCS Total Energy          =    -421.6384541066857992 [Eh]
	-----------------------------------------------------------

  Dipole Moment: [D]
     X:    -0.4946      Y:    -0.5799      Z:     0.0000     Total:     0.7622

*** Psi4 exiting successfully. Buy a developer a beer!
