                               Psi4 1.4a3.dev225

  ==> Input File <==

--------------------------------------------------------------------------
#psi4
#
memory 32 gb

molecule  {
0 1
  O        1.0848250    -0.4328680    -0.0000110
  O       -1.0848250    -0.4328670    -0.0000100
  O        0.0000000     1.5811570     0.0000070
  C        2.3231402     0.2805371    -0.0000041
  C       -2.3404700     0.2905210    -0.0000020
  C        3.4331290    -0.7532350     0.0000100
  C       -3.4331290    -0.7532350     0.0000090
  C        0.0000000     0.3625560    -0.0000030
  H        2.3799590     0.9318790    -0.8844210
  H        2.3799440     0.9318880     0.8844070
  H       -2.3799450     0.9318860     0.8844110
  H       -2.3799580     0.9318810    -0.8844170
  H        4.4117970    -0.2652620     0.0000140
  H        3.3585260    -1.3857810     0.8868320
  H        3.3585390    -1.3857920    -0.8868050
  H       -4.4117970    -0.2652620     0.0000130
  H       -3.3585380    -1.3857890    -0.8868080
  H       -3.3585270    -1.3857830     0.8868290
units angstrom
no_reorient  #important for SAPT in psi4, default
symmetry c1  #important for SAPT in psi4, default
}

set PROPERTIES_ORIGIN ["COM"]
properties('MP2/aug-cc-pvtz', properties = ['dipole'])
--------------------------------------------------------------------------

    Molecular point group: c1
  Charge       = 0
  Multiplicity = 1
  Basis Set: AUG-CC-PVTZ
    Blend: AUG-CC-PVTZ
  Basis Set: (AUG-CC-PVTZ AUX)
    Blend: AUG-CC-PVTZ-JKFIT

    Orbital Energies [Eh]
    ---------------------

    Doubly Occupied:

       1A    -20.609444     2A    -20.608110     3A    -20.546294
       4A    -11.430873     5A    -11.292658     6A    -11.291398
       7A    -11.226080     8A    -11.224910     9A     -1.499603
      10A     -1.398741    11A     -1.358956    12A     -1.056737
      13A     -1.025143    14A     -0.894801    15A     -0.844734
      16A     -0.792204    17A     -0.747198    18A     -0.708801
      19A     -0.692592    20A     -0.662501    21A     -0.600782
      22A     -0.597074    23A     -0.592847    24A     -0.555556
      25A     -0.542463    26A     -0.539434    27A     -0.518465
      28A     -0.512524    29A     -0.506551    30A     -0.470927
      31A     -0.468439    32A     -0.462695

  @DF-RHF Final Energy:  -419.93685137299951

   => Energetics <=

    Nuclear Repulsion Energy =            392.2334351600534319
    One-Electron Energy =               -1351.7815042720496876
    Two-Electron Energy =                 539.6112177389967428
    Total Energy =                       -419.9368513729995129
  Basis Set: (AUG-CC-PVTZ AUX)
    Blend: AUG-CC-PVTZ-RI
    Molecular point group: c1

    Geometry (in Angstrom), charge = 0, multiplicity = 1:

       Center              X                  Y                   Z               Mass
    ------------   -----------------  -----------------  -----------------  -----------------
         O            1.086586412214    -0.451538959857    -0.000010579052    15.994914619570
         O           -1.083063587786    -0.451537959857    -0.000009579052    15.994914619570
         O            0.001761412214     1.562486040143     0.000007420948    15.994914619570
         C            2.324901612214     0.261866140143    -0.000003679052    12.000000000000
         C           -2.338708587786     0.271850040143    -0.000001579052    12.000000000000
         C            3.434890412214    -0.771905959857     0.000010420948    12.000000000000
         C           -3.431367587786    -0.771905959857     0.000009420948    12.000000000000
         C            0.001761412214     0.343885040143    -0.000002579052    12.000000000000
         H            2.381720412214     0.913208040143    -0.884420579052     1.007825032230
         H            2.381705412214     0.913217040143     0.884407420948     1.007825032230
         H           -2.378183587786     0.913215040143     0.884411420948     1.007825032230
         H           -2.378196587786     0.913210040143    -0.884416579052     1.007825032230
         H            4.413558412214    -0.283932959857     0.000014420948     1.007825032230
         H            3.360287412214    -1.404451959857     0.886832420948     1.007825032230
         H            3.360300412214    -1.404462959857    -0.886804579052     1.007825032230
         H           -4.410035587786    -0.283932959857     0.000013420948     1.007825032230
         H           -3.356776587786    -1.404459959857    -0.886807579052     1.007825032230
         H           -3.356765587786    -1.404453959857     0.886829420948     1.007825032230

  Basis Set: AUG-CC-PVTZ
    Blend: AUG-CC-PVTZ
  Basis Set: (AUG-CC-PVTZ AUX)
    Blend: AUG-CC-PVTZ-JKFIT
	 Reference Energy          =    -419.9368513729995129 [Eh]
	 Singles Energy            =      -0.0000000000000000 [Eh]
	 Same-Spin Energy          =      -0.4057562899038135 [Eh]
	 Opposite-Spin Energy      =      -1.3124286412155324 [Eh]
	 Correlation Energy        =      -1.7181849311193460 [Eh]
	 Total Energy              =    -421.6550363041188803 [Eh]

	 ================> DF-SCS-MP2 Energies <==================
	-----------------------------------------------------------
	 SCS Same-Spin Scale       =       0.3333333333333333 [-]
	 SCS Opposite-Spin Scale   =       1.2000000000000000 [-]
	 SCS Same-Spin Energy      =      -0.1352520966346045 [Eh]
	 SCS Opposite-Spin Energy  =      -1.5749143694586387 [Eh]
	 SCS Correlation Energy    =      -1.7101664660932432 [Eh]
	 SCS Total Energy          =    -421.6470178390927686 [Eh]
	-----------------------------------------------------------

  Dipole Moment: [D]
     X:    -0.0967      Y:    -0.5260      Z:     0.0000     Total:     0.5348

*** Psi4 exiting successfully. Buy a developer a beer!
