                               Psi4 1.3.2 release

  ==> Input File <==

--------------------------------------------------------------------------
#psi4
#
memory 32 gb

molecule  {
0 1
  O        1.0848120    -0.4327500    -0.0000380
  O       -1.0848130    -0.4327500    -0.0000360
  O        0.0000000     1.5813200     0.0000210
  C        2.3404510     0.2903800     0.0000000
  C       -2.3404490     0.2903790     0.0000040
  C        3.4330320    -0.7534130     0.0000320
  C       -3.4330330    -0.7534120     0.0000290
  C        0.0000012     0.1626890    -0.0000430
  H        2.3799910     0.9319240    -0.8843590
  H        2.3799380     0.9319250     0.8843600
  H       -2.3799400     0.9319200     0.8843670
  H       -2.3799890     0.9319290    -0.8843510
  H        4.4117640    -0.2654940     0.0000570
  H        3.3582860    -1.3857500     0.8869440
  H        3.3583340    -1.3857540    -0.8868810
  H       -4.4117630    -0.2654900     0.0000540
  H       -3.3583340    -1.3857510    -0.8868860
  H       -3.3582920    -1.3857530     0.8869380
units angstrom
no_reorient  #important for SAPT in psi4, default
symmetry c1  #important for SAPT in psi4, default
}

set PROPERTIES_ORIGIN ["COM"]
properties('MP2/aug-cc-pvtz', properties = ['dipole'])
--------------------------------------------------------------------------

    Molecular point group: c1
  Charge       = 0
  Multiplicity = 1
  Basis Set: AUG-CC-PVTZ
    Blend: AUG-CC-PVTZ
  Basis Set: (AUG-CC-PVTZ AUX)
    Blend: AUG-CC-PVTZ-JKFIT

    Orbital Energies [Eh]
    ---------------------

    Doubly Occupied:

       1A    -20.626605     2A    -20.626581     3A    -20.487607
       4A    -11.428516     5A    -11.303525     6A    -11.303523
       7A    -11.231844     8A    -11.231844     9A     -1.539823
      10A     -1.452659    11A     -1.221688    12A     -1.080168
      13A     -1.046138    14A     -0.918016    15A     -0.865882
      16A     -0.798624    17A     -0.777079    18A     -0.730294
      19A     -0.686318    20A     -0.673162    21A     -0.616528
      22A     -0.606350    23A     -0.568051    24A     -0.555383
      25A     -0.554525    26A     -0.548756    27A     -0.528205
      28A     -0.508388    29A     -0.485770    30A     -0.479665
      31A     -0.410726    32A     -0.401821

  @DF-RHF Final Energy:  -419.88151498914630

   => Energetics <=

    Nuclear Repulsion Energy =            392.4033327217965734
    One-Electron Energy =               -1351.9815712235076717
    Two-Electron Energy =                 539.6967235125648585
    Total Energy =                       -419.8815149891462397
  Basis Set: (AUG-CC-PVTZ AUX)
    Blend: AUG-CC-PVTZ-RI
    Molecular point group: c1

    Geometry (in Angstrom), charge = 0, multiplicity = 1:

       Center              X                  Y                   Z               Mass
    ------------   -----------------  -----------------  -----------------  -----------------
         O            1.084811954550    -0.432108833446    -0.000035130100    15.994914619570
         O           -1.084813045450    -0.432108833446    -0.000033130100    15.994914619570
         O           -0.000000045450     1.581961166554     0.000023869900    15.994914619570
         C            2.340450954550     0.291021166554     0.000002869900    12.000000000000
         C           -2.340449045450     0.291020166554     0.000006869900    12.000000000000
         C            3.433031954550    -0.752771833446     0.000034869900    12.000000000000
         C           -3.433033045450    -0.752770833446     0.000031869900    12.000000000000
         C            0.000001154550     0.163330166554    -0.000040130100    12.000000000000
         H            2.379990954550     0.932565166554    -0.884356130100     1.007825032230
         H            2.379937954550     0.932566166554     0.884362869900     1.007825032230
         H           -2.379940045450     0.932561166554     0.884369869900     1.007825032230
         H           -2.379989045450     0.932570166554    -0.884348130100     1.007825032230
         H            4.411763954550    -0.264852833446     0.000059869900     1.007825032230
         H            3.358285954550    -1.385108833446     0.886946869900     1.007825032230
         H            3.358333954550    -1.385112833446    -0.886878130100     1.007825032230
         H           -4.411763045450    -0.264848833446     0.000056869900     1.007825032230
         H           -3.358334045450    -1.385109833446    -0.886883130100     1.007825032230
         H           -3.358292045450    -1.385111833446     0.886940869900     1.007825032230

  Basis Set: AUG-CC-PVTZ
    Blend: AUG-CC-PVTZ
  Basis Set: (AUG-CC-PVTZ AUX)
    Blend: AUG-CC-PVTZ-JKFIT
	 Reference Energy          =    -419.8815149891462966 [Eh]
	 Singles Energy            =      -0.0000000000000000 [Eh]
	 Same-Spin Energy          =      -0.4059336264498027 [Eh]
	 Opposite-Spin Energy      =      -1.3122701632048195 [Eh]
	 Correlation Energy        =      -1.7182037896546221 [Eh]
	 Total Energy              =    -421.5997187788009342 [Eh]

	 ================> DF-SCS-MP2 Energies <==================
	-----------------------------------------------------------
	 SCS Same-Spin Scale       =       0.3333333333333333 [-]
	 SCS Opposite-Spin Scale   =       1.2000000000000000 [-]
	 SCS Same-Spin Energy      =      -0.1353112088166009 [Eh]
	 SCS Opposite-Spin Energy  =      -1.5747241958457834 [Eh]
	 SCS Correlation Energy    =      -1.7100354046623842 [Eh]
	 SCS Total Energy          =    -421.5915503938086886 [Eh]
	-----------------------------------------------------------

  Dipole Moment: [D]
     X:     0.0000      Y:    -2.1043      Z:    -0.0000     Total:     2.1043

*** Psi4 exiting successfully. Buy a developer a beer!
