                               Psi4 1.3.2 release

  ==> Input File <==

--------------------------------------------------------------------------
#psi4
#
memory 32 gb

molecule  {
0 1
  O        1.1308769    -0.4968385     0.1294755
  O       -1.0848130    -0.4327500    -0.0000360
  O        0.0000000     1.5813200     0.0000210
  C        2.3404510     0.2903800     0.0000000
  C       -2.3404490     0.2903790     0.0000040
  C        3.4330320    -0.7534130     0.0000320
  C       -3.4330330    -0.7534120     0.0000290
  C        0.0000010     0.3626890    -0.0000340
  H        2.3799910     0.9319240    -0.8843590
  H        2.3799380     0.9319250     0.8843600
  H       -2.3799400     0.9319200     0.8843670
  H       -2.3799890     0.9319290    -0.8843510
  H        4.4117640    -0.2654940     0.0000570
  H        3.3582860    -1.3857500     0.8869440
  H        3.3583340    -1.3857540    -0.8868810
  H       -4.4117630    -0.2654900     0.0000540
  H       -3.3583340    -1.3857510    -0.8868860
  H       -3.3582920    -1.3857530     0.8869380
units angstrom
no_reorient  #important for SAPT in psi4, default
symmetry c1  #important for SAPT in psi4, default
}

set PROPERTIES_ORIGIN ["COM"]
properties('MP2/aug-cc-pvtz', properties = ['dipole'])
--------------------------------------------------------------------------

    Molecular point group: c1
  Charge       = 0
  Multiplicity = 1
  Basis Set: AUG-CC-PVTZ
    Blend: AUG-CC-PVTZ
  Basis Set: (AUG-CC-PVTZ AUX)
    Blend: AUG-CC-PVTZ-JKFIT

    Orbital Energies [Eh]
    ---------------------

    Doubly Occupied:

       1A    -20.613313     2A    -20.606025     3A    -20.558486
       4A    -11.439429     5A    -11.295546     6A    -11.285846
       7A    -11.227932     8A    -11.219964     9A     -1.486474
      10A     -1.385070    11A     -1.362130    12A     -1.053058
      13A     -1.021329    14A     -0.887145    15A     -0.842622
      16A     -0.794172    17A     -0.734969    18A     -0.702005
      19A     -0.694052    20A     -0.660348    21A     -0.602948
      22A     -0.593336    23A     -0.589677    24A     -0.554950
      25A     -0.539264    26A     -0.532815    27A     -0.521169
      28A     -0.514456    29A     -0.507703    30A     -0.474072
      31A     -0.472522    32A     -0.462793

  @DF-RHF Final Energy:  -419.92217603228465

   => Energetics <=

    Nuclear Repulsion Energy =            390.0274460802957606
    One-Electron Energy =               -1347.4280043922881305
    Two-Electron Energy =                 537.4783822797078301
    Total Energy =                       -419.9221760322845967
  Basis Set: (AUG-CC-PVTZ AUX)
    Blend: AUG-CC-PVTZ-RI
    Molecular point group: c1

    Geometry (in Angstrom), charge = 0, multiplicity = 1:

       Center              X                  Y                   Z               Mass
    ------------   -----------------  -----------------  -----------------  -----------------
         O            1.124636103605    -0.507842895410     0.111931251186    15.994914619570
         O           -1.091053796395    -0.443754395410    -0.017580248814    15.994914619570
         O           -0.006240796395     1.570315604590    -0.017523248814    15.994914619570
         C            2.334210203605     0.279375604590    -0.017544248814    12.000000000000
         C           -2.346689796395     0.279374604590    -0.017540248814    12.000000000000
         C            3.426791203605    -0.764417395410    -0.017512248814    12.000000000000
         C           -3.439273796395    -0.764416395410    -0.017515248814    12.000000000000
         C           -0.006239796395     0.351684604590    -0.017578248814    12.000000000000
         H            2.373750203605     0.920919604590    -0.901903248814     1.007825032230
         H            2.373697203605     0.920920604590     0.866815751186     1.007825032230
         H           -2.386180796395     0.920915604590     0.866822751186     1.007825032230
         H           -2.386229796395     0.920924604590    -0.901895248814     1.007825032230
         H            4.405523203605    -0.276498395410    -0.017487248814     1.007825032230
         H            3.352045203605    -1.396754395410     0.869399751186     1.007825032230
         H            3.352093203605    -1.396758395410    -0.904425248814     1.007825032230
         H           -4.418003796395    -0.276494395410    -0.017490248814     1.007825032230
         H           -3.364574796395    -1.396755395410    -0.904430248814     1.007825032230
         H           -3.364532796395    -1.396757395410     0.869393751186     1.007825032230

  Basis Set: AUG-CC-PVTZ
    Blend: AUG-CC-PVTZ
  Basis Set: (AUG-CC-PVTZ AUX)
    Blend: AUG-CC-PVTZ-JKFIT
	 Reference Energy          =    -419.9221760322846535 [Eh]
	 Singles Energy            =      -0.0000000000000000 [Eh]
	 Same-Spin Energy          =      -0.4073881721992555 [Eh]
	 Opposite-Spin Energy      =      -1.3170647784540457 [Eh]
	 Correlation Energy        =      -1.7244529506533013 [Eh]
	 Total Energy              =    -421.6466289829379548 [Eh]

	 ================> DF-SCS-MP2 Energies <==================
	-----------------------------------------------------------
	 SCS Same-Spin Scale       =       0.3333333333333333 [-]
	 SCS Opposite-Spin Scale   =       1.2000000000000000 [-]
	 SCS Same-Spin Energy      =      -0.1357960573997518 [Eh]
	 SCS Opposite-Spin Energy  =      -1.5804777341448548 [Eh]
	 SCS Correlation Energy    =      -1.7162737915446067 [Eh]
	 SCS Total Energy          =    -421.6384498238292622 [Eh]
	-----------------------------------------------------------

  Dipole Moment: [D]
     X:    -0.5276      Y:    -0.2477      Z:    -0.1688     Total:     0.6068

*** Psi4 exiting successfully. Buy a developer a beer!
