                               Psi4 1.3.2 release

  ==> Input File <==

--------------------------------------------------------------------------
#psi4
#
memory 32 gb

molecule  {
0 1
  O        1.1140215    -0.4764012     0.0863921
  O       -1.0848130    -0.4327500    -0.0000360
  O        0.0000000     1.5813200     0.0000210
  C        2.3404510     0.2903800     0.0000000
  C       -2.3404490     0.2903790     0.0000040
  C        3.4330320    -0.7534130     0.0000320
  C       -3.4330330    -0.7534120     0.0000290
  C        0.0000010     0.3626890    -0.0000340
  H        2.3799910     0.9319240    -0.8843590
  H        2.3799380     0.9319250     0.8843600
  H       -2.3799400     0.9319200     0.8843670
  H       -2.3799890     0.9319290    -0.8843510
  H        4.4117640    -0.2654940     0.0000570
  H        3.3582860    -1.3857500     0.8869440
  H        3.3583340    -1.3857540    -0.8868810
  H       -4.4117630    -0.2654900     0.0000540
  H       -3.3583340    -1.3857510    -0.8868860
  H       -3.3582920    -1.3857530     0.8869380
units angstrom
no_reorient  #important for SAPT in psi4, default
symmetry c1  #important for SAPT in psi4, default
}

set PROPERTIES_ORIGIN ["COM"]
properties('MP2/aug-cc-pvtz', properties = ['dipole'])
--------------------------------------------------------------------------

    Molecular point group: c1
  Charge       = 0
  Multiplicity = 1
  Basis Set: AUG-CC-PVTZ
    Blend: AUG-CC-PVTZ
  Basis Set: (AUG-CC-PVTZ AUX)
    Blend: AUG-CC-PVTZ-JKFIT

    Orbital Energies [Eh]
    ---------------------

    Doubly Occupied:

       1A    -20.611093     2A    -20.606518     3A    -20.554001
       4A    -11.436085     5A    -11.294287     6A    -11.287886
       7A    -11.227106     8A    -11.221866     9A     -1.489171
      10A     -1.388153    11A     -1.361141    12A     -1.053943
      13A     -1.023333    14A     -0.888741    15A     -0.843616
      16A     -0.793110    17A     -0.738375    18A     -0.703467
      19A     -0.692968    20A     -0.661260    21A     -0.601372
      22A     -0.594457    23A     -0.590598    24A     -0.554683
      25A     -0.540175    26A     -0.534225    27A     -0.520147
      28A     -0.515386    29A     -0.507685    30A     -0.473071
      31A     -0.471150    32A     -0.463553

  @DF-RHF Final Energy:  -419.92887325484719

   => Energetics <=

    Nuclear Repulsion Energy =            390.6854915767386274
    One-Electron Energy =               -1348.7434868413711229
    Two-Electron Energy =                 538.1291220097853056
    Total Energy =                       -419.9288732548471899
  Basis Set: (AUG-CC-PVTZ AUX)
    Blend: AUG-CC-PVTZ-RI
    Molecular point group: c1

    Geometry (in Angstrom), charge = 0, multiplicity = 1:

       Center              X                  Y                   Z               Mass
    ------------   -----------------  -----------------  -----------------  -----------------
         O            1.110064236102    -0.490174395835     0.074684695401    15.994914619570
         O           -1.088770263898    -0.446523195835    -0.011743404599    15.994914619570
         O           -0.003957263898     1.567546804165    -0.011686404599    15.994914619570
         C            2.336493736102     0.276606804165    -0.011707404599    12.000000000000
         C           -2.344406263898     0.276605804165    -0.011703404599    12.000000000000
         C            3.429074736102    -0.767186195835    -0.011675404599    12.000000000000
         C           -3.436990263898    -0.767185195835    -0.011678404599    12.000000000000
         C           -0.003956263898     0.348915804165    -0.011741404599    12.000000000000
         H            2.376033736102     0.918150804165    -0.896066404599     1.007825032230
         H            2.375980736102     0.918151804165     0.872652595401     1.007825032230
         H           -2.383897263898     0.918146804165     0.872659595401     1.007825032230
         H           -2.383946263898     0.918155804165    -0.896058404599     1.007825032230
         H            4.407806736102    -0.279267195835    -0.011650404599     1.007825032230
         H            3.354328736102    -1.399523195835     0.875236595401     1.007825032230
         H            3.354376736102    -1.399527195835    -0.898588404599     1.007825032230
         H           -4.415720263898    -0.279263195835    -0.011653404599     1.007825032230
         H           -3.362291263898    -1.399524195835    -0.898593404599     1.007825032230
         H           -3.362249263898    -1.399526195835     0.875230595401     1.007825032230

  Basis Set: AUG-CC-PVTZ
    Blend: AUG-CC-PVTZ
  Basis Set: (AUG-CC-PVTZ AUX)
    Blend: AUG-CC-PVTZ-JKFIT
	 Reference Energy          =    -419.9288732548471899 [Eh]
	 Singles Energy            =      -0.0000000000000000 [Eh]
	 Same-Spin Energy          =      -0.4067827955601109 [Eh]
	 Opposite-Spin Energy      =      -1.3154034285576854 [Eh]
	 Correlation Energy        =      -1.7221862241177963 [Eh]
	 Total Energy              =    -421.6510594789650099 [Eh]

	 ================> DF-SCS-MP2 Energies <==================
	-----------------------------------------------------------
	 SCS Same-Spin Scale       =       0.3333333333333333 [-]
	 SCS Opposite-Spin Scale   =       1.2000000000000000 [-]
	 SCS Same-Spin Energy      =      -0.1355942651867036 [Eh]
	 SCS Opposite-Spin Energy  =      -1.5784841142692225 [Eh]
	 SCS Correlation Energy    =      -1.7140783794559262 [Eh]
	 SCS Total Energy          =    -421.6429516343031310 [Eh]
	-----------------------------------------------------------

  Dipole Moment: [D]
     X:    -0.3424      Y:    -0.3370      Z:    -0.1104     Total:     0.4929

*** Psi4 exiting successfully. Buy a developer a beer!
