                               Psi4 1.3.2 release

  ==> Input File <==

--------------------------------------------------------------------------
#psi4
#
memory 32 gb

molecule  {
0 1
  O        1.0848120    -0.4327500    -0.0000380
  O       -1.0848130    -0.4327500    -0.0000360
  O        0.0000000     1.5813200     0.0000210
  C        2.3404510     0.2903800     0.0000000
  C       -2.3276374     0.3121827     0.0000043
  C        3.4330320    -0.7534130     0.0000320
  C       -3.4330330    -0.7534120     0.0000290
  C        0.0000010     0.3626890    -0.0000340
  H        2.3799910     0.9319240    -0.8843590
  H        2.3799380     0.9319250     0.8843600
  H       -2.3799400     0.9319200     0.8843670
  H       -2.3799890     0.9319290    -0.8843510
  H        4.4117640    -0.2654940     0.0000570
  H        3.3582860    -1.3857500     0.8869440
  H        3.3583340    -1.3857540    -0.8868810
  H       -4.4117630    -0.2654900     0.0000540
  H       -3.3583340    -1.3857510    -0.8868860
  H       -3.3582920    -1.3857530     0.8869380
units angstrom
no_reorient  #important for SAPT in psi4, default
symmetry c1  #important for SAPT in psi4, default
}

set PROPERTIES_ORIGIN ["COM"]
properties('MP2/aug-cc-pvtz', properties = ['dipole'])
--------------------------------------------------------------------------

    Molecular point group: c1
  Charge       = 0
  Multiplicity = 1
  Basis Set: AUG-CC-PVTZ
    Blend: AUG-CC-PVTZ
  Basis Set: (AUG-CC-PVTZ AUX)
    Blend: AUG-CC-PVTZ-JKFIT

    Orbital Energies [Eh]
    ---------------------

    Doubly Occupied:

       1A    -20.608003     2A    -20.607154     3A    -20.545276
       4A    -11.429299     5A    -11.292036     6A    -11.290919
       7A    -11.225868     8A    -11.225648     9A     -1.497183
      10A     -1.394915    11A     -1.357517    12A     -1.054730
      13A     -1.023311    14A     -0.892607    15A     -0.846650
      16A     -0.792430    17A     -0.744238    18A     -0.708116
      19A     -0.691646    20A     -0.663491    21A     -0.598652
      22A     -0.597790    23A     -0.589980    24A     -0.554312
      25A     -0.541744    26A     -0.536332    27A     -0.517828
      28A     -0.512319    29A     -0.509270    30A     -0.469964
      31A     -0.469529    32A     -0.465839

  @DF-RHF Final Energy:  -419.93632664840737

   => Energetics <=

    Nuclear Repulsion Energy =            391.8997353171403688
    One-Electron Energy =               -1351.1629297344447878
    Two-Electron Energy =                 539.3268677688971593
    Total Energy =                       -419.9363266484073165
  Basis Set: (AUG-CC-PVTZ AUX)
    Blend: AUG-CC-PVTZ-RI
    Molecular point group: c1

    Geometry (in Angstrom), charge = 0, multiplicity = 1:

       Center              X                  Y                   Z               Mass
    ------------   -----------------  -----------------  -----------------  -----------------
         O            1.083509795469    -0.454653106683    -0.000036075358    15.994914619570
         O           -1.086115204531    -0.454653106683    -0.000034075358    15.994914619570
         O           -0.001302204531     1.559416893317     0.000022924642    15.994914619570
         C            2.339148795469     0.268476893317     0.000001924642    12.000000000000
         C           -2.328939604531     0.290279593317     0.000006224642    12.000000000000
         C            3.431729795469    -0.775316106683     0.000033924642    12.000000000000
         C           -3.434335204531    -0.775315106683     0.000030924642    12.000000000000
         C           -0.001301204531     0.340785893317    -0.000032075358    12.000000000000
         H            2.378688795469     0.910020893317    -0.884357075358     1.007825032230
         H            2.378635795469     0.910021893317     0.884361924642     1.007825032230
         H           -2.381242204531     0.910016893317     0.884368924642     1.007825032230
         H           -2.381291204531     0.910025893317    -0.884349075358     1.007825032230
         H            4.410461795469    -0.287397106683     0.000058924642     1.007825032230
         H            3.356983795469    -1.407653106683     0.886945924642     1.007825032230
         H            3.357031795469    -1.407657106683    -0.886879075358     1.007825032230
         H           -4.413065204531    -0.287393106683     0.000055924642     1.007825032230
         H           -3.359636204531    -1.407654106683    -0.886884075358     1.007825032230
         H           -3.359594204531    -1.407656106683     0.886939924642     1.007825032230

  Basis Set: AUG-CC-PVTZ
    Blend: AUG-CC-PVTZ
  Basis Set: (AUG-CC-PVTZ AUX)
    Blend: AUG-CC-PVTZ-JKFIT
	 Reference Energy          =    -419.9363266484073733 [Eh]
	 Singles Energy            =      -0.0000000000000000 [Eh]
	 Same-Spin Energy          =      -0.4056795227598736 [Eh]
	 Opposite-Spin Energy      =      -1.3126408933478784 [Eh]
	 Correlation Energy        =      -1.7183204161077521 [Eh]
	 Total Energy              =    -421.6546470645151317 [Eh]

	 ================> DF-SCS-MP2 Energies <==================
	-----------------------------------------------------------
	 SCS Same-Spin Scale       =       0.3333333333333333 [-]
	 SCS Opposite-Spin Scale   =       1.2000000000000000 [-]
	 SCS Same-Spin Energy      =      -0.1352265075866245 [Eh]
	 SCS Opposite-Spin Energy  =      -1.5751690720174540 [Eh]
	 SCS Correlation Energy    =      -1.7103955796040786 [Eh]
	 SCS Total Energy          =    -421.6467222280114697 [Eh]
	-----------------------------------------------------------

  Dipole Moment: [D]
     X:     0.0402      Y:    -0.4836      Z:     0.0000     Total:     0.4853

*** Psi4 exiting successfully. Buy a developer a beer!
