                               Psi4 1.4a3.dev225

  ==> Input File <==

--------------------------------------------------------------------------
#psi4
#
memory 32 gb

molecule  {
0 1
  O        1.0848250    -0.4328680    -0.0000110
  O       -1.0848250    -0.4328670    -0.0000100
  O        0.0000000     1.5811570     0.0000070
  C        2.3404700     0.2905210    -0.0000040
  C       -2.3404700     0.2905210    -0.0000020
  C        3.4331290    -0.7532350     0.0000100
  C       -3.4331290    -0.7532350     0.0000090
  C        0.0000000     0.4125560    -0.0000026
  H        2.3799590     0.9318790    -0.8844210
  H        2.3799440     0.9318880     0.8844070
  H       -2.3799450     0.9318860     0.8844110
  H       -2.3799580     0.9318810    -0.8844170
  H        4.4117970    -0.2652620     0.0000140
  H        3.3585260    -1.3857810     0.8868320
  H        3.3585390    -1.3857920    -0.8868050
  H       -4.4117970    -0.2652620     0.0000130
  H       -3.3585380    -1.3857890    -0.8868080
  H       -3.3585270    -1.3857830     0.8868290
units angstrom
no_reorient  #important for SAPT in psi4, default
symmetry c1  #important for SAPT in psi4, default
}

set PROPERTIES_ORIGIN ["COM"]
properties('MP2/aug-cc-pvtz', properties = ['dipole'])
--------------------------------------------------------------------------

    Molecular point group: c1
  Charge       = 0
  Multiplicity = 1
  Basis Set: AUG-CC-PVTZ
    Blend: AUG-CC-PVTZ
  Basis Set: (AUG-CC-PVTZ AUX)
    Blend: AUG-CC-PVTZ-JKFIT

    Orbital Energies [Eh]
    ---------------------

    Doubly Occupied:

       1A    -20.601176     2A    -20.601151     3A    -20.559273
       4A    -11.427045     5A    -11.289012     6A    -11.289011
       7A    -11.223868     8A    -11.223868     9A     -1.498021
      10A     -1.385151    11A     -1.380661    12A     -1.050623
      13A     -1.021776    14A     -0.885980    15A     -0.841647
      16A     -0.789063    17A     -0.739726    18A     -0.704407
      19A     -0.702134    20A     -0.659457    21A     -0.600768
      22A     -0.595647    23A     -0.595153    24A     -0.553568
      25A     -0.538483    26A     -0.533359    27A     -0.518837
      28A     -0.515724    29A     -0.514206    30A     -0.476561
      31A     -0.475333    32A     -0.459590

  @DF-RHF Final Energy:  -419.93300136779521

   => Energetics <=

    Nuclear Repulsion Energy =            391.9131650754000589
    One-Electron Energy =               -1351.1917738803706470
    Two-Electron Energy =                 539.3456074371754312
    Total Energy =                       -419.9330013677952138
  Basis Set: (AUG-CC-PVTZ AUX)
    Blend: AUG-CC-PVTZ-RI
    Molecular point group: c1

    Geometry (in Angstrom), charge = 0, multiplicity = 1:

       Center              X                  Y                   Z               Mass
    ------------   -----------------  -----------------  -----------------  -----------------
         O            1.084825000000    -0.457635762712    -0.000010629872    15.994914619570
         O           -1.084825000000    -0.457634762712    -0.000009629872    15.994914619570
         O            0.000000000000     1.556389237288     0.000007370128    15.994914619570
         C            2.340470000000     0.265753237288    -0.000003629872    12.000000000000
         C           -2.340470000000     0.265753237288    -0.000001629872    12.000000000000
         C            3.433129000000    -0.778002762712     0.000010370128    12.000000000000
         C           -3.433129000000    -0.778002762712     0.000009370128    12.000000000000
         C            0.000000000000     0.387788237288    -0.000002229872    12.000000000000
         H            2.379959000000     0.907111237288    -0.884420629872     1.007825032230
         H            2.379944000000     0.907120237288     0.884407370128     1.007825032230
         H           -2.379945000000     0.907118237288     0.884411370128     1.007825032230
         H           -2.379958000000     0.907113237288    -0.884416629872     1.007825032230
         H            4.411797000000    -0.290029762712     0.000014370128     1.007825032230
         H            3.358526000000    -1.410548762712     0.886832370128     1.007825032230
         H            3.358539000000    -1.410559762712    -0.886804629872     1.007825032230
         H           -4.411797000000    -0.290029762712     0.000013370128     1.007825032230
         H           -3.358538000000    -1.410556762712    -0.886807629872     1.007825032230
         H           -3.358527000000    -1.410550762712     0.886829370128     1.007825032230

  Basis Set: AUG-CC-PVTZ
    Blend: AUG-CC-PVTZ
  Basis Set: (AUG-CC-PVTZ AUX)
    Blend: AUG-CC-PVTZ-JKFIT
	 Reference Energy          =    -419.9330013677952138 [Eh]
	 Singles Energy            =      -0.0000000000000000 [Eh]
	 Same-Spin Energy          =      -0.4056012138544189 [Eh]
	 Opposite-Spin Energy      =      -1.3127356150738418 [Eh]
	 Correlation Energy        =      -1.7183368289282608 [Eh]
	 Total Energy              =    -421.6513381967234864 [Eh]

	 ================> DF-SCS-MP2 Energies <==================
	-----------------------------------------------------------
	 SCS Same-Spin Scale       =       0.3333333333333333 [-]
	 SCS Opposite-Spin Scale   =       1.2000000000000000 [-]
	 SCS Same-Spin Energy      =      -0.1352004046181396 [Eh]
	 SCS Opposite-Spin Energy  =      -1.5752827380886101 [Eh]
	 SCS Correlation Energy    =      -1.7104831427067497 [Eh]
	 SCS Total Energy          =    -421.6434845105019917 [Eh]
	-----------------------------------------------------------

  Dipole Moment: [D]
     X:    -0.0000      Y:    -0.1106      Z:     0.0000     Total:     0.1106

*** Psi4 exiting successfully. Buy a developer a beer!
