                               Psi4 1.3.2 release

  ==> Input File <==

--------------------------------------------------------------------------
#psi4
#
memory 32 gb

molecule  {
0 1
  O        1.0707645    -0.4515614    -0.0000393
  O       -1.0848130    -0.4327500    -0.0000360
  O        0.0000000     1.5813200     0.0000210
  C        2.3404510     0.2903800     0.0000000
  C       -2.3404490     0.2903790     0.0000040
  C        3.4330320    -0.7534130     0.0000320
  C       -3.4330330    -0.7534120     0.0000290
  C        0.0000010     0.3626890    -0.0000340
  H        2.3799910     0.9319240    -0.8843590
  H        2.3799380     0.9319250     0.8843600
  H       -2.3799400     0.9319200     0.8843670
  H       -2.3799890     0.9319290    -0.8843510
  H        4.4117640    -0.2654940     0.0000570
  H        3.3582860    -1.3857500     0.8869440
  H        3.3583340    -1.3857540    -0.8868810
  H       -4.4117630    -0.2654900     0.0000540
  H       -3.3583340    -1.3857510    -0.8868860
  H       -3.3582920    -1.3857530     0.8869380
units angstrom
no_reorient  #important for SAPT in psi4, default
symmetry c1  #important for SAPT in psi4, default
}

set PROPERTIES_ORIGIN ["COM"]
properties('MP2/aug-cc-pvtz', properties = ['dipole'])
--------------------------------------------------------------------------

    Molecular point group: c1
  Charge       = 0
  Multiplicity = 1
  Basis Set: AUG-CC-PVTZ
    Blend: AUG-CC-PVTZ
  Basis Set: (AUG-CC-PVTZ AUX)
    Blend: AUG-CC-PVTZ-JKFIT

    Orbital Energies [Eh]
    ---------------------

    Doubly Occupied:

       1A    -20.607525     2A    -20.605283     3A    -20.545392
       4A    -11.428475     5A    -11.294291     6A    -11.290894
       7A    -11.226378     8A    -11.224905     9A     -1.495030
      10A     -1.389921    11A     -1.357239    12A     -1.055815
      13A     -1.026063    14A     -0.890846    15A     -0.844697
      16A     -0.791171    17A     -0.741149    18A     -0.705501
      19A     -0.690943    20A     -0.660745    21A     -0.598229
      22A     -0.597058    23A     -0.589675    24A     -0.555530
      25A     -0.540835    26A     -0.534945    27A     -0.520563
      28A     -0.516170    29A     -0.507138    30A     -0.469713
      31A     -0.469134    32A     -0.464184

  @DF-RHF Final Energy:  -419.93541904692609

   => Energetics <=

    Nuclear Repulsion Energy =            391.6411450988909451
    One-Electron Energy =               -1350.6822522511265561
    Two-Electron Energy =                 539.1056881053094685
    Total Energy =                       -419.9354190469260857
  Basis Set: (AUG-CC-PVTZ AUX)
    Blend: AUG-CC-PVTZ-RI
    Molecular point group: c1

    Geometry (in Angstrom), charge = 0, multiplicity = 1:

       Center              X                  Y                   Z               Mass
    ------------   -----------------  -----------------  -----------------  -----------------
         O            1.072667599263    -0.468699837272    -0.000037168745    15.994914619570
         O           -1.082909900737    -0.449888437272    -0.000033868745    15.994914619570
         O            0.001903099263     1.564181562728     0.000023131255    15.994914619570
         C            2.342354099263     0.273241562728     0.000002131255    12.000000000000
         C           -2.338545900737     0.273240562728     0.000006131255    12.000000000000
         C            3.434935099263    -0.770551437272     0.000034131255    12.000000000000
         C           -3.431129900737    -0.770550437272     0.000031131255    12.000000000000
         C            0.001904099263     0.345550562728    -0.000031868745    12.000000000000
         H            2.381894099263     0.914785562728    -0.884356868745     1.007825032230
         H            2.381841099263     0.914786562728     0.884362131255     1.007825032230
         H           -2.378036900737     0.914781562728     0.884369131255     1.007825032230
         H           -2.378085900737     0.914790562728    -0.884348868745     1.007825032230
         H            4.413667099263    -0.282632437272     0.000059131255     1.007825032230
         H            3.360189099263    -1.402888437272     0.886946131255     1.007825032230
         H            3.360237099263    -1.402892437272    -0.886878868745     1.007825032230
         H           -4.409859900737    -0.282628437272     0.000056131255     1.007825032230
         H           -3.356430900737    -1.402889437272    -0.886883868745     1.007825032230
         H           -3.356388900737    -1.402891437272     0.886940131255     1.007825032230

  Basis Set: AUG-CC-PVTZ
    Blend: AUG-CC-PVTZ
  Basis Set: (AUG-CC-PVTZ AUX)
    Blend: AUG-CC-PVTZ-JKFIT
	 Reference Energy          =    -419.9354190469260857 [Eh]
	 Singles Energy            =      -0.0000000000000000 [Eh]
	 Same-Spin Energy          =      -0.4059680375748531 [Eh]
	 Opposite-Spin Energy      =      -1.3133025044557498 [Eh]
	 Correlation Energy        =      -1.7192705420306029 [Eh]
	 Total Energy              =    -421.6546895889566713 [Eh]

	 ================> DF-SCS-MP2 Energies <==================
	-----------------------------------------------------------
	 SCS Same-Spin Scale       =       0.3333333333333333 [-]
	 SCS Opposite-Spin Scale   =       1.2000000000000000 [-]
	 SCS Same-Spin Energy      =      -0.1353226791916177 [Eh]
	 SCS Opposite-Spin Energy  =      -1.5759630053468998 [Eh]
	 SCS Correlation Energy    =      -1.7112856845385176 [Eh]
	 SCS Total Energy          =    -421.6467047314645811 [Eh]
	-----------------------------------------------------------

  Dipole Moment: [D]
     X:     0.0900      Y:    -0.4765      Z:     0.0000     Total:     0.4850

*** Psi4 exiting successfully. Buy a developer a beer!
