                               Psi4 1.3.2 release

  ==> Input File <==

--------------------------------------------------------------------------
#psi4
#
memory 32 gb

molecule  {
0 1
  O        1.0986603    -0.4550297     0.0432034
  O       -1.0848130    -0.4327500    -0.0000360
  O        0.0000000     1.5813200     0.0000210
  C        2.3404510     0.2903800     0.0000000
  C       -2.3404490     0.2903790     0.0000040
  C        3.4330320    -0.7534130     0.0000320
  C       -3.4330330    -0.7534120     0.0000290
  C        0.0000010     0.3626890    -0.0000340
  H        2.3799910     0.9319240    -0.8843590
  H        2.3799380     0.9319250     0.8843600
  H       -2.3799400     0.9319200     0.8843670
  H       -2.3799890     0.9319290    -0.8843510
  H        4.4117640    -0.2654940     0.0000570
  H        3.3582860    -1.3857500     0.8869440
  H        3.3583340    -1.3857540    -0.8868810
  H       -4.4117630    -0.2654900     0.0000540
  H       -3.3583340    -1.3857510    -0.8868860
  H       -3.3582920    -1.3857530     0.8869380
units angstrom
no_reorient  #important for SAPT in psi4, default
symmetry c1  #important for SAPT in psi4, default
}

set PROPERTIES_ORIGIN ["COM"]
properties('MP2/aug-cc-pvtz', properties = ['dipole'])
--------------------------------------------------------------------------

    Molecular point group: c1
  Charge       = 0
  Multiplicity = 1
  Basis Set: AUG-CC-PVTZ
    Blend: AUG-CC-PVTZ
  Basis Set: (AUG-CC-PVTZ AUX)
    Blend: AUG-CC-PVTZ-JKFIT

    Orbital Energies [Eh]
    ---------------------

    Doubly Occupied:

       1A    -20.608998     2A    -20.606878     3A    -20.549479
       4A    -11.432710     5A    -11.293084     6A    -11.289937
       7A    -11.226318     8A    -11.223748     9A     -1.492572
      10A     -1.391405    11A     -1.359375    12A     -1.055172
      13A     -1.024956    14A     -0.890731    15A     -0.844460
      16A     -0.792171    17A     -0.741552    18A     -0.705208
      19A     -0.691955    20A     -0.661912    21A     -0.599902
      22A     -0.596078    23A     -0.591008    24A     -0.554810
      25A     -0.541002    26A     -0.535806    27A     -0.519390
      28A     -0.515922    29A     -0.507418    30A     -0.471507
      31A     -0.469619    32A     -0.463958

  @DF-RHF Final Energy:  -419.93380980758127

   => Energetics <=

    Nuclear Repulsion Energy =            391.3169162662177882
    One-Electron Energy =               -1350.0033668466508061
    Two-Electron Energy =                 538.7526407728518052
    Total Energy =                       -419.9338098075812695
  Basis Set: (AUG-CC-PVTZ AUX)
    Blend: AUG-CC-PVTZ-RI
    Molecular point group: c1

    Geometry (in Angstrom), charge = 0, multiplicity = 1:

       Center              X                  Y                   Z               Mass
    ------------   -----------------  -----------------  -----------------  -----------------
         O            1.096784137671    -0.471698259621     0.037347105427    15.994914619570
         O           -1.086689162329    -0.449418559621    -0.005892294573    15.994914619570
         O           -0.001876162329     1.564651440379    -0.005835294573    15.994914619570
         C            2.338574837671     0.273711440379    -0.005856294573    12.000000000000
         C           -2.342325162329     0.273710440379    -0.005852294573    12.000000000000
         C            3.431155837671    -0.770081559621    -0.005824294573    12.000000000000
         C           -3.434909162329    -0.770080559621    -0.005827294573    12.000000000000
         C           -0.001875162329     0.346020440379    -0.005890294573    12.000000000000
         H            2.378114837671     0.915255440379    -0.890215294573     1.007825032230
         H            2.378061837671     0.915256440379     0.878503705427     1.007825032230
         H           -2.381816162329     0.915251440379     0.878510705427     1.007825032230
         H           -2.381865162329     0.915260440379    -0.890207294573     1.007825032230
         H            4.409887837671    -0.282162559621    -0.005799294573     1.007825032230
         H            3.356409837671    -1.402418559621     0.881087705427     1.007825032230
         H            3.356457837671    -1.402422559621    -0.892737294573     1.007825032230
         H           -4.413639162329    -0.282158559621    -0.005802294573     1.007825032230
         H           -3.360210162329    -1.402419559621    -0.892742294573     1.007825032230
         H           -3.360168162329    -1.402421559621     0.881081705427     1.007825032230

  Basis Set: AUG-CC-PVTZ
    Blend: AUG-CC-PVTZ
  Basis Set: (AUG-CC-PVTZ AUX)
    Blend: AUG-CC-PVTZ-JKFIT
	 Reference Energy          =    -419.9338098075812695 [Eh]
	 Singles Energy            =      -0.0000000000000000 [Eh]
	 Same-Spin Energy          =      -0.4062419948807844 [Eh]
	 Opposite-Spin Energy      =      -1.3139133239175840 [Eh]
	 Correlation Energy        =      -1.7201553187983682 [Eh]
	 Total Energy              =    -421.6539651263796600 [Eh]

	 ================> DF-SCS-MP2 Energies <==================
	-----------------------------------------------------------
	 SCS Same-Spin Scale       =       0.3333333333333333 [-]
	 SCS Opposite-Spin Scale   =       1.2000000000000000 [-]
	 SCS Same-Spin Energy      =      -0.1354139982935948 [Eh]
	 SCS Opposite-Spin Energy  =      -1.5766959887011007 [Eh]
	 SCS Correlation Energy    =      -1.7121099869946956 [Eh]
	 SCS Total Energy          =    -421.6459197945759456 [Eh]
	-----------------------------------------------------------

  Dipole Moment: [D]
     X:    -0.1657      Y:    -0.4267      Z:    -0.0541     Total:     0.4609

*** Psi4 exiting successfully. Buy a developer a beer!
