                               Psi4 1.3.2 release

  ==> Input File <==

--------------------------------------------------------------------------
#psi4
#
memory 32 gb

molecule  {
0 1
  O        1.1376565    -0.3551398    -0.0000378
  O       -1.0848130    -0.4327500    -0.0000360
  O        0.0000000     1.5813200     0.0000210
  C        2.3404510     0.2903800     0.0000000
  C       -2.3404490     0.2903790     0.0000040
  C        3.4330320    -0.7534130     0.0000320
  C       -3.4330330    -0.7534120     0.0000290
  C        0.0000010     0.3626890    -0.0000340
  H        2.3799910     0.9319240    -0.8843590
  H        2.3799380     0.9319250     0.8843600
  H       -2.3799400     0.9319200     0.8843670
  H       -2.3799890     0.9319290    -0.8843510
  H        4.4117640    -0.2654940     0.0000570
  H        3.3582860    -1.3857500     0.8869440
  H        3.3583340    -1.3857540    -0.8868810
  H       -4.4117630    -0.2654900     0.0000540
  H       -3.3583340    -1.3857510    -0.8868860
  H       -3.3582920    -1.3857530     0.8869380
units angstrom
no_reorient  #important for SAPT in psi4, default
symmetry c1  #important for SAPT in psi4, default
}

set PROPERTIES_ORIGIN ["COM"]
properties('MP2/aug-cc-pvtz', properties = ['dipole'])
--------------------------------------------------------------------------

    Molecular point group: c1
  Charge       = 0
  Multiplicity = 1
  Basis Set: AUG-CC-PVTZ
    Blend: AUG-CC-PVTZ
  Basis Set: (AUG-CC-PVTZ AUX)
    Blend: AUG-CC-PVTZ-JKFIT

    Orbital Energies [Eh]
    ---------------------

    Doubly Occupied:

       1A    -20.614165     2A    -20.604080     3A    -20.543346
       4A    -11.433565     5A    -11.296121     6A    -11.283096
       7A    -11.228277     8A    -11.222461     9A     -1.504627
      10A     -1.412788    11A     -1.357452    12A     -1.060785
      13A     -1.027144    14A     -0.903038    15A     -0.848712
      16A     -0.790810    17A     -0.757232    18A     -0.714984
      19A     -0.691354    20A     -0.669284    21A     -0.607952
      22A     -0.596696    23A     -0.596120    24A     -0.554615
      25A     -0.545162    26A     -0.544657    27A     -0.521087
      28A     -0.507937    29A     -0.504823    30A     -0.468847
      31A     -0.467696    32A     -0.455297

  @DF-RHF Final Energy:  -419.93428217357723

   => Energetics <=

    Nuclear Repulsion Energy =            393.0920778595013871
    One-Electron Energy =               -1353.3842999256460189
    Two-Electron Energy =                 540.3579398925674013
    Total Energy =                       -419.9342821735772304
  Basis Set: (AUG-CC-PVTZ AUX)
    Blend: AUG-CC-PVTZ-RI
    Molecular point group: c1

    Geometry (in Angstrom), charge = 0, multiplicity = 1:

       Center              X                  Y                   Z               Mass
    ------------   -----------------  -----------------  -----------------  -----------------
         O            1.130497218318    -0.385341223436    -0.000035871961    15.994914619570
         O           -1.091972281682    -0.462951423436    -0.000034071961    15.994914619570
         O           -0.007159281682     1.551118576564     0.000022928039    15.994914619570
         C            2.333291718318     0.260178576564     0.000001928039    12.000000000000
         C           -2.347608281682     0.260177576564     0.000005928039    12.000000000000
         C            3.425872718318    -0.783614423436     0.000033928039    12.000000000000
         C           -3.440192281682    -0.783613423436     0.000030928039    12.000000000000
         C           -0.007158281682     0.332487576564    -0.000032071961    12.000000000000
         H            2.372831718318     0.901722576564    -0.884357071961     1.007825032230
         H            2.372778718318     0.901723576564     0.884361928039     1.007825032230
         H           -2.387099281682     0.901718576564     0.884368928039     1.007825032230
         H           -2.387148281682     0.901727576564    -0.884349071961     1.007825032230
         H            4.404604718318    -0.295695423436     0.000058928039     1.007825032230
         H            3.351126718318    -1.415951423436     0.886945928039     1.007825032230
         H            3.351174718318    -1.415955423436    -0.886879071961     1.007825032230
         H           -4.418922281682    -0.295691423436     0.000055928039     1.007825032230
         H           -3.365493281682    -1.415952423436    -0.886884071961     1.007825032230
         H           -3.365451281682    -1.415954423436     0.886939928039     1.007825032230

  Basis Set: AUG-CC-PVTZ
    Blend: AUG-CC-PVTZ
  Basis Set: (AUG-CC-PVTZ AUX)
    Blend: AUG-CC-PVTZ-JKFIT
	 Reference Energy          =    -419.9342821735772304 [Eh]
	 Singles Energy            =      -0.0000000000000000 [Eh]
	 Same-Spin Energy          =      -0.4052693435810480 [Eh]
	 Opposite-Spin Energy      =      -1.3103714250542915 [Eh]
	 Correlation Energy        =      -1.7156407686353394 [Eh]
	 Total Energy              =    -421.6499229422125836 [Eh]

	 ================> DF-SCS-MP2 Energies <==================
	-----------------------------------------------------------
	 SCS Same-Spin Scale       =       0.3333333333333333 [-]
	 SCS Opposite-Spin Scale   =       1.2000000000000000 [-]
	 SCS Same-Spin Energy      =      -0.1350897811936827 [Eh]
	 SCS Opposite-Spin Energy  =      -1.5724457100651497 [Eh]
	 SCS Correlation Energy    =      -1.7075354912588323 [Eh]
	 SCS Total Energy          =    -421.6418176648360827 [Eh]
	-----------------------------------------------------------

  Dipole Moment: [D]
     X:    -0.3736      Y:    -0.6886      Z:     0.0000     Total:     0.7834

*** Psi4 exiting successfully. Buy a developer a beer!
