                               Psi4 1.4a3.dev225

  ==> Input File <==

--------------------------------------------------------------------------
#psi4
#
memory 32 gb

molecule  {
0 1
  O        1.0848250    -0.4328680    -0.0000110
  O       -1.0848250    -0.4328670    -0.0000100
  O        0.0000000     1.5811570     0.0000070
  C        2.3404700     0.2905210    -0.0000040
  C       -2.3404700     0.2905210    -0.0000020
  C        3.4331290    -0.7532350     0.0000100
  C       -3.4331290    -0.7532350     0.0000090
  C        0.0161289     0.3507298    -0.0000031
  H        2.3799590     0.9318790    -0.8844210
  H        2.3799440     0.9318880     0.8844070
  H       -2.3799450     0.9318860     0.8844110
  H       -2.3799580     0.9318810    -0.8844170
  H        4.4117970    -0.2652620     0.0000140
  H        3.3585260    -1.3857810     0.8868320
  H        3.3585390    -1.3857920    -0.8868050
  H       -4.4117970    -0.2652620     0.0000130
  H       -3.3585380    -1.3857890    -0.8868080
  H       -3.3585270    -1.3857830     0.8868290
units angstrom
no_reorient  #important for SAPT in psi4, default
symmetry c1  #important for SAPT in psi4, default
}

set PROPERTIES_ORIGIN ["COM"]
properties('MP2/aug-cc-pvtz', properties = ['dipole'])
--------------------------------------------------------------------------

    Molecular point group: c1
  Charge       = 0
  Multiplicity = 1
  Basis Set: AUG-CC-PVTZ
    Blend: AUG-CC-PVTZ
  Basis Set: (AUG-CC-PVTZ AUX)
    Blend: AUG-CC-PVTZ-JKFIT

    Orbital Energies [Eh]
    ---------------------

    Doubly Occupied:

       1A    -20.612357     2A    -20.604425     3A    -20.541541
       4A    -11.429771     5A    -11.294923     6A    -11.290416
       7A    -11.227446     8A    -11.224527     9A     -1.498472
      10A     -1.397483    11A     -1.349034    12A     -1.058395
      13A     -1.027032    14A     -0.894831    15A     -0.845965
      16A     -0.792253    17A     -0.745651    18A     -0.708420
      19A     -0.689096    20A     -0.662735    21A     -0.599794
      22A     -0.597827    23A     -0.589153    24A     -0.555915
      25A     -0.542383    26A     -0.538266    27A     -0.520751
      28A     -0.514242    29A     -0.506238    30A     -0.466951
      31A     -0.466787    32A     -0.463052

  @DF-RHF Final Energy:  -419.93624775848457

   => Energetics <=

    Nuclear Repulsion Energy =            391.9223852061351181
    One-Electron Energy =               -1351.2050002023777324
    Two-Electron Energy =                 539.3463672377580451
    Total Energy =                       -419.9362477584845692
  Basis Set: (AUG-CC-PVTZ AUX)
    Blend: AUG-CC-PVTZ-RI
    Molecular point group: c1

    Geometry (in Angstrom), charge = 0, multiplicity = 1:

       Center              X                  Y                   Z               Mass
    ------------   -----------------  -----------------  -----------------  -----------------
         O            1.083185648048    -0.451351707279    -0.000010579052    15.994914619570
         O           -1.086464351952    -0.451350707279    -0.000009579052    15.994914619570
         O           -0.001639351952     1.562673292721     0.000007420948    15.994914619570
         C            2.338830648048     0.272037292721    -0.000003579052    12.000000000000
         C           -2.342109351952     0.272037292721    -0.000001579052    12.000000000000
         C            3.431489648048    -0.771718707279     0.000010420948    12.000000000000
         C           -3.434768351952    -0.771718707279     0.000009420948    12.000000000000
         C            0.014489548048     0.332246092721    -0.000002679052    12.000000000000
         H            2.378319648048     0.913395292721    -0.884420579052     1.007825032230
         H            2.378304648048     0.913404292721     0.884407420948     1.007825032230
         H           -2.381584351952     0.913402292721     0.884411420948     1.007825032230
         H           -2.381597351952     0.913397292721    -0.884416579052     1.007825032230
         H            4.410157648048    -0.283745707279     0.000014420948     1.007825032230
         H            3.356886648048    -1.404264707279     0.886832420948     1.007825032230
         H            3.356899648048    -1.404275707279    -0.886804579052     1.007825032230
         H           -4.413436351952    -0.283745707279     0.000013420948     1.007825032230
         H           -3.360177351952    -1.404272707279    -0.886807579052     1.007825032230
         H           -3.360166351952    -1.404266707279     0.886829420948     1.007825032230

  Basis Set: AUG-CC-PVTZ
    Blend: AUG-CC-PVTZ
  Basis Set: (AUG-CC-PVTZ AUX)
    Blend: AUG-CC-PVTZ-JKFIT
	 Reference Energy          =    -419.9362477584845692 [Eh]
	 Singles Energy            =      -0.0000000000000000 [Eh]
	 Same-Spin Energy          =      -0.4058128462703995 [Eh]
	 Opposite-Spin Energy      =      -1.3125945688189609 [Eh]
	 Correlation Energy        =      -1.7184074150893605 [Eh]
	 Total Energy              =    -421.6546551735739286 [Eh]

	 ================> DF-SCS-MP2 Energies <==================
	-----------------------------------------------------------
	 SCS Same-Spin Scale       =       0.3333333333333333 [-]
	 SCS Opposite-Spin Scale   =       1.2000000000000000 [-]
	 SCS Same-Spin Energy      =      -0.1352709487567998 [Eh]
	 SCS Opposite-Spin Energy  =      -1.5751134825827531 [Eh]
	 SCS Correlation Energy    =      -1.7103844313395529 [Eh]
	 SCS Total Energy          =    -421.6466321898241176 [Eh]
	-----------------------------------------------------------

  Dipole Moment: [D]
     X:     0.2108      Y:    -0.6097      Z:     0.0000     Total:     0.6451

*** Psi4 exiting successfully. Buy a developer a beer!
