                               Psi4 1.3.2 release

  ==> Input File <==

--------------------------------------------------------------------------
#psi4
#
memory 32 gb

molecule  {
0 1
  O        0.9957233    -0.5417861    -0.0000455
  O       -1.0848130    -0.4327500    -0.0000360
  O        0.0000000     1.5813200     0.0000210
  C        2.3404510     0.2903800     0.0000000
  C       -2.3404490     0.2903790     0.0000040
  C        3.4330320    -0.7534130     0.0000320
  C       -3.4330330    -0.7534120     0.0000290
  C        0.0000010     0.3626890    -0.0000340
  H        2.3799910     0.9319240    -0.8843590
  H        2.3799380     0.9319250     0.8843600
  H       -2.3799400     0.9319200     0.8843670
  H       -2.3799890     0.9319290    -0.8843510
  H        4.4117640    -0.2654940     0.0000570
  H        3.3582860    -1.3857500     0.8869440
  H        3.3583340    -1.3857540    -0.8868810
  H       -4.4117630    -0.2654900     0.0000540
  H       -3.3583340    -1.3857510    -0.8868860
  H       -3.3582920    -1.3857530     0.8869380
units angstrom
no_reorient  #important for SAPT in psi4, default
symmetry c1  #important for SAPT in psi4, default
}

set PROPERTIES_ORIGIN ["COM"]
properties('MP2/aug-cc-pvtz', properties = ['dipole'])
--------------------------------------------------------------------------

    Molecular point group: c1
  Charge       = 0
  Multiplicity = 1
  Basis Set: AUG-CC-PVTZ
    Blend: AUG-CC-PVTZ
  Basis Set: (AUG-CC-PVTZ AUX)
    Blend: AUG-CC-PVTZ-JKFIT

    Orbital Energies [Eh]
    ---------------------

    Doubly Occupied:

       1A    -20.607903     2A    -20.596238     3A    -20.547504
       4A    -11.424763     5A    -11.306331     6A    -11.285390
       7A    -11.230581     8A    -11.221470     9A     -1.489096
      10A     -1.368538    11A     -1.357815    12A     -1.052587
      13A     -1.025401    14A     -0.881393    15A     -0.844737
      16A     -0.788622    17A     -0.724691    18A     -0.698507
      19A     -0.690401    20A     -0.654500    21A     -0.600109
      22A     -0.590813    23A     -0.585243    24A     -0.555176
      25A     -0.536025    26A     -0.532828    27A     -0.517859
      28A     -0.512876    29A     -0.508531    30A     -0.476057
      31A     -0.469362    32A     -0.460532

  @DF-RHF Final Energy:  -419.91722829463083

   => Energetics <=

    Nuclear Repulsion Energy =            390.4053865496955495
    One-Electron Energy =               -1348.3614753536508033
    Two-Electron Energy =                 538.0388605093244223
    Total Energy =                       -419.9172282946308314
  Basis Set: (AUG-CC-PVTZ AUX)
    Blend: AUG-CC-PVTZ-RI
    Molecular point group: c1

    Geometry (in Angstrom), charge = 0, multiplicity = 1:

       Center              X                  Y                   Z               Mass
    ------------   -----------------  -----------------  -----------------  -----------------
         O            1.007792815888    -0.546701093482    -0.000042528782    15.994914619570
         O           -1.072743484112    -0.437664993482    -0.000033028782    15.994914619570
         O            0.012069515888     1.576405006518     0.000023971218    15.994914619570
         C            2.352520515888     0.285465006518     0.000002971218    12.000000000000
         C           -2.328379484112     0.285464006518     0.000006971218    12.000000000000
         C            3.445101515888    -0.758327993482     0.000034971218    12.000000000000
         C           -3.420963484112    -0.758326993482     0.000031971218    12.000000000000
         C            0.012070515888     0.357774006518    -0.000031028782    12.000000000000
         H            2.392060515888     0.927009006518    -0.884356028782     1.007825032230
         H            2.392007515888     0.927010006518     0.884362971218     1.007825032230
         H           -2.367870484112     0.927005006518     0.884369971218     1.007825032230
         H           -2.367919484112     0.927014006518    -0.884348028782     1.007825032230
         H            4.423833515888    -0.270408993482     0.000059971218     1.007825032230
         H            3.370355515888    -1.390664993482     0.886946971218     1.007825032230
         H            3.370403515888    -1.390668993482    -0.886878028782     1.007825032230
         H           -4.399693484112    -0.270404993482     0.000056971218     1.007825032230
         H           -3.346264484112    -1.390665993482    -0.886883028782     1.007825032230
         H           -3.346222484112    -1.390667993482     0.886940971218     1.007825032230

  Basis Set: AUG-CC-PVTZ
    Blend: AUG-CC-PVTZ
  Basis Set: (AUG-CC-PVTZ AUX)
    Blend: AUG-CC-PVTZ-JKFIT
	 Reference Energy          =    -419.9172282946308314 [Eh]
	 Singles Energy            =      -0.0000000000000000 [Eh]
	 Same-Spin Energy          =      -0.4073863885896570 [Eh]
	 Opposite-Spin Energy      =      -1.3176142649738751 [Eh]
	 Correlation Energy        =      -1.7250006535635323 [Eh]
	 Total Energy              =    -421.6422289481943722 [Eh]

	 ================> DF-SCS-MP2 Energies <==================
	-----------------------------------------------------------
	 SCS Same-Spin Scale       =       0.3333333333333333 [-]
	 SCS Opposite-Spin Scale   =       1.2000000000000000 [-]
	 SCS Same-Spin Energy      =      -0.1357954628632190 [Eh]
	 SCS Opposite-Spin Energy  =      -1.5811371179686502 [Eh]
	 SCS Correlation Energy    =      -1.7169325808318692 [Eh]
	 SCS Total Energy          =    -421.6341608754627259 [Eh]
	-----------------------------------------------------------

  Dipole Moment: [D]
     X:     0.5190      Y:    -0.3032      Z:     0.0000     Total:     0.6011

*** Psi4 exiting successfully. Buy a developer a beer!
